 Gaussian 16, Revision A.03,
 Gaussian 16:  ES64L-G16RevA.03 25-Dec-2016

 ---------------
 #n wB97/Gen Opt
 ---------------

 ----------------------
 b-caroten-s0-wb97-tzvp
 ----------------------
 Symbolic Z-matrix:
 Charge =  0 Multiplicity = 1

 SCF Done:  E(RwB97) =  -1558.11371202     A.U. after   14 cycles
 SCF Done:  E(RwB97) =  -1558.12035905     A.U. after   12 cycles
 SCF Done:  E(RwB97) =  -1558.12100383     A.U. after   11 cycles
 SCF Done:  E(RwB97) =  -1558.12111669     A.U. after   11 cycles
 SCF Done:  E(RwB97) =  -1558.12123154     A.U. after   10 cycles
 SCF Done:  E(RwB97) =  -1558.12125477     A.U. after   10 cycles
 SCF Done:  E(RwB97) =  -1558.12126753     A.U. after   10 cycles
 SCF Done:  E(RwB97) =  -1558.12127010     A.U. after    9 cycles
 SCF Done:  E(RwB97) =  -1558.12127127     A.U. after    9 cycles
 SCF Done:  E(RwB97) =  -1558.12127167     A.U. after    7 cycles
 SCF Done:  E(RwB97) =  -1558.12127201     A.U. after    6 cycles
 SCF Done:  E(RwB97) =  -1558.12127218     A.U. after    6 cycles
 SCF Done:  E(RwB97) =  -1558.12127222     A.U. after    6 cycles
 SCF Done:  E(RwB97) =  -1558.12127221     A.U. after    6 cycles
 SCF Done:  E(RwB97) =  -1558.12127220     A.U. after    6 cycles
 Optimization completed.
    -- Stationary point found.

                         Standard orientation:
 ---------------------------------------------------------------------
 Center     Atomic      Atomic             Coordinates (Angstroms)
 Number     Number       Type             X           Y           Z
 ---------------------------------------------------------------------
      1          6           0       12.014977    0.469935   -0.800673
      2          6           0      -12.011356   -0.051233    0.922508
      3          6           0       13.331489   -0.308058   -0.663380
      4          6           0      -12.884660    1.131756    1.362680
      5          6           0       13.109824   -1.795742   -0.444714
      6          6           0      -13.361569    1.973735    0.191385
      7          6           0       11.004712    0.029141    0.268839
      8          6           0      -10.960233    0.400338   -0.103836
      9          6           0       12.346814   -2.004467    0.853738
     10          6           0      -12.161739    2.555735   -0.540731
     11          6           0       11.172732   -1.067758    1.023720
     12          6           0      -11.042927    1.562944   -0.770486
     13          6           0       11.408301    0.241680   -2.193078
     14          6           0       12.340739    1.963497   -0.656280
     15          6           0      -12.891686   -1.152441    0.311009
     16          6           0      -11.323779   -0.614203    2.173444
     17          6           0        9.811552    0.901371    0.403072
     18          6           0       -9.862582   -0.573749   -0.317057
     19          6           0       10.251394   -1.486291    2.140478
     20          6           0      -10.053597    2.024979   -1.809427
     21          6           0        8.548410    0.482280    0.290062
     22          6           0       -8.556731   -0.303364   -0.244691
     23          6           0        7.348600    1.322566    0.407441
     24          6           0       -7.467280   -1.272892   -0.423522
     25          6           0        7.548831    2.787931    0.676262
     26          6           0       -7.844876   -2.698310   -0.715824
     27          6           0        6.144482    0.738436    0.268073
     28          6           0       -6.199103   -0.836666   -0.313547
     29          6           0        4.836698    1.371741    0.347162
     30          6           0       -4.977200   -1.615330   -0.447540
     31          6           0        3.692393    0.689924    0.189084
     32          6           0       -3.756919   -1.075089   -0.316179
     33          6           0        2.349461    1.269615    0.258719
     34          6           0       -2.482680   -1.787921   -0.433287
     35          6           0        2.244091    2.746356    0.532682
     36          6           0       -2.538424   -3.261553   -0.727169
     37          6           0        1.228757    0.538970    0.089488
     38          6           0       -1.342577   -1.087549   -0.271390
     39          6           0        1.146071   -0.888328   -0.184055
     40          6           0        0.016149   -1.601308   -0.344186
     41          1           0       13.891138    0.093098    0.191993
     42          1           0       13.943095   -0.127080   -1.554643
     43          1           0      -12.298747    1.768016    2.038814
     44          1           0      -13.731931    0.749476    1.943596
     45          1           0       14.064782   -2.328664   -0.415347
     46          1           0       12.540357   -2.217011   -1.280433
     47          1           0      -14.021349    2.775508    0.536040
     48          1           0      -13.950392    1.358464   -0.497707
     49          1           0       13.020692   -1.870741    1.711674
     50          1           0       11.981178   -3.035829    0.926280
     51          1           0      -11.753442    3.404439    0.026312
     52          1           0      -12.469099    2.969864   -1.507470
     53          1           0       11.225472   -0.819367   -2.383022
     54          1           0       12.083316    0.618435   -2.968906
     55          1           0       10.452365    0.763919   -2.291201
     56          1           0       12.651804    2.203664    0.365432
     57          1           0       11.489777    2.598279   -0.916705
     58          1           0       13.162569    2.225759   -1.330075
     59          1           0      -13.446696   -0.788841   -0.557422
     60          1           0      -13.611275   -1.515404    1.052438
     61          1           0      -12.294303   -2.009195   -0.013220
     62          1           0      -10.620958    0.111777    2.593136
     63          1           0      -10.767498   -1.530493    1.958694
     64          1           0      -12.073656   -0.846089    2.936974
     65          1           0        9.998334    1.960600    0.570668
     66          1           0      -10.170651   -1.604396   -0.491863
     67          1           0        9.563958   -0.698031    2.444605
     68          1           0       10.845934   -1.788505    3.009628
     69          1           0        9.658852   -2.360625    1.848704
     70          1           0       -9.363743    1.242057   -2.120103
     71          1           0       -9.463037    2.867425   -1.430868
     72          1           0      -10.587160    2.390225   -2.692819
     73          1           0        8.367027   -0.573473    0.089752
     74          1           0       -8.246207    0.717366   -0.024351
     75          1           0        8.093530    2.934082    1.613969
     76          1           0        6.609084    3.333721    0.743438
     77          1           0        8.147732    3.242995   -0.118746
     78          1           0       -8.437783   -2.756950   -1.633692
     79          1           0       -8.461155   -3.103541    0.092929
     80          1           0       -6.976998   -3.345297   -0.833255
     81          1           0        6.128780   -0.333721    0.072987
     82          1           0       -6.051764    0.221424   -0.097489
     83          1           0        4.796763    2.439429    0.542820
     84          1           0       -5.066221   -2.676688   -0.661679
     85          1           0        3.767406   -0.376914   -0.005155
     86          1           0       -3.683716   -0.008962   -0.101357
     87          1           0        2.708956    3.002296    1.490030
     88          1           0        1.200783    3.063421    0.564075
     89          1           0        2.755045    3.326661   -0.242125
     90          1           0       -3.062568   -3.442081   -1.670603
     91          1           0       -3.092772   -3.785691    0.057282
     92          1           0       -1.550971   -3.713406   -0.800035
     93          1           0        0.284739    1.072702    0.163612
     94          1           0       -1.452905   -0.026052   -0.062924
     95          1           0        2.080450   -1.434376   -0.269688
     96          1           0        0.133745   -2.661755   -0.545747
 ---------------------------------------------------------------------

 The electronic state is 1-A.
 Alpha  occ. eigenvalues --  -10.14576 -10.14560 -10.14449 -10.14228 -10.14101
 Alpha  occ. eigenvalues --  -10.14061 -10.13575 -10.13395 -10.13327 -10.13308
 Alpha  occ. eigenvalues --  -10.13274 -10.13201 -10.13105 -10.13100 -10.13044
 Alpha  occ. eigenvalues --  -10.13032 -10.13012 -10.12865 -10.12850 -10.12716
 Alpha  occ. eigenvalues --  -10.12700 -10.12639 -10.12638 -10.12610 -10.12508
 Alpha  occ. eigenvalues --  -10.12496 -10.12491 -10.12479 -10.12355 -10.12310
 Alpha  occ. eigenvalues --  -10.11944 -10.11939 -10.11771 -10.11750 -10.11487
 Alpha  occ. eigenvalues --  -10.11420 -10.11409 -10.11371 -10.11024 -10.11009
 Alpha  occ. eigenvalues --   -1.01002  -1.00949  -0.99574  -0.99038  -0.98001
 Alpha  occ. eigenvalues --   -0.97339  -0.94531  -0.94041  -0.93961  -0.93183
 Alpha  occ. eigenvalues --   -0.92426  -0.90704  -0.89692  -0.87335  -0.87138
 Alpha  occ. eigenvalues --   -0.85045  -0.83739  -0.83722  -0.82882  -0.82848
 Alpha  occ. eigenvalues --   -0.82686  -0.82305  -0.81793  -0.81723  -0.81449
 Alpha  occ. eigenvalues --   -0.76906  -0.76159  -0.73821  -0.73271  -0.70933
 Alpha  occ. eigenvalues --   -0.70453  -0.69633  -0.69048  -0.67781  -0.67070
 Alpha  occ. eigenvalues --   -0.66406  -0.65811  -0.64142  -0.63394  -0.62282
 Alpha  occ. eigenvalues --   -0.61571  -0.60797  -0.60463  -0.59733  -0.59312
 Alpha  occ. eigenvalues --   -0.58443  -0.57914  -0.57714  -0.57353  -0.57012
 Alpha  occ. eigenvalues --   -0.56174  -0.55683  -0.55045  -0.54834  -0.54744
 Alpha  occ. eigenvalues --   -0.54657  -0.54592  -0.54394  -0.54367  -0.54305
 Alpha  occ. eigenvalues --   -0.53826  -0.53494  -0.52176  -0.51947  -0.51772
 Alpha  occ. eigenvalues --   -0.51537  -0.51416  -0.51357  -0.50965  -0.50649
 Alpha  occ. eigenvalues --   -0.50429  -0.50368  -0.49611  -0.49183  -0.48987
 Alpha  occ. eigenvalues --   -0.48753  -0.48295  -0.48237  -0.47788  -0.47607
 Alpha  occ. eigenvalues --   -0.47234  -0.46567  -0.46503  -0.46357  -0.46264
 Alpha  occ. eigenvalues --   -0.46077  -0.45736  -0.45523  -0.45402  -0.45279
 Alpha  occ. eigenvalues --   -0.44997  -0.44527  -0.44477  -0.42824  -0.42790
 Alpha  occ. eigenvalues --   -0.42696  -0.42331  -0.41986  -0.41058  -0.40294
 Alpha  occ. eigenvalues --   -0.39698  -0.39375  -0.37683  -0.34966  -0.33572
 Alpha  occ. eigenvalues --   -0.31762  -0.29055  -0.26399
 Alpha virt. eigenvalues --   -0.00305   0.02586   0.06747   0.09519   0.10902
 Alpha virt. eigenvalues --    0.11159   0.11896   0.12262   0.12303   0.12783
 Alpha virt. eigenvalues --    0.13114   0.13355   0.13729   0.13865   0.14318

 Mulliken charges:
               1
     1  C    0.363832
     2  C    0.239634
     3  C   -0.248451
     4  C   -0.253216
     5  C   -0.227661
     6  C   -0.223693
     7  C   -0.072469
     8  C   -0.029866
     9  C   -0.191914
    10  C   -0.178199
    11  C   -0.038386
    12  C   -0.040988
    13  C   -0.449096
    14  C   -0.465206
    15  C   -0.426273
    16  C   -0.379404
    17  C   -0.272476
    18  C   -0.222633
    19  C   -0.398987
    20  C   -0.400090
    21  C   -0.252142
    22  C   -0.272343
    23  C    0.176562
    24  C    0.176498
    25  C   -0.397562
    26  C   -0.397781
    27  C   -0.160933
    28  C   -0.167230
    29  C   -0.074935
    30  C   -0.060667
    31  C   -0.135962
    32  C   -0.203561
    33  C    0.062306
    34  C    0.082043
    35  C   -0.408831
    36  C   -0.400844
    37  C   -0.114387
    38  C   -0.040195
    39  C   -0.141507
    40  C   -0.177470
    41  H    0.109143
    42  H    0.118257
    43  H    0.108770
    44  H    0.117144
    45  H    0.116485
    46  H    0.105418
    47  H    0.115825
    48  H    0.106615
    49  H    0.118785
    50  H    0.116664
    51  H    0.115147
    52  H    0.109463
    53  H    0.116434
    54  H    0.119384
    55  H    0.136855
    56  H    0.135996
    57  H    0.125742
    58  H    0.128207
    59  H    0.120750
    60  H    0.121710
    61  H    0.112854
    62  H    0.126916
    63  H    0.121312
    64  H    0.123210
    65  H    0.149861
    66  H    0.130475
    67  H    0.144952
    68  H    0.119827
    69  H    0.132661
    70  H    0.152471
    71  H    0.128517
    72  H    0.116971
    73  H    0.133818
    74  H    0.141893
    75  H    0.138239
    76  H    0.116838
    77  H    0.134609
    78  H    0.137923
    79  H    0.133704
    80  H    0.116763
    81  H    0.109244
    82  H    0.108739
    83  H    0.109618
    84  H    0.105869
    85  H    0.105013
    86  H    0.107368
    87  H    0.134295
    88  H    0.118149
    89  H    0.134303
    90  H    0.137479
    91  H    0.137917
    92  H    0.116088
    93  H    0.100453
    94  H    0.110776
    95  H    0.116273
    96  H    0.096290
 Sum of Mulliken charges =  -0.00000

 Dipole moment (field-independent basis, Debye):
    X=              0.1947    Y=              0.0997    Z=              0.0950  Tot=              0.2385
 Quadrupole moment (field-independent basis, Debye-Ang):
   XX=           -223.0982   YY=           -235.7535   ZZ=           -259.8748
   XY=             -1.5910   XZ=              1.7221   YZ=              3.1739

 Normal termination of Gaussian 16 at Thu Jul 18 00:15:23 2019.
