 Gaussian 16, Revision A.03,
 Gaussian 16:  ES64L-G16RevA.03 25-Dec-2016

 --------------------------
 #n wB97/Gen Td(NStates=10)
 --------------------------

 ----------------------
 b-caroten-td-wb97-tzvp
 ----------------------
 Symbolic Z-matrix:
 Charge =  0 Multiplicity = 1

                         Standard orientation:
 ---------------------------------------------------------------------
 Center     Atomic      Atomic             Coordinates (Angstroms)
 Number     Number       Type             X           Y           Z
 ---------------------------------------------------------------------
      1          6           0       12.014980    0.469931   -0.800669
      2          6           0      -12.011359   -0.051231    0.922511
      3          6           0       13.331491   -0.308059   -0.663379
      4          6           0      -12.884660    1.131759    1.362681
      5          6           0       13.109821   -1.795739   -0.444709
      6          6           0      -13.361570    1.973739    0.191381
      7          6           0       11.004711    0.029141    0.268841
      8          6           0      -10.960230    0.400339   -0.103839
      9          6           0       12.346811   -2.004469    0.853741
     10          6           0      -12.161740    2.555729   -0.540729
     11          6           0       11.172731   -1.067759    1.023721
     12          6           0      -11.042930    1.562939   -0.770489
     13          6           0       11.408300    0.241681   -2.193079
     14          6           0       12.340740    1.963501   -0.656279
     15          6           0      -12.891689   -1.152441    0.311011
     16          6           0      -11.323779   -0.614201    2.173441
     17          6           0        9.811550    0.901371    0.403071
     18          6           0       -9.862579   -0.573751   -0.317059
     19          6           0       10.251391   -1.486289    2.140481
     20          6           0      -10.053600    2.024979   -1.809429
     21          6           0        8.548410    0.482280    0.290061
     22          6           0       -8.556729   -0.303361   -0.244689
     23          6           0        7.348600    1.322570    0.407441
     24          6           0       -7.467279   -1.272890   -0.423519
     25          6           0        7.548830    2.787930    0.676261
     26          6           0       -7.844879   -2.698311   -0.715819
     27          6           0        6.144480    0.738440    0.268071
     28          6           0       -6.199099   -0.836670   -0.313549
     29          6           0        4.836700    1.371740    0.347161
     30          6           0       -4.977199   -1.615330   -0.447539
     31          6           0        3.692390    0.689920    0.189081
     32          6           0       -3.756919   -1.075090   -0.316179
     33          6           0        2.349460    1.269610    0.258721
     34          6           0       -2.482679   -1.787920   -0.433289
     35          6           0        2.244090    2.746360    0.532681
     36          6           0       -2.538419   -3.261550   -0.727169
     37          6           0        1.228760    0.538970    0.089491
     38          6           0       -1.342579   -1.087550   -0.271389
     39          6           0        1.146071   -0.888330   -0.184049
     40          6           0        0.016151   -1.601310   -0.344189
     41          1           0       13.891141    0.093101    0.191991
     42          1           0       13.943091   -0.127079   -1.554639
     43          1           0      -12.298750    1.768019    2.038811
     44          1           0      -13.731930    0.749479    1.943601
     45          1           0       14.064781   -2.328659   -0.415349
     46          1           0       12.540361   -2.217009   -1.280429
     47          1           0      -14.021350    2.775509    0.536041
     48          1           0      -13.950390    1.358459   -0.497709
     49          1           0       13.020691   -1.870739    1.711671
     50          1           0       11.981181   -3.035829    0.926281
     51          1           0      -11.753440    3.404439    0.026311
     52          1           0      -12.469100    2.969859   -1.507469
     53          1           0       11.225471   -0.819369   -2.383019
     54          1           0       12.083320    0.618431   -2.968909
     55          1           0       10.452370    0.763921   -2.291199
     56          1           0       12.651800    2.203661    0.365431
     57          1           0       11.489780    2.598281   -0.916699
     58          1           0       13.162570    2.225761   -1.330069
     59          1           0      -13.446699   -0.788841   -0.557419
     60          1           0      -13.611269   -1.515401    1.052441
     61          1           0      -12.294299   -2.009201   -0.013219
     62          1           0      -10.620959    0.111779    2.593141
     63          1           0      -10.767499   -1.530491    1.958691
     64          1           0      -12.073659   -0.846091    2.936971
     65          1           0        9.998330    1.960601    0.570671
     66          1           0      -10.170649   -1.604401   -0.491859
     67          1           0        9.563961   -0.698029    2.444611
     68          1           0       10.845931   -1.788509    3.009631
     69          1           0        9.658851   -2.360629    1.848701
     70          1           0       -9.363740    1.242059   -2.120099
     71          1           0       -9.463040    2.867419   -1.430869
     72          1           0      -10.587160    2.390229   -2.692819
     73          1           0        8.367031   -0.573470    0.089751
     74          1           0       -8.246210    0.717369   -0.024349
     75          1           0        8.093530    2.934080    1.613971
     76          1           0        6.609080    3.333720    0.743441
     77          1           0        8.147730    3.243000   -0.118749
     78          1           0       -8.437779   -2.756951   -1.633689
     79          1           0       -8.461149   -3.103541    0.092931
     80          1           0       -6.976999   -3.345300   -0.833249
     81          1           0        6.128781   -0.333720    0.072991
     82          1           0       -6.051760    0.221420   -0.097489
     83          1           0        4.796760    2.439430    0.542821
     84          1           0       -5.066219   -2.676690   -0.661679
     85          1           0        3.767411   -0.376910   -0.005149
     86          1           0       -3.683719   -0.008960   -0.101359
     87          1           0        2.708960    3.002300    1.490031
     88          1           0        1.200780    3.063420    0.564071
     89          1           0        2.755040    3.326660   -0.242129
     90          1           0       -3.062569   -3.442080   -1.670599
     91          1           0       -3.092769   -3.785690    0.057281
     92          1           0       -1.550969   -3.713410   -0.800039
     93          1           0        0.284740    1.072700    0.163611
     94          1           0       -1.452899   -0.026050   -0.062919
     95          1           0        2.080451   -1.434380   -0.269689
     96          1           0        0.133751   -2.661750   -0.545749
 ---------------------------------------------------------------------

 SCF Done:  E(RwB97) =  -1558.12127220     A.U. after   14 cycles

 Excitation energies and oscillator strengths:

 Excited State   1:      Singlet-A      3.4140 eV  363.16 nm  f=3.8609  <S**2>=0.000
     146 -> 151        0.11823
     147 -> 150        0.25143
     148 -> 149        0.63026
 This state for optimization and/or second-order correction.
 Total Energy, E(TD-HF/TD-DFT) =  -1557.99580888
 Copying the excited state density for this state as the 1-particle RhoCI density.

 Excited State   2:      Singlet-A      4.2965 eV  288.57 nm  f=0.0208  <S**2>=0.000
     146 -> 150        0.12564
     147 -> 149        0.46128
     147 -> 151        0.14353
     148 -> 150        0.46020

 Excited State   3:      Singlet-A      4.9979 eV  248.07 nm  f=0.6690  <S**2>=0.000
     144 -> 149        0.14215
     146 -> 149        0.40789
     146 -> 151        0.10917
     147 -> 150        0.38493
     148 -> 151        0.30366

 Excited State   4:      Singlet-A      5.2010 eV  238.38 nm  f=0.0076  <S**2>=0.000
     145 -> 151       -0.10970
     146 -> 150       -0.26903
     147 -> 149       -0.37507
     147 -> 151        0.11614
     148 -> 150        0.43105
     148 -> 152       -0.12411

 Excited State   5:      Singlet-A      5.5656 eV  222.77 nm  f=0.0037  <S**2>=0.000
     143 -> 149       -0.14097
     144 -> 150       -0.12976
     145 -> 149        0.37694
     145 -> 151        0.13517
     146 -> 150        0.30972
     146 -> 152        0.14364
     147 -> 149       -0.13043
     147 -> 151        0.29028
     148 -> 152        0.18033

 Excited State   6:      Singlet-A      5.8554 eV  211.74 nm  f=0.1424  <S**2>=0.000
     144 -> 149       -0.30257
     144 -> 151       -0.16650
     145 -> 150        0.40053
     145 -> 152        0.13925
     146 -> 149        0.15663
     146 -> 151        0.22397
     147 -> 150       -0.11256
     148 -> 151       -0.19248

 Excited State   7:      Singlet-A      5.9491 eV  208.41 nm  f=0.0372  <S**2>=0.000
     143 -> 150        0.11648
     144 -> 149       -0.27585
     146 -> 149       -0.30409
     147 -> 152        0.22154
     148 -> 151        0.42179

 Excited State   8:      Singlet-A      6.1872 eV  200.39 nm  f=0.0193  <S**2>=0.000
     143 -> 149       -0.20627
     144 -> 150        0.34682
     145 -> 149       -0.18637
     145 -> 151       -0.23681
     147 -> 151        0.22552
     148 -> 152        0.27178

 Excited State   9:      Singlet-A      6.4735 eV  191.53 nm  f=0.0016  <S**2>=0.000
     139 -> 149        0.12509
     143 -> 149        0.37263
     144 -> 150       -0.12886
     145 -> 149       -0.16977
     146 -> 150       -0.12421
     146 -> 152        0.15448
     147 -> 151        0.12205
     147 -> 153       -0.12520
     147 -> 155       -0.12123
     148 -> 152        0.31362

 Excited State  10:      Singlet-A      6.6022 eV  187.79 nm  f=0.0302  <S**2>=0.000
     135 -> 149        0.11023
     142 -> 149       -0.10258
     143 -> 150       -0.25919
     144 -> 149        0.18627
     144 -> 151        0.14817
     146 -> 151        0.10227
     146 -> 153       -0.11712
     147 -> 150       -0.14471
     147 -> 152        0.29089
     148 -> 153       -0.19269
     148 -> 155       -0.15902
     148 -> 156        0.11230
     148 -> 163        0.11599

 The electronic state is 1-A.
 Alpha  occ. eigenvalues --  -10.14576 -10.14560 -10.14449 -10.14228 -10.14101
 Alpha  occ. eigenvalues --  -10.14061 -10.13575 -10.13395 -10.13327 -10.13308
 Alpha  occ. eigenvalues --  -10.13274 -10.13201 -10.13105 -10.13100 -10.13044
 Alpha  occ. eigenvalues --  -10.13032 -10.13012 -10.12865 -10.12850 -10.12716
 Alpha  occ. eigenvalues --  -10.12700 -10.12639 -10.12638 -10.12610 -10.12508
 Alpha  occ. eigenvalues --  -10.12496 -10.12491 -10.12479 -10.12355 -10.12310
 Alpha  occ. eigenvalues --  -10.11944 -10.11939 -10.11771 -10.11750 -10.11487
 Alpha  occ. eigenvalues --  -10.11420 -10.11409 -10.11371 -10.11024 -10.11009
 Alpha  occ. eigenvalues --   -1.01002  -1.00949  -0.99574  -0.99038  -0.98001
 Alpha  occ. eigenvalues --   -0.97339  -0.94531  -0.94041  -0.93961  -0.93183
 Alpha  occ. eigenvalues --   -0.92426  -0.90704  -0.89692  -0.87335  -0.87138
 Alpha  occ. eigenvalues --   -0.85045  -0.83739  -0.83722  -0.82881  -0.82848
 Alpha  occ. eigenvalues --   -0.82686  -0.82305  -0.81793  -0.81723  -0.81449
 Alpha  occ. eigenvalues --   -0.76906  -0.76159  -0.73821  -0.73271  -0.70933
 Alpha  occ. eigenvalues --   -0.70453  -0.69633  -0.69048  -0.67781  -0.67070
 Alpha  occ. eigenvalues --   -0.66406  -0.65811  -0.64142  -0.63394  -0.62282
 Alpha  occ. eigenvalues --   -0.61571  -0.60797  -0.60463  -0.59733  -0.59312
 Alpha  occ. eigenvalues --   -0.58442  -0.57914  -0.57714  -0.57353  -0.57012
 Alpha  occ. eigenvalues --   -0.56173  -0.55684  -0.55045  -0.54834  -0.54744
 Alpha  occ. eigenvalues --   -0.54657  -0.54592  -0.54394  -0.54367  -0.54305
 Alpha  occ. eigenvalues --   -0.53826  -0.53494  -0.52176  -0.51947  -0.51772
 Alpha  occ. eigenvalues --   -0.51537  -0.51416  -0.51357  -0.50965  -0.50649
 Alpha  occ. eigenvalues --   -0.50429  -0.50368  -0.49611  -0.49183  -0.48986
 Alpha  occ. eigenvalues --   -0.48753  -0.48295  -0.48238  -0.47788  -0.47607
 Alpha  occ. eigenvalues --   -0.47234  -0.46567  -0.46503  -0.46357  -0.46264
 Alpha  occ. eigenvalues --   -0.46077  -0.45736  -0.45523  -0.45402  -0.45279
 Alpha  occ. eigenvalues --   -0.44997  -0.44527  -0.44477  -0.42824  -0.42790
 Alpha  occ. eigenvalues --   -0.42696  -0.42331  -0.41985  -0.41058  -0.40294
 Alpha  occ. eigenvalues --   -0.39698  -0.39375  -0.37683  -0.34966  -0.33572
 Alpha  occ. eigenvalues --   -0.31762  -0.29055  -0.26399
 Alpha virt. eigenvalues --   -0.00305   0.02586   0.06747   0.09519   0.10902
 Alpha virt. eigenvalues --    0.11159   0.11896   0.12262   0.12303   0.12783
 Alpha virt. eigenvalues --    0.13114   0.13355   0.13729   0.13865   0.14318

 Mulliken charges:
               1
     1  C    0.363829
     2  C    0.239633
     3  C   -0.248451
     4  C   -0.253218
     5  C   -0.227663
     6  C   -0.223690
     7  C   -0.072467
     8  C   -0.029864
     9  C   -0.191909
    10  C   -0.178199
    11  C   -0.038389
    12  C   -0.040990
    13  C   -0.449096
    14  C   -0.465204
    15  C   -0.426272
    16  C   -0.379404
    17  C   -0.272475
    18  C   -0.222632
    19  C   -0.398988
    20  C   -0.400089
    21  C   -0.252141
    22  C   -0.272343
    23  C    0.176564
    24  C    0.176496
    25  C   -0.397564
    26  C   -0.397781
    27  C   -0.160935
    28  C   -0.167231
    29  C   -0.074936
    30  C   -0.060664
    31  C   -0.135960
    32  C   -0.203561
    33  C    0.062306
    34  C    0.082044
    35  C   -0.408830
    36  C   -0.400846
    37  C   -0.114389
    38  C   -0.040194
    39  C   -0.141506
    40  C   -0.177471
    41  H    0.109142
    42  H    0.118257
    43  H    0.108770
    44  H    0.117144
    45  H    0.116484
    46  H    0.105418
    47  H    0.115825
    48  H    0.106614
    49  H    0.118785
    50  H    0.116664
    51  H    0.115148
    52  H    0.109462
    53  H    0.116434
    54  H    0.119383
    55  H    0.136856
    56  H    0.135995
    57  H    0.125742
    58  H    0.128207
    59  H    0.120749
    60  H    0.121710
    61  H    0.112854
    62  H    0.126917
    63  H    0.121312
    64  H    0.123210
    65  H    0.149861
    66  H    0.130476
    67  H    0.144952
    68  H    0.119827
    69  H    0.132661
    70  H    0.152471
    71  H    0.128517
    72  H    0.116971
    73  H    0.133818
    74  H    0.141894
    75  H    0.138239
    76  H    0.116839
    77  H    0.134609
    78  H    0.137923
    79  H    0.133704
    80  H    0.116763
    81  H    0.109244
    82  H    0.108738
    83  H    0.109617
    84  H    0.105868
    85  H    0.105013
    86  H    0.107368
    87  H    0.134295
    88  H    0.118149
    89  H    0.134303
    90  H    0.137478
    91  H    0.137917
    92  H    0.116089
    93  H    0.100452
    94  H    0.110776
    95  H    0.116273
    96  H    0.096290
 Sum of Mulliken charges =  -0.00000

 Dipole moment (field-independent basis, Debye):
    X=              0.1948    Y=              0.0998    Z=              0.0950  Tot=              0.2386
 Quadrupole moment (field-independent basis, Debye-Ang):
   XX=           -223.0973   YY=           -235.7534   ZZ=           -259.8748
   XY=             -1.5912   XZ=              1.7220   YZ=              3.1739

 Normal termination of Gaussian 16 at Fri Jul 19 21:44:53 2019.
