 Gaussian 16, Revision A.03,
 Gaussian 16:  ES64L-G16RevA.03 25-Dec-2016

 -----------------
 #n wB97XD/Gen Opt
 -----------------

 -------------------------
 b-caroten-s0-wb97xd-tzvpp
 -------------------------
 Symbolic Z-matrix:
 Charge =  0 Multiplicity = 1

 SCF Done:  E(RwB97XD) =  -1557.95437983     A.U. after   14 cycles
 SCF Done:  E(RwB97XD) =  -1557.96005650     A.U. after   12 cycles
 SCF Done:  E(RwB97XD) =  -1557.96042770     A.U. after   11 cycles
 SCF Done:  E(RwB97XD) =  -1557.96057117     A.U. after   10 cycles
 SCF Done:  E(RwB97XD) =  -1557.96062826     A.U. after   10 cycles
 SCF Done:  E(RwB97XD) =  -1557.96064368     A.U. after    9 cycles
 SCF Done:  E(RwB97XD) =  -1557.96065158     A.U. after    9 cycles
 SCF Done:  E(RwB97XD) =  -1557.96065416     A.U. after    9 cycles
 SCF Done:  E(RwB97XD) =  -1557.96065494     A.U. after    7 cycles
 SCF Done:  E(RwB97XD) =  -1557.96065515     A.U. after    6 cycles
 SCF Done:  E(RwB97XD) =  -1557.96065534     A.U. after    6 cycles
 SCF Done:  E(RwB97XD) =  -1557.96065539     A.U. after    6 cycles
 SCF Done:  E(RwB97XD) =  -1557.96065540     A.U. after    6 cycles
 SCF Done:  E(RwB97XD) =  -1557.96065541     A.U. after    6 cycles
 Optimization completed.
    -- Stationary point found.

                         Standard orientation:
 ---------------------------------------------------------------------
 Center     Atomic      Atomic             Coordinates (Angstroms)
 Number     Number       Type             X           Y           Z
 ---------------------------------------------------------------------
      1          6           0       11.988110    0.493006   -0.797996
      2          6           0      -11.988822   -0.030999    0.890704
      3          6           0       13.293180   -0.306895   -0.686416
      4          6           0      -12.846166    1.164747    1.325766
      5          6           0       13.052792   -1.795039   -0.512225
      6          6           0      -13.299742    2.016160    0.155136
      7          6           0       10.970226    0.030524    0.252467
      8          6           0      -10.921178    0.406319   -0.122283
      9          6           0       12.285279   -2.032004    0.776097
     10          6           0      -12.087929    2.573420   -0.572318
     11          6           0       11.125932   -1.089408    0.974037
     12          6           0      -10.984546    1.567485   -0.791897
     13          6           0       11.378125    0.320734   -2.197682
     14          6           0       12.337034    1.976070   -0.602604
     15          6           0      -12.880216   -1.116736    0.265988
     16          6           0      -11.322680   -0.607785    2.147313
     17          6           0        9.789728    0.902150    0.402438
     18          6           0       -9.838848   -0.574573   -0.318422
     19          6           0       10.202685   -1.525528    2.077485
     20          6           0       -9.983257    2.008697   -1.823190
     21          6           0        8.523032    0.491979    0.292242
     22          6           0       -8.529996   -0.317786   -0.243636
     23          6           0        7.334714    1.327920    0.422332
     24          6           0       -7.454633   -1.289711   -0.406206
     25          6           0        7.533114    2.788147    0.703084
     26          6           0       -7.833789   -2.714359   -0.684278
     27          6           0        6.127265    0.744986    0.283235
     28          6           0       -6.182257   -0.857938   -0.296864
     29          6           0        4.829339    1.369725    0.372264
     30          6           0       -4.971666   -1.633905   -0.418892
     31          6           0        3.681792    0.688709    0.215654
     32          6           0       -3.746828   -1.097741   -0.290575
     33          6           0        2.347991    1.258723    0.293722
     34          6           0       -2.483194   -1.807765   -0.398767
     35          6           0        2.230927    2.731214    0.572541
     36          6           0       -2.531967   -3.281277   -0.679691
     37          6           0        1.225918    0.523417    0.127198
     38          6           0       -1.340782   -1.104268   -0.240748
     39          6           0        1.140300   -0.891098   -0.145987
     40          6           0        0.008805   -1.607136   -0.307884
     41          1           0       13.858327    0.059507    0.176653
     42          1           0       13.904723   -0.109162   -1.570014
     43          1           0      -12.257619    1.787835    2.006492
     44          1           0      -13.702309    0.797377    1.897003
     45          1           0       13.998856   -2.338188   -0.495707
     46          1           0       12.482929   -2.184723   -1.358764
     47          1           0      -13.941133    2.829424    0.498243
     48          1           0      -13.898812    1.417207   -0.534352
     49          1           0       12.958841   -1.935798    1.636235
     50          1           0       11.908613   -3.058272    0.815787
     51          1           0      -11.671026    3.416762   -0.008085
     52          1           0      -12.384941    2.989093   -1.538461
     53          1           0       11.165976   -0.726161   -2.415747
     54          1           0       12.062689    0.698439   -2.960391
     55          1           0       10.439660    0.869945   -2.281511
     56          1           0       12.646467    2.176032    0.424887
     57          1           0       11.501032    2.632170   -0.844966
     58          1           0       13.163744    2.246291   -1.262395
     59          1           0      -13.403363   -0.747958   -0.615918
     60          1           0      -13.623668   -1.456742    0.990264
     61          1           0      -12.297163   -1.987243   -0.036821
     62          1           0      -10.617192    0.105552    2.576081
     63          1           0      -10.777203   -1.527533    1.935802
     64          1           0      -12.081560   -0.832604    2.899785
     65          1           0        9.983172    1.955574    0.571404
     66          1           0      -10.156040   -1.601070   -0.474556
     67          1           0        9.531617   -0.737738    2.408214
     68          1           0       10.791731   -1.865319    2.933365
     69          1           0        9.593488   -2.377345    1.762665
     70          1           0       -9.317440    1.210657   -2.138601
     71          1           0       -9.367648    2.827654   -1.439516
     72          1           0      -10.501725    2.396348   -2.703082
     73          1           0        8.339719   -0.557297    0.081862
     74          1           0       -8.215167    0.699245   -0.032311
     75          1           0        8.083739    2.927671    1.635638
     76          1           0        6.596779    3.332377    0.783502
     77          1           0        8.123232    3.252761   -0.089825
     78          1           0       -8.422632   -2.782742   -1.601343
     79          1           0       -8.452131   -3.110530    0.124258
     80          1           0       -6.971267   -3.365410   -0.792289
     81          1           0        6.114636   -0.322261    0.079764
     82          1           0       -6.035438    0.199087   -0.092359
     83          1           0        4.788229    2.432284    0.574223
     84          1           0       -5.062349   -2.693250   -0.622752
     85          1           0        3.759137   -0.373125    0.014688
     86          1           0       -3.673578   -0.033083   -0.086110
     87          1           0        2.694732    2.989080    1.527296
     88          1           0        1.188438    3.041350    0.608542
     89          1           0        2.733127    3.318892   -0.199211
     90          1           0       -3.048462   -3.473457   -1.622395
     91          1           0       -3.087081   -3.801105    0.103882
     92          1           0       -1.546147   -3.731439   -0.743042
     93          1           0        0.286105    1.056501    0.207970
     94          1           0       -1.456679   -0.045051   -0.041726
     95          1           0        2.069213   -1.439983   -0.231232
     96          1           0        0.134074   -2.663615   -0.507877
 ---------------------------------------------------------------------

 The electronic state is 1-A.
 Alpha  occ. eigenvalues --  -10.29940 -10.29935 -10.29817 -10.29591 -10.29478
 Alpha  occ. eigenvalues --  -10.29428 -10.28887 -10.28746 -10.28654 -10.28630
 Alpha  occ. eigenvalues --  -10.28597 -10.28510 -10.28449 -10.28439 -10.28417
 Alpha  occ. eigenvalues --  -10.28404 -10.28394 -10.28230 -10.28154 -10.28027
 Alpha  occ. eigenvalues --  -10.28010 -10.27963 -10.27934 -10.27932 -10.27857
 Alpha  occ. eigenvalues --  -10.27857 -10.27827 -10.27824 -10.27681 -10.27632
 Alpha  occ. eigenvalues --  -10.27258 -10.27249 -10.27088 -10.27067 -10.26819
 Alpha  occ. eigenvalues --  -10.26757 -10.26732 -10.26697 -10.26347 -10.26344
 Alpha  occ. eigenvalues --   -0.95716  -0.95647  -0.94458  -0.93939  -0.92929
 Alpha  occ. eigenvalues --   -0.92287  -0.89575  -0.88901  -0.88809  -0.88214
 Alpha  occ. eigenvalues --   -0.87470  -0.85836  -0.84853  -0.82530  -0.82326
 Alpha  occ. eigenvalues --   -0.80351  -0.79038  -0.79010  -0.78068  -0.78017
 Alpha  occ. eigenvalues --   -0.77968  -0.77653  -0.77070  -0.76993  -0.76805
 Alpha  occ. eigenvalues --   -0.72666  -0.71866  -0.69542  -0.68972  -0.66829
 Alpha  occ. eigenvalues --   -0.66327  -0.65479  -0.64879  -0.63666  -0.63002
 Alpha  occ. eigenvalues --   -0.62437  -0.61859  -0.60276  -0.59540  -0.58464
 Alpha  occ. eigenvalues --   -0.57789  -0.57053  -0.56692  -0.56124  -0.55683
 Alpha  occ. eigenvalues --   -0.54859  -0.54256  -0.54050  -0.53714  -0.53354
 Alpha  occ. eigenvalues --   -0.52701  -0.52123  -0.51477  -0.51143  -0.51099
 Alpha  occ. eigenvalues --   -0.51045  -0.51023  -0.50824  -0.50733  -0.50684
 Alpha  occ. eigenvalues --   -0.50373  -0.50181  -0.48777  -0.48647  -0.48365
 Alpha  occ. eigenvalues --   -0.48121  -0.48103  -0.47959  -0.47656  -0.47362
 Alpha  occ. eigenvalues --   -0.47134  -0.47076  -0.46366  -0.46018  -0.45820
 Alpha  occ. eigenvalues --   -0.45587  -0.45081  -0.45005  -0.44692  -0.44570
 Alpha  occ. eigenvalues --   -0.44176  -0.43499  -0.43218  -0.43127  -0.43016
 Alpha  occ. eigenvalues --   -0.42932  -0.42663  -0.42423  -0.42292  -0.42053
 Alpha  occ. eigenvalues --   -0.41915  -0.41677  -0.41178  -0.40095  -0.39814
 Alpha  occ. eigenvalues --   -0.39734  -0.39298  -0.39021  -0.38172  -0.37467
 Alpha  occ. eigenvalues --   -0.36991  -0.36621  -0.35011  -0.32404  -0.31002
 Alpha  occ. eigenvalues --   -0.29306  -0.26687  -0.23973
 Alpha virt. eigenvalues --   -0.02295   0.00807   0.04884   0.07627   0.09437
 Alpha virt. eigenvalues --    0.10119   0.10303   0.10915   0.11063   0.11316
 Alpha virt. eigenvalues --    0.11971   0.12158   0.12439   0.12545   0.12774

 Mulliken charges:
               1
     1  C    0.430732
     2  C    0.355053
     3  C   -0.202099
     4  C   -0.211940
     5  C   -0.154231
     6  C   -0.150711
     7  C   -0.159517
     8  C   -0.148924
     9  C   -0.087713
    10  C   -0.081509
    11  C   -0.021951
    12  C   -0.020047
    13  C   -0.335970
    14  C   -0.363450
    15  C   -0.319039
    16  C   -0.311028
    17  C   -0.155444
    18  C   -0.122919
    19  C   -0.281488
    20  C   -0.281890
    21  C   -0.146845
    22  C   -0.147805
    23  C    0.030183
    24  C    0.022999
    25  C   -0.272853
    26  C   -0.274340
    27  C   -0.034043
    28  C   -0.034826
    29  C   -0.081684
    30  C   -0.083903
    31  C   -0.095281
    32  C   -0.071592
    33  C   -0.010740
    34  C   -0.034300
    35  C   -0.261756
    36  C   -0.282098
    37  C   -0.026126
    38  C    0.014671
    39  C   -0.117482
    40  C   -0.139091
    41  H    0.074274
    42  H    0.069921
    43  H    0.074637
    44  H    0.068794
    45  H    0.071720
    46  H    0.065828
    47  H    0.071632
    48  H    0.065731
    49  H    0.072377
    50  H    0.072453
    51  H    0.075262
    52  H    0.065447
    53  H    0.089994
    54  H    0.084677
    55  H    0.095231
    56  H    0.099636
    57  H    0.083352
    58  H    0.091559
    59  H    0.093619
    60  H    0.085054
    61  H    0.082591
    62  H    0.091471
    63  H    0.085965
    64  H    0.088938
    65  H    0.096107
    66  H    0.088129
    67  H    0.101564
    68  H    0.088968
    69  H    0.087509
    70  H    0.104557
    71  H    0.088303
    72  H    0.082758
    73  H    0.087139
    74  H    0.090013
    75  H    0.094235
    76  H    0.084176
    77  H    0.091559
    78  H    0.094052
    79  H    0.090996
    80  H    0.084311
    81  H    0.066860
    82  H    0.066997
    83  H    0.077290
    84  H    0.073333
    85  H    0.074702
    86  H    0.066876
    87  H    0.092097
    88  H    0.077750
    89  H    0.092268
    90  H    0.093255
    91  H    0.093181
    92  H    0.086872
    93  H    0.077401
    94  H    0.070865
    95  H    0.094909
    96  H    0.091801
 Sum of Mulliken charges =  -0.00000

 Dipole moment (field-independent basis, Debye):
    X=              0.2163    Y=              0.1004    Z=              0.0833  Tot=              0.2526
 Quadrupole moment (field-independent basis, Debye-Ang):
   XX=           -220.6537   YY=           -233.3307   ZZ=           -257.3968
   XY=             -1.4798   XZ=              1.4153   YZ=              3.1470

 Normal termination of Gaussian 16 at Mon Jul 22 09:02:12 2019.
