 Gaussian 16, Revision A.03,
 Gaussian 16:  ES64L-G16RevA.03 25-Dec-2016

 ----------------
 #n wB97X/Gen Opt
 ----------------

 ----------------------
 b-caroten-s0-wb97-tzvp
 ----------------------
 Symbolic Z-matrix:
 Charge =  0 Multiplicity = 1

 SCF Done:  E(RwB97X) =  -1558.00072856     A.U. after   14 cycles
 SCF Done:  E(RwB97X) =  -1558.00742264     A.U. after   12 cycles
 SCF Done:  E(RwB97X) =  -1558.00797939     A.U. after   11 cycles
 SCF Done:  E(RwB97X) =  -1558.00810365     A.U. after   11 cycles
 SCF Done:  E(RwB97X) =  -1558.00819014     A.U. after   10 cycles
 SCF Done:  E(RwB97X) =  -1558.00820922     A.U. after   10 cycles
 SCF Done:  E(RwB97X) =  -1558.00821964     A.U. after   10 cycles
 SCF Done:  E(RwB97X) =  -1558.00822223     A.U. after    9 cycles
 SCF Done:  E(RwB97X) =  -1558.00822320     A.U. after    9 cycles
 SCF Done:  E(RwB97X) =  -1558.00822345     A.U. after    6 cycles
 SCF Done:  E(RwB97X) =  -1558.00822367     A.U. after    6 cycles
 SCF Done:  E(RwB97X) =  -1558.00822376     A.U. after    6 cycles
 SCF Done:  E(RwB97X) =  -1558.00822378     A.U. after    6 cycles
 SCF Done:  E(RwB97X) =  -1558.00822378     A.U. after    6 cycles
 SCF Done:  E(RwB97X) =  -1558.00822378     A.U. after    6 cycles
 Optimization completed.
    -- Stationary point found.

                         Standard orientation:
 ---------------------------------------------------------------------
 Center     Atomic      Atomic             Coordinates (Angstroms)
 Number     Number       Type             X           Y           Z
 ---------------------------------------------------------------------
      1          6           0       11.997035    0.481679   -0.799268
      2          6           0      -11.995935   -0.038052    0.908314
      3          6           0       13.308854   -0.303085   -0.669515
      4          6           0      -12.865607    1.149759    1.338366
      5          6           0       13.082690   -1.790446   -0.470036
      6          6           0      -13.326427    1.993382    0.164763
      7          6           0       10.981055    0.028879    0.258453
      8          6           0      -10.934177    0.404999   -0.109371
      9          6           0       12.314272   -2.013037    0.820306
     10          6           0      -12.119161    2.563001   -0.560307
     11          6           0       11.144916   -1.076527    0.999280
     12          6           0      -11.006579    1.564868   -0.779158
     13          6           0       11.396504    0.278768   -2.197288
     14          6           0       12.330082    1.970182   -0.630497
     15          6           0      -12.877325   -1.134960    0.292715
     16          6           0      -11.323945   -0.601498    2.166247
     17          6           0        9.792445    0.899369    0.398938
     18          6           0       -9.843665   -0.572957   -0.312562
     19          6           0       10.223490   -1.503858    2.109141
     20          6           0      -10.010958    2.015911   -1.813167
     21          6           0        8.528420    0.485962    0.289011
     22          6           0       -8.537150   -0.311674   -0.240640
     23          6           0        7.334412    1.324720    0.413573
     24          6           0       -7.455586   -1.283614   -0.413262
     25          6           0        7.533239    2.786361    0.689040
     26          6           0       -7.834378   -2.707114   -0.699934
     27          6           0        6.130083    0.742290    0.274462
     28          6           0       -6.186612   -0.851251   -0.304218
     29          6           0        4.826763    1.371002    0.359033
     30          6           0       -4.970219   -1.628640   -0.434119
     31          6           0        3.682695    0.690011    0.201399
     32          6           0       -3.749472   -1.090801   -0.304420
     33          6           0        2.343594    1.263693    0.275659
     34          6           0       -2.479525   -1.800509   -0.418615
     35          6           0        2.231036    2.736749    0.553449
     36          6           0       -2.529800   -3.272626   -0.707844
     37          6           0        1.224702    0.530662    0.106999
     38          6           0       -1.340797   -1.098193   -0.258397
     39          6           0        1.142433   -0.890223   -0.168279
     40          6           0        0.014194   -1.604921   -0.329691
     41          1           0       13.868511    0.084729    0.189916
     42          1           0       13.922293   -0.113718   -1.555750
     43          1           0      -12.283757    1.781737    2.019376
     44          1           0      -13.719429    0.774096    1.910910
     45          1           0       14.035085   -2.325058   -0.442530
     46          1           0       12.518041   -2.200661   -1.312439
     47          1           0      -13.979881    2.800509    0.504341
     48          1           0      -13.917040    1.384610   -0.526046
     49          1           0       12.984884   -1.895714    1.681596
     50          1           0       11.945618   -3.042871    0.876868
     51          1           0      -11.710502    3.411147    0.004954
     52          1           0      -12.417413    2.975571   -1.528944
     53          1           0       11.207683   -0.776293   -2.404576
     54          1           0       12.076858    0.661817   -2.963114
     55          1           0       10.446046    0.807819   -2.293279
     56          1           0       12.638834    2.192950    0.394118
     57          1           0       11.485707    2.613718   -0.883651
     58          1           0       13.154568    2.238247   -1.296188
     59          1           0      -13.420789   -0.771953   -0.581156
     60          1           0      -13.605788   -1.489898    1.027054
     61          1           0      -12.284469   -1.996266   -0.022112
     62          1           0      -10.623632    0.120832    2.592178
     63          1           0      -10.769988   -1.519062    1.959851
     64          1           0      -12.081087   -0.828996    2.921656
     65          1           0        9.981712    1.955819    0.567595
     66          1           0      -10.156670   -1.601224   -0.479595
     67          1           0        9.541463   -0.717232    2.423636
     68          1           0       10.815587   -1.819731    2.973418
     69          1           0        9.625909   -2.370390    1.809093
     70          1           0       -9.331295    1.226249   -2.123612
     71          1           0       -9.409983    2.849195   -1.434196
     72          1           0      -10.536776    2.389099   -2.696228
     73          1           0        8.343266   -0.566122    0.083782
     74          1           0       -8.221011    0.706129   -0.024710
     75          1           0        8.080952    2.929538    1.623889
     76          1           0        6.594512    3.329788    0.763523
     77          1           0        8.126674    3.247790   -0.104615
     78          1           0       -8.425442   -2.769994   -1.617125
     79          1           0       -8.451121   -3.109501    0.108114
     80          1           0       -6.968833   -3.355205   -0.813728
     81          1           0        6.115430   -0.327184    0.074496
     82          1           0       -6.038479    0.205802   -0.092592
     83          1           0        4.786040    2.435850    0.558513
     84          1           0       -5.060281   -2.688571   -0.644526
     85          1           0        3.758873   -0.374068    0.003101
     86          1           0       -3.676157   -0.025792   -0.093351
     87          1           0        2.694343    2.993556    1.509790
     88          1           0        1.187663    3.048142    0.586977
     89          1           0        2.736733    3.322549   -0.218773
     90          1           0       -3.049890   -3.458966   -1.650860
     91          1           0       -3.083174   -3.796958    0.075314
     92          1           0       -1.542313   -3.721172   -0.776731
     93          1           0        0.282030    1.062415    0.184895
     94          1           0       -1.454707   -0.038342   -0.053106
     95          1           0        2.075048   -1.435478   -0.254674
     96          1           0        0.135973   -2.662831   -0.532075
 ---------------------------------------------------------------------

 The electronic state is 1-A.
 Alpha  occ. eigenvalues --  -10.27161 -10.27149 -10.27037 -10.26809 -10.26671
 Alpha  occ. eigenvalues --  -10.26625 -10.26157 -10.25987 -10.25907 -10.25894
 Alpha  occ. eigenvalues --  -10.25861 -10.25778 -10.25687 -10.25682 -10.25647
 Alpha  occ. eigenvalues --  -10.25636 -10.25617 -10.25463 -10.25432 -10.25295
 Alpha  occ. eigenvalues --  -10.25276 -10.25214 -10.25208 -10.25185 -10.25106
 Alpha  occ. eigenvalues --  -10.25099 -10.25079 -10.25068 -10.24920 -10.24871
 Alpha  occ. eigenvalues --  -10.24500 -10.24492 -10.24334 -10.24312 -10.24061
 Alpha  occ. eigenvalues --  -10.23998 -10.23978 -10.23943 -10.23595 -10.23587
 Alpha  occ. eigenvalues --   -0.99013  -0.98952  -0.97704  -0.97174  -0.96149
 Alpha  occ. eigenvalues --   -0.95499  -0.92740  -0.92142  -0.92056  -0.91374
 Alpha  occ. eigenvalues --   -0.90623  -0.88955  -0.87957  -0.85617  -0.85416
 Alpha  occ. eigenvalues --   -0.83362  -0.82064  -0.82038  -0.81122  -0.81081
 Alpha  occ. eigenvalues --   -0.81005  -0.80654  -0.80091  -0.80015  -0.79819
 Alpha  occ. eigenvalues --   -0.75438  -0.74668  -0.72337  -0.71782  -0.69533
 Alpha  occ. eigenvalues --   -0.69042  -0.68208  -0.67614  -0.66371  -0.65694
 Alpha  occ. eigenvalues --   -0.65076  -0.64486  -0.62852  -0.62119  -0.61009
 Alpha  occ. eigenvalues --   -0.60332  -0.59567  -0.59216  -0.58581  -0.58140
 Alpha  occ. eigenvalues --   -0.57285  -0.56719  -0.56510  -0.56157  -0.55806
 Alpha  occ. eigenvalues --   -0.55069  -0.54525  -0.53866  -0.53598  -0.53507
 Alpha  occ. eigenvalues --   -0.53480  -0.53429  -0.53211  -0.53156  -0.53098
 Alpha  occ. eigenvalues --   -0.52711  -0.52456  -0.51065  -0.50901  -0.50662
 Alpha  occ. eigenvalues --   -0.50412  -0.50372  -0.50245  -0.49900  -0.49596
 Alpha  occ. eigenvalues --   -0.49353  -0.49313  -0.48572  -0.48196  -0.48007
 Alpha  occ. eigenvalues --   -0.47747  -0.47245  -0.47170  -0.46840  -0.46721
 Alpha  occ. eigenvalues --   -0.46287  -0.45601  -0.45356  -0.45345  -0.45250
 Alpha  occ. eigenvalues --   -0.45059  -0.44762  -0.44538  -0.44403  -0.44181
 Alpha  occ. eigenvalues --   -0.44083  -0.43658  -0.43394  -0.41984  -0.41850
 Alpha  occ. eigenvalues --   -0.41751  -0.41365  -0.41056  -0.40152  -0.39408
 Alpha  occ. eigenvalues --   -0.38870  -0.38520  -0.36824  -0.34139  -0.32735
 Alpha  occ. eigenvalues --   -0.30946  -0.28252  -0.25564
 Alpha virt. eigenvalues --   -0.01037   0.01940   0.06082   0.08831   0.10197
 Alpha virt. eigenvalues --    0.10449   0.11171   0.11531   0.11575   0.12066
 Alpha virt. eigenvalues --    0.12382   0.12632   0.12999   0.13133   0.13637

 Mulliken charges:
               1
     1  C    0.319058
     2  C    0.210178
     3  C   -0.235189
     4  C   -0.236506
     5  C   -0.213659
     6  C   -0.210459
     7  C   -0.033407
     8  C    0.005030
     9  C   -0.181200
    10  C   -0.167455
    11  C   -0.048335
    12  C   -0.055538
    13  C   -0.437262
    14  C   -0.449971
    15  C   -0.420719
    16  C   -0.371286
    17  C   -0.267593
    18  C   -0.220502
    19  C   -0.393635
    20  C   -0.392782
    21  C   -0.246541
    22  C   -0.266764
    23  C    0.177345
    24  C    0.179476
    25  C   -0.389570
    26  C   -0.390627
    27  C   -0.171883
    28  C   -0.180036
    29  C   -0.066344
    30  C   -0.053934
    31  C   -0.154178
    32  C   -0.209121
    33  C    0.089002
    34  C    0.098600
    35  C   -0.398115
    36  C   -0.393223
    37  C   -0.125632
    38  C   -0.054530
    39  C   -0.141687
    40  C   -0.174302
    41  H    0.102353
    42  H    0.113240
    43  H    0.101633
    44  H    0.112226
    45  H    0.113865
    46  H    0.099986
    47  H    0.113250
    48  H    0.101452
    49  H    0.112275
    50  H    0.114015
    51  H    0.108456
    52  H    0.107281
    53  H    0.115390
    54  H    0.118035
    55  H    0.134288
    56  H    0.132144
    57  H    0.123247
    58  H    0.126502
    59  H    0.120025
    60  H    0.120234
    61  H    0.113462
    62  H    0.124007
    63  H    0.119135
    64  H    0.121356
    65  H    0.142517
    66  H    0.124085
    67  H    0.143616
    68  H    0.120080
    69  H    0.129816
    70  H    0.150280
    71  H    0.126138
    72  H    0.116727
    73  H    0.125616
    74  H    0.133450
    75  H    0.136373
    76  H    0.120822
    77  H    0.132818
    78  H    0.136038
    79  H    0.132141
    80  H    0.120343
    81  H    0.106036
    82  H    0.104868
    83  H    0.103343
    84  H    0.101258
    85  H    0.100975
    86  H    0.104280
    87  H    0.132312
    88  H    0.120570
    89  H    0.132345
    90  H    0.135734
    91  H    0.135898
    92  H    0.119801
    93  H    0.098919
    94  H    0.108901
    95  H    0.114716
    96  H    0.094625
 Sum of Mulliken charges =  -0.00000

 Dipole moment (field-independent basis, Debye):
    X=              0.2102    Y=              0.0950    Z=              0.0871  Tot=              0.2466
 Quadrupole moment (field-independent basis, Debye-Ang):
   XX=           -222.7505   YY=           -235.1604   ZZ=           -259.2759
   XY=             -1.5884   XZ=              1.6960   YZ=              3.2011

 Normal termination of Gaussian 16 at Thu Jul 18 00:42:32 2019.
