 Gaussian 16, Revision A.03,
 Gaussian 16:  ES64L-G16RevA.03 25-Dec-2016

 ---------------------------
 #n wB97X/Gen Td(NStates=10)
 ---------------------------

 -----------------------
 b-caroten-td-wb97x-tzvp
 -----------------------
 Symbolic Z-matrix:
 Charge =  0 Multiplicity = 1

                         Standard orientation:
 ---------------------------------------------------------------------
 Center     Atomic      Atomic             Coordinates (Angstroms)
 Number     Number       Type             X           Y           Z
 ---------------------------------------------------------------------
      1          6           0       11.997041    0.481680   -0.799270
      2          6           0      -11.995929   -0.038051    0.908310
      3          6           0       13.308851   -0.303080   -0.669510
      4          6           0      -12.865609    1.149759    1.338370
      5          6           0       13.082691   -1.790450   -0.470040
      6          6           0      -13.326429    1.993379    0.164760
      7          6           0       10.981051    0.028880    0.258450
      8          6           0      -10.934179    0.404999   -0.109370
      9          6           0       12.314271   -2.013040    0.820310
     10          6           0      -12.119159    2.562999   -0.560310
     11          6           0       11.144921   -1.076530    0.999280
     12          6           0      -11.006579    1.564869   -0.779160
     13          6           0       11.396501    0.278770   -2.197290
     14          6           0       12.330081    1.970180   -0.630500
     15          6           0      -12.877329   -1.134961    0.292720
     16          6           0      -11.323949   -0.601501    2.166250
     17          6           0        9.792451    0.899370    0.398940
     18          6           0       -9.843659   -0.572960   -0.312560
     19          6           0       10.223491   -1.503860    2.109140
     20          6           0      -10.010959    2.015910   -1.813170
     21          6           0        8.528421    0.485960    0.289010
     22          6           0       -8.537149   -0.311670   -0.240640
     23          6           0        7.334411    1.324720    0.413570
     24          6           0       -7.455589   -1.283610   -0.413260
     25          6           0        7.533241    2.786360    0.689040
     26          6           0       -7.834379   -2.707110   -0.699930
     27          6           0        6.130081    0.742290    0.274460
     28          6           0       -6.186609   -0.851250   -0.304220
     29          6           0        4.826761    1.371000    0.359030
     30          6           0       -4.970219   -1.628640   -0.434120
     31          6           0        3.682691    0.690010    0.201400
     32          6           0       -3.749469   -1.090800   -0.304420
     33          6           0        2.343591    1.263690    0.275660
     34          6           0       -2.479529   -1.800510   -0.418620
     35          6           0        2.231041    2.736750    0.553450
     36          6           0       -2.529799   -3.272630   -0.707840
     37          6           0        1.224701    0.530660    0.107000
     38          6           0       -1.340799   -1.098190   -0.258400
     39          6           0        1.142431   -0.890220   -0.168280
     40          6           0        0.014191   -1.604920   -0.329690
     41          1           0       13.868511    0.084730    0.189920
     42          1           0       13.922291   -0.113720   -1.555750
     43          1           0      -12.283759    1.781739    2.019380
     44          1           0      -13.719429    0.774099    1.910910
     45          1           0       14.035091   -2.325060   -0.442530
     46          1           0       12.518041   -2.200660   -1.312440
     47          1           0      -13.979879    2.800509    0.504340
     48          1           0      -13.917039    1.384609   -0.526050
     49          1           0       12.984881   -1.895710    1.681600
     50          1           0       11.945621   -3.042870    0.876870
     51          1           0      -11.710499    3.411149    0.004950
     52          1           0      -12.417409    2.975569   -1.528940
     53          1           0       11.207681   -0.776290   -2.404580
     54          1           0       12.076861    0.661820   -2.963110
     55          1           0       10.446051    0.807820   -2.293280
     56          1           0       12.638831    2.192950    0.394120
     57          1           0       11.485711    2.613720   -0.883650
     58          1           0       13.154571    2.238250   -1.296190
     59          1           0      -13.420789   -0.771951   -0.581160
     60          1           0      -13.605789   -1.489901    1.027050
     61          1           0      -12.284469   -1.996271   -0.022110
     62          1           0      -10.623629    0.120830    2.592180
     63          1           0      -10.769989   -1.519060    1.959850
     64          1           0      -12.081089   -0.829001    2.921660
     65          1           0        9.981711    1.955820    0.567590
     66          1           0      -10.156669   -1.601220   -0.479590
     67          1           0        9.541461   -0.717230    2.423640
     68          1           0       10.815591   -1.819730    2.973420
     69          1           0        9.625911   -2.370390    1.809090
     70          1           0       -9.331299    1.226250   -2.123610
     71          1           0       -9.409979    2.849190   -1.434200
     72          1           0      -10.536779    2.389100   -2.696230
     73          1           0        8.343271   -0.566120    0.083780
     74          1           0       -8.221009    0.706130   -0.024710
     75          1           0        8.080951    2.929540    1.623890
     76          1           0        6.594511    3.329790    0.763520
     77          1           0        8.126671    3.247790   -0.104610
     78          1           0       -8.425439   -2.769990   -1.617120
     79          1           0       -8.451119   -3.109500    0.108110
     80          1           0       -6.968829   -3.355210   -0.813730
     81          1           0        6.115431   -0.327180    0.074500
     82          1           0       -6.038479    0.205800   -0.092590
     83          1           0        4.786041    2.435850    0.558510
     84          1           0       -5.060279   -2.688570   -0.644530
     85          1           0        3.758871   -0.374070    0.003100
     86          1           0       -3.676159   -0.025790   -0.093350
     87          1           0        2.694341    2.993560    1.509790
     88          1           0        1.187661    3.048140    0.586980
     89          1           0        2.736731    3.322550   -0.218770
     90          1           0       -3.049889   -3.458970   -1.650860
     91          1           0       -3.083169   -3.796960    0.075310
     92          1           0       -1.542309   -3.721170   -0.776730
     93          1           0        0.282031    1.062420    0.184900
     94          1           0       -1.454709   -0.038340   -0.053110
     95          1           0        2.075051   -1.435480   -0.254670
     96          1           0        0.135971   -2.662830   -0.532070
 ---------------------------------------------------------------------

 SCF Done:  E(RwB97X) =  -1558.00822378     A.U. after   14 cycles

 Excitation energies and oscillator strengths:

 Excited State   1:      Singlet-A      3.2617 eV  380.12 nm  f=3.7850  <S**2>=0.000
     146 -> 151        0.10923
     147 -> 150        0.23987
     148 -> 149        0.64051
 This state for optimization and/or second-order correction.
 Total Energy, E(TD-HF/TD-DFT) =  -1557.88835675
 Copying the excited state density for this state as the 1-particle RhoCI density.

 Excited State   2:      Singlet-A      4.1683 eV  297.45 nm  f=0.0201  <S**2>=0.000
     146 -> 150        0.12531
     147 -> 149        0.47126
     147 -> 151        0.13654
     148 -> 150        0.46100

 Excited State   3:      Singlet-A      4.8615 eV  255.03 nm  f=0.6102  <S**2>=0.000
     144 -> 149        0.12145
     146 -> 149        0.40774
     146 -> 151        0.11097
     147 -> 149        0.12098
     147 -> 150        0.38786
     148 -> 151        0.27604

 Excited State   4:      Singlet-A      4.8962 eV  253.22 nm  f=0.0490  <S**2>=0.000
     146 -> 149        0.14039
     146 -> 150       -0.23470
     147 -> 149       -0.37410
     147 -> 151        0.13299
     148 -> 150        0.43126
     148 -> 152       -0.10165

 Excited State   5:      Singlet-A      5.3985 eV  229.67 nm  f=0.0017  <S**2>=0.000
     143 -> 149       -0.11777
     144 -> 150       -0.14460
     145 -> 149        0.40322
     145 -> 151        0.15046
     146 -> 150        0.33445
     146 -> 152        0.12800
     147 -> 151        0.26053
     148 -> 152        0.15998

 Excited State   6:      Singlet-A      5.6272 eV  220.33 nm  f=0.1105  <S**2>=0.000
     144 -> 151        0.13159
     145 -> 150       -0.25212
     146 -> 149       -0.32915
     147 -> 150        0.12315
     147 -> 152        0.10870
     148 -> 151        0.45265

 Excited State   7:      Singlet-A      5.7018 eV  217.45 nm  f=0.0937  <S**2>=0.000
     144 -> 149        0.43611
     144 -> 151        0.10566
     145 -> 150       -0.31961
     146 -> 151       -0.19496
     147 -> 152       -0.19162
     148 -> 151       -0.14870

 Excited State   8:      Singlet-A      5.9964 eV  206.77 nm  f=0.0193  <S**2>=0.000
     143 -> 149       -0.12482
     144 -> 150        0.30648
     145 -> 149       -0.21053
     145 -> 151       -0.19171
     147 -> 151        0.26920
     148 -> 152        0.34667

 Excited State   9:      Singlet-A      6.2262 eV  199.13 nm  f=0.0027  <S**2>=0.000
     139 -> 149        0.12522
     143 -> 149        0.42445
     144 -> 150       -0.21024
     145 -> 149       -0.11220
     145 -> 151        0.11074
     146 -> 150       -0.12064
     146 -> 152        0.13629
     148 -> 152        0.26482

 Excited State  10:      Singlet-A      6.3660 eV  194.76 nm  f=0.1081  <S**2>=0.000
     143 -> 149       -0.14015
     143 -> 150        0.18179
     144 -> 149       -0.16840
     146 -> 149       -0.15623
     147 -> 150        0.38597
     147 -> 152       -0.24822
     148 -> 149       -0.21401
     148 -> 151       -0.21944

 The electronic state is 1-A.
 Alpha  occ. eigenvalues --  -10.27161 -10.27149 -10.27037 -10.26809 -10.26671
 Alpha  occ. eigenvalues --  -10.26626 -10.26157 -10.25987 -10.25907 -10.25894
 Alpha  occ. eigenvalues --  -10.25861 -10.25778 -10.25687 -10.25682 -10.25647
 Alpha  occ. eigenvalues --  -10.25636 -10.25617 -10.25463 -10.25432 -10.25295
 Alpha  occ. eigenvalues --  -10.25276 -10.25214 -10.25208 -10.25185 -10.25106
 Alpha  occ. eigenvalues --  -10.25099 -10.25079 -10.25068 -10.24920 -10.24871
 Alpha  occ. eigenvalues --  -10.24500 -10.24492 -10.24334 -10.24312 -10.24061
 Alpha  occ. eigenvalues --  -10.23998 -10.23978 -10.23943 -10.23595 -10.23587
 Alpha  occ. eigenvalues --   -0.99013  -0.98952  -0.97704  -0.97174  -0.96149
 Alpha  occ. eigenvalues --   -0.95499  -0.92740  -0.92142  -0.92056  -0.91374
 Alpha  occ. eigenvalues --   -0.90623  -0.88955  -0.87957  -0.85617  -0.85416
 Alpha  occ. eigenvalues --   -0.83362  -0.82064  -0.82038  -0.81122  -0.81081
 Alpha  occ. eigenvalues --   -0.81005  -0.80654  -0.80091  -0.80015  -0.79819
 Alpha  occ. eigenvalues --   -0.75438  -0.74668  -0.72337  -0.71783  -0.69533
 Alpha  occ. eigenvalues --   -0.69042  -0.68208  -0.67614  -0.66371  -0.65694
 Alpha  occ. eigenvalues --   -0.65076  -0.64486  -0.62852  -0.62119  -0.61009
 Alpha  occ. eigenvalues --   -0.60332  -0.59567  -0.59216  -0.58581  -0.58140
 Alpha  occ. eigenvalues --   -0.57285  -0.56719  -0.56510  -0.56157  -0.55806
 Alpha  occ. eigenvalues --   -0.55069  -0.54525  -0.53866  -0.53598  -0.53507
 Alpha  occ. eigenvalues --   -0.53480  -0.53429  -0.53211  -0.53156  -0.53098
 Alpha  occ. eigenvalues --   -0.52711  -0.52456  -0.51065  -0.50901  -0.50662
 Alpha  occ. eigenvalues --   -0.50412  -0.50372  -0.50245  -0.49900  -0.49596
 Alpha  occ. eigenvalues --   -0.49353  -0.49313  -0.48572  -0.48196  -0.48007
 Alpha  occ. eigenvalues --   -0.47747  -0.47245  -0.47170  -0.46840  -0.46721
 Alpha  occ. eigenvalues --   -0.46287  -0.45601  -0.45356  -0.45345  -0.45250
 Alpha  occ. eigenvalues --   -0.45059  -0.44762  -0.44538  -0.44404  -0.44181
 Alpha  occ. eigenvalues --   -0.44083  -0.43658  -0.43394  -0.41984  -0.41850
 Alpha  occ. eigenvalues --   -0.41751  -0.41365  -0.41056  -0.40152  -0.39408
 Alpha  occ. eigenvalues --   -0.38870  -0.38520  -0.36824  -0.34139  -0.32735
 Alpha  occ. eigenvalues --   -0.30946  -0.28252  -0.25564
 Alpha virt. eigenvalues --   -0.01038   0.01940   0.06082   0.08831   0.10197
 Alpha virt. eigenvalues --    0.10449   0.11171   0.11531   0.11575   0.12066
 Alpha virt. eigenvalues --    0.12382   0.12632   0.12999   0.13133   0.13637

 Mulliken charges:
               1
     1  C    0.319056
     2  C    0.210175
     3  C   -0.235188
     4  C   -0.236506
     5  C   -0.213660
     6  C   -0.210459
     7  C   -0.033401
     8  C    0.005026
     9  C   -0.181199
    10  C   -0.167456
    11  C   -0.048340
    12  C   -0.055536
    13  C   -0.437260
    14  C   -0.449973
    15  C   -0.420720
    16  C   -0.371285
    17  C   -0.267591
    18  C   -0.220499
    19  C   -0.393635
    20  C   -0.392781
    21  C   -0.246542
    22  C   -0.266765
    23  C    0.177343
    24  C    0.179475
    25  C   -0.389571
    26  C   -0.390629
    27  C   -0.171883
    28  C   -0.180036
    29  C   -0.066345
    30  C   -0.053935
    31  C   -0.154174
    32  C   -0.209119
    33  C    0.088998
    34  C    0.098601
    35  C   -0.398114
    36  C   -0.393222
    37  C   -0.125631
    38  C   -0.054531
    39  C   -0.141687
    40  C   -0.174302
    41  H    0.102354
    42  H    0.113238
    43  H    0.101633
    44  H    0.112227
    45  H    0.113865
    46  H    0.099987
    47  H    0.113250
    48  H    0.101453
    49  H    0.112276
    50  H    0.114016
    51  H    0.108456
    52  H    0.107281
    53  H    0.115389
    54  H    0.118034
    55  H    0.134289
    56  H    0.132143
    57  H    0.123248
    58  H    0.126502
    59  H    0.120024
    60  H    0.120236
    61  H    0.113461
    62  H    0.124006
    63  H    0.119135
    64  H    0.121357
    65  H    0.142517
    66  H    0.124087
    67  H    0.143616
    68  H    0.120079
    69  H    0.129816
    70  H    0.150281
    71  H    0.126138
    72  H    0.116727
    73  H    0.125617
    74  H    0.133450
    75  H    0.136373
    76  H    0.120822
    77  H    0.132818
    78  H    0.136038
    79  H    0.132142
    80  H    0.120343
    81  H    0.106036
    82  H    0.104867
    83  H    0.103342
    84  H    0.101258
    85  H    0.100974
    86  H    0.104280
    87  H    0.132313
    88  H    0.120569
    89  H    0.132345
    90  H    0.135734
    91  H    0.135899
    92  H    0.119801
    93  H    0.098918
    94  H    0.108901
    95  H    0.114716
    96  H    0.094625
 Sum of Mulliken charges =  -0.00000

 Dipole moment (field-independent basis, Debye):
    X=              0.2103    Y=              0.0950    Z=              0.0871  Tot=              0.2466
 Quadrupole moment (field-independent basis, Debye-Ang):
   XX=           -222.7500   YY=           -235.1603   ZZ=           -259.2760
   XY=             -1.5884   XZ=              1.6960   YZ=              3.2010

 Normal termination of Gaussian 16 at Fri Jul 19 20:40:38 2019.
