 Gaussian 16, Revision A.03,
 Gaussian 16:  ES64L-G16RevA.03 25-Dec-2016

 ----------------------------
 #n wB97XD/Gen Td(NStates=10)
 ----------------------------

 ------------------------
 b-caroten-td-wb97xd-tzvp
 ------------------------
 Symbolic Z-matrix:
 Charge =  0 Multiplicity = 1

                         Standard orientation:
 ---------------------------------------------------------------------
 Center     Atomic      Atomic             Coordinates (Angstroms)
 Number     Number       Type             X           Y           Z
 ---------------------------------------------------------------------
      1          6           0       11.997041    0.481680   -0.799270
      2          6           0      -11.995929   -0.038051    0.908310
      3          6           0       13.308851   -0.303080   -0.669510
      4          6           0      -12.865609    1.149759    1.338370
      5          6           0       13.082691   -1.790450   -0.470040
      6          6           0      -13.326429    1.993379    0.164760
      7          6           0       10.981051    0.028880    0.258450
      8          6           0      -10.934179    0.404999   -0.109370
      9          6           0       12.314271   -2.013040    0.820310
     10          6           0      -12.119159    2.562999   -0.560310
     11          6           0       11.144921   -1.076530    0.999280
     12          6           0      -11.006579    1.564869   -0.779160
     13          6           0       11.396501    0.278770   -2.197290
     14          6           0       12.330081    1.970180   -0.630500
     15          6           0      -12.877329   -1.134961    0.292720
     16          6           0      -11.323949   -0.601501    2.166250
     17          6           0        9.792451    0.899370    0.398940
     18          6           0       -9.843659   -0.572960   -0.312560
     19          6           0       10.223491   -1.503860    2.109140
     20          6           0      -10.010959    2.015910   -1.813170
     21          6           0        8.528421    0.485960    0.289010
     22          6           0       -8.537149   -0.311670   -0.240640
     23          6           0        7.334411    1.324720    0.413570
     24          6           0       -7.455589   -1.283610   -0.413260
     25          6           0        7.533241    2.786360    0.689040
     26          6           0       -7.834379   -2.707110   -0.699930
     27          6           0        6.130081    0.742290    0.274460
     28          6           0       -6.186609   -0.851250   -0.304220
     29          6           0        4.826761    1.371000    0.359030
     30          6           0       -4.970219   -1.628640   -0.434120
     31          6           0        3.682691    0.690010    0.201400
     32          6           0       -3.749469   -1.090800   -0.304420
     33          6           0        2.343591    1.263690    0.275660
     34          6           0       -2.479529   -1.800510   -0.418620
     35          6           0        2.231041    2.736750    0.553450
     36          6           0       -2.529799   -3.272630   -0.707840
     37          6           0        1.224701    0.530660    0.107000
     38          6           0       -1.340799   -1.098190   -0.258400
     39          6           0        1.142431   -0.890220   -0.168280
     40          6           0        0.014191   -1.604920   -0.329690
     41          1           0       13.868511    0.084730    0.189920
     42          1           0       13.922291   -0.113720   -1.555750
     43          1           0      -12.283759    1.781739    2.019380
     44          1           0      -13.719429    0.774099    1.910910
     45          1           0       14.035091   -2.325060   -0.442530
     46          1           0       12.518041   -2.200660   -1.312440
     47          1           0      -13.979879    2.800509    0.504340
     48          1           0      -13.917039    1.384609   -0.526050
     49          1           0       12.984881   -1.895710    1.681600
     50          1           0       11.945621   -3.042870    0.876870
     51          1           0      -11.710499    3.411149    0.004950
     52          1           0      -12.417409    2.975569   -1.528940
     53          1           0       11.207681   -0.776290   -2.404580
     54          1           0       12.076861    0.661820   -2.963110
     55          1           0       10.446051    0.807820   -2.293280
     56          1           0       12.638831    2.192950    0.394120
     57          1           0       11.485711    2.613720   -0.883650
     58          1           0       13.154571    2.238250   -1.296190
     59          1           0      -13.420789   -0.771951   -0.581160
     60          1           0      -13.605789   -1.489901    1.027050
     61          1           0      -12.284469   -1.996271   -0.022110
     62          1           0      -10.623629    0.120830    2.592180
     63          1           0      -10.769989   -1.519060    1.959850
     64          1           0      -12.081089   -0.829001    2.921660
     65          1           0        9.981711    1.955820    0.567590
     66          1           0      -10.156669   -1.601220   -0.479590
     67          1           0        9.541461   -0.717230    2.423640
     68          1           0       10.815591   -1.819730    2.973420
     69          1           0        9.625911   -2.370390    1.809090
     70          1           0       -9.331299    1.226250   -2.123610
     71          1           0       -9.409979    2.849190   -1.434200
     72          1           0      -10.536779    2.389100   -2.696230
     73          1           0        8.343271   -0.566120    0.083780
     74          1           0       -8.221009    0.706130   -0.024710
     75          1           0        8.080951    2.929540    1.623890
     76          1           0        6.594511    3.329790    0.763520
     77          1           0        8.126671    3.247790   -0.104610
     78          1           0       -8.425439   -2.769990   -1.617120
     79          1           0       -8.451119   -3.109500    0.108110
     80          1           0       -6.968829   -3.355210   -0.813730
     81          1           0        6.115431   -0.327180    0.074500
     82          1           0       -6.038479    0.205800   -0.092590
     83          1           0        4.786041    2.435850    0.558510
     84          1           0       -5.060279   -2.688570   -0.644530
     85          1           0        3.758871   -0.374070    0.003100
     86          1           0       -3.676159   -0.025790   -0.093350
     87          1           0        2.694341    2.993560    1.509790
     88          1           0        1.187661    3.048140    0.586980
     89          1           0        2.736731    3.322550   -0.218770
     90          1           0       -3.049889   -3.458970   -1.650860
     91          1           0       -3.083169   -3.796960    0.075310
     92          1           0       -1.542309   -3.721170   -0.776730
     93          1           0        0.282031    1.062420    0.184900
     94          1           0       -1.454709   -0.038340   -0.053110
     95          1           0        2.075051   -1.435480   -0.254670
     96          1           0        0.135971   -2.662830   -0.532070
 ---------------------------------------------------------------------

 SCF Done:  E(RwB97XD) =  -1557.93788365     A.U. after   14 cycles

 Excitation energies and oscillator strengths:

 Excited State   1:      Singlet-A      3.0811 eV  402.41 nm  f=3.6518  <S**2>=0.000
     147 -> 150        0.21895
     148 -> 149        0.65614
 This state for optimization and/or second-order correction.
 Total Energy, E(TD-HF/TD-DFT) =  -1557.82465641
 Copying the excited state density for this state as the 1-particle RhoCI density.

 Excited State   2:      Singlet-A      4.0006 eV  309.91 nm  f=0.0197  <S**2>=0.000
     146 -> 150        0.12857
     147 -> 149        0.49713
     147 -> 151        0.11892
     148 -> 150        0.45052

 Excited State   3:      Singlet-A      4.4470 eV  278.80 nm  f=0.0016  <S**2>=0.000
     146 -> 150       -0.20367
     147 -> 149       -0.39463
     147 -> 151        0.14867
     148 -> 150        0.47060

 Excited State   4:      Singlet-A      4.6531 eV  266.45 nm  f=0.5641  <S**2>=0.000
     144 -> 149       -0.10282
     145 -> 150        0.13226
     146 -> 149        0.47425
     146 -> 151        0.12150
     147 -> 150        0.39435
     148 -> 151        0.20736

 Excited State   5:      Singlet-A      5.1142 eV  242.43 nm  f=0.0001  <S**2>=0.000
     144 -> 150        0.17727
     145 -> 149        0.46129
     145 -> 151        0.16285
     146 -> 150        0.34885
     147 -> 151        0.19535

 Excited State   6:      Singlet-A      5.1848 eV  239.13 nm  f=0.1466  <S**2>=0.000
     144 -> 149        0.12986
     145 -> 150       -0.13253
     146 -> 149       -0.30774
     147 -> 150        0.17489
     147 -> 152        0.15164
     148 -> 151        0.50091

 Excited State   7:      Singlet-A      5.3813 eV  230.40 nm  f=0.1567  <S**2>=0.000
     144 -> 149        0.45766
     144 -> 151        0.13632
     145 -> 150        0.38321
     146 -> 151        0.15790
     147 -> 150       -0.15835
     147 -> 152        0.10458

 Excited State   8:      Singlet-A      5.6504 eV  219.42 nm  f=0.0278  <S**2>=0.000
     144 -> 149       -0.12020
     144 -> 150       -0.18418
     145 -> 149       -0.19067
     147 -> 150       -0.15239
     147 -> 151        0.31365
     148 -> 151        0.11140
     148 -> 152        0.41151

 Excited State   9:      Singlet-A      5.8173 eV  213.13 nm  f=0.0627  <S**2>=0.000
     143 -> 149        0.27724
     144 -> 149        0.14320
     144 -> 150        0.15068
     146 -> 149       -0.15251
     146 -> 151        0.12593
     147 -> 150        0.30130
     147 -> 152       -0.15583
     148 -> 149       -0.16036
     148 -> 151       -0.25231
     148 -> 152        0.21867

 Excited State  10:      Singlet-A      5.9042 eV  209.99 nm  f=0.0415  <S**2>=0.000
     143 -> 149        0.40449
     144 -> 150        0.29502
     145 -> 151        0.10645
     146 -> 149        0.11956
     146 -> 150       -0.14631
     147 -> 150       -0.24165
     148 -> 149        0.12317
     148 -> 151        0.17337

 The electronic state is 1-A.
 Alpha  occ. eigenvalues --  -10.29927 -10.29920 -10.29802 -10.29581 -10.29457
 Alpha  occ. eigenvalues --  -10.29411 -10.28909 -10.28767 -10.28674 -10.28658
 Alpha  occ. eigenvalues --  -10.28625 -10.28535 -10.28461 -10.28455 -10.28443
 Alpha  occ. eigenvalues --  -10.28430 -10.28418 -10.28259 -10.28196 -10.28067
 Alpha  occ. eigenvalues --  -10.28046 -10.27978 -10.27976 -10.27955 -10.27926
 Alpha  occ. eigenvalues --  -10.27919 -10.27848 -10.27845 -10.27700 -10.27652
 Alpha  occ. eigenvalues --  -10.27274 -10.27266 -10.27102 -10.27084 -10.26833
 Alpha  occ. eigenvalues --  -10.26756 -10.26754 -10.26704 -10.26352 -10.26348
 Alpha  occ. eigenvalues --   -0.95709  -0.95648  -0.94439  -0.93917  -0.92908
 Alpha  occ. eigenvalues --   -0.92270  -0.89555  -0.88921  -0.88836  -0.88196
 Alpha  occ. eigenvalues --   -0.87457  -0.85832  -0.84857  -0.82559  -0.82358
 Alpha  occ. eigenvalues --   -0.80319  -0.79036  -0.79007  -0.78067  -0.78010
 Alpha  occ. eigenvalues --   -0.77969  -0.77651  -0.77092  -0.76993  -0.76849
 Alpha  occ. eigenvalues --   -0.72560  -0.71801  -0.69519  -0.68965  -0.66812
 Alpha  occ. eigenvalues --   -0.66307  -0.65473  -0.64874  -0.63676  -0.62997
 Alpha  occ. eigenvalues --   -0.62420  -0.61849  -0.60246  -0.59515  -0.58457
 Alpha  occ. eigenvalues --   -0.57799  -0.57046  -0.56698  -0.56119  -0.55679
 Alpha  occ. eigenvalues --   -0.54867  -0.54258  -0.54063  -0.53724  -0.53364
 Alpha  occ. eigenvalues --   -0.52712  -0.52127  -0.51476  -0.51152  -0.51107
 Alpha  occ. eigenvalues --   -0.51063  -0.51033  -0.50831  -0.50746  -0.50695
 Alpha  occ. eigenvalues --   -0.50384  -0.50200  -0.48774  -0.48667  -0.48384
 Alpha  occ. eigenvalues --   -0.48133  -0.48114  -0.47983  -0.47665  -0.47383
 Alpha  occ. eigenvalues --   -0.47126  -0.47086  -0.46384  -0.46041  -0.45869
 Alpha  occ. eigenvalues --   -0.45597  -0.45078  -0.44995  -0.44747  -0.44662
 Alpha  occ. eigenvalues --   -0.44185  -0.43491  -0.43223  -0.43128  -0.43002
 Alpha  occ. eigenvalues --   -0.42941  -0.42673  -0.42452  -0.42317  -0.42028
 Alpha  occ. eigenvalues --   -0.41902  -0.41619  -0.41162  -0.40020  -0.39828
 Alpha  occ. eigenvalues --   -0.39744  -0.39327  -0.39057  -0.38181  -0.37464
 Alpha  occ. eigenvalues --   -0.36982  -0.36622  -0.35012  -0.32424  -0.31045
 Alpha  occ. eigenvalues --   -0.29389  -0.26821  -0.24199
 Alpha virt. eigenvalues --   -0.02085   0.00914   0.04932   0.07637   0.09377
 Alpha virt. eigenvalues --    0.10013   0.10212   0.10829   0.10906   0.11181
 Alpha virt. eigenvalues --    0.11799   0.12056   0.12341   0.12439   0.12651

 Mulliken charges:
               1
     1  C    0.232603
     2  C    0.126410
     3  C   -0.205526
     4  C   -0.203962
     5  C   -0.187874
     6  C   -0.185492
     7  C   -0.007291
     8  C    0.033803
     9  C   -0.172791
    10  C   -0.157104
    11  C   -0.040399
    12  C   -0.051712
    13  C   -0.413748
    14  C   -0.430130
    15  C   -0.398457
    16  C   -0.353264
    17  C   -0.281027
    18  C   -0.238412
    19  C   -0.390019
    20  C   -0.389501
    21  C   -0.230677
    22  C   -0.252790
    23  C    0.173202
    24  C    0.177307
    25  C   -0.386792
    26  C   -0.388921
    27  C   -0.171888
    28  C   -0.179683
    29  C   -0.066342
    30  C   -0.054020
    31  C   -0.166588
    32  C   -0.210984
    33  C    0.100445
    34  C    0.110829
    35  C   -0.392427
    36  C   -0.393008
    37  C   -0.128788
    38  C   -0.058767
    39  C   -0.138184
    40  C   -0.176874
    41  H    0.096014
    42  H    0.106170
    43  H    0.094897
    44  H    0.105284
    45  H    0.104293
    46  H    0.094486
    47  H    0.103909
    48  H    0.096259
    49  H    0.106076
    50  H    0.108942
    51  H    0.101457
    52  H    0.102399
    53  H    0.113736
    54  H    0.116046
    55  H    0.134588
    56  H    0.129100
    57  H    0.124238
    58  H    0.124472
    59  H    0.118857
    60  H    0.118132
    61  H    0.112039
    62  H    0.121481
    63  H    0.121361
    64  H    0.119334
    65  H    0.145386
    66  H    0.129936
    67  H    0.146206
    68  H    0.119629
    69  H    0.126209
    70  H    0.152692
    71  H    0.122810
    72  H    0.115445
    73  H    0.120732
    74  H    0.129594
    75  H    0.135356
    76  H    0.120295
    77  H    0.132964
    78  H    0.135060
    79  H    0.132406
    80  H    0.119722
    81  H    0.098602
    82  H    0.098081
    83  H    0.108016
    84  H    0.106442
    85  H    0.101589
    86  H    0.097369
    87  H    0.132192
    88  H    0.119599
    89  H    0.132225
    90  H    0.135274
    91  H    0.135400
    92  H    0.121286
    93  H    0.097628
    94  H    0.109800
    95  H    0.107931
    96  H    0.089392
 Sum of Mulliken charges =  -0.00000

 Dipole moment (field-independent basis, Debye):
    X=              0.2076    Y=              0.0966    Z=              0.0890  Tot=              0.2457
 Quadrupole moment (field-independent basis, Debye-Ang):
   XX=           -221.0400   YY=           -233.5747   ZZ=           -257.6545
   XY=             -1.5616   XZ=              1.5585   YZ=              3.2217

 Normal termination of Gaussian 16 at Fri Jul 19 17:05:53 2019.
