 Gaussian 16, Revision A.03,
 Gaussian 16:  ES64L-G16RevA.03 25-Dec-2016

 ----------------------
 #n wB97XD/Def2TZVP Opt
 ----------------------

 -----------
 Dh-Bilin-s0
 -----------
 Symbolic Z-matrix:
 Charge =  0 Multiplicity = 1

 SCF Done:  E(RwB97XD) =  -1949.66747400     A.U. after   17 cycles
 SCF Done:  E(RwB97XD) =  -1949.64482611     A.U. after   16 cycles
 SCF Done:  E(RwB97XD) =  -1949.67563571     A.U. after   14 cycles
 SCF Done:  E(RwB97XD) =  -1949.67714200     A.U. after   15 cycles
 SCF Done:  E(RwB97XD) =  -1949.67769677     A.U. after   16 cycles
 SCF Done:  E(RwB97XD) =  -1949.67783639     A.U. after   15 cycles
 SCF Done:  E(RwB97XD) =  -1949.67819434     A.U. after   14 cycles
 SCF Done:  E(RwB97XD) =  -1949.67863347     A.U. after   13 cycles
 SCF Done:  E(RwB97XD) =  -1949.67872076     A.U. after   13 cycles
 SCF Done:  E(RwB97XD) =  -1949.67885675     A.U. after   13 cycles
 SCF Done:  E(RwB97XD) =  -1949.67902024     A.U. after   11 cycles
 SCF Done:  E(RwB97XD) =  -1949.67902159     A.U. after   12 cycles
 SCF Done:  E(RwB97XD) =  -1949.67902576     A.U. after   11 cycles
 SCF Done:  E(RwB97XD) =  -1949.67902673     A.U. after    8 cycles
 SCF Done:  E(RwB97XD) =  -1949.67902704     A.U. after    9 cycles
 SCF Done:  E(RwB97XD) =  -1949.67902728     A.U. after    8 cycles
 SCF Done:  E(RwB97XD) =  -1949.67902732     A.U. after    8 cycles
 SCF Done:  E(RwB97XD) =  -1949.67902728     A.U. after    8 cycles
 SCF Done:  E(RwB97XD) =  -1949.67902725     A.U. after    6 cycles
 SCF Done:  E(RwB97XD) =  -1949.67902718     A.U. after    7 cycles
 Optimization completed.
    -- Stationary point found.

                         Standard orientation:
 ---------------------------------------------------------------------
 Center     Atomic      Atomic             Coordinates (Angstroms)
 Number     Number       Type             X           Y           Z
 ---------------------------------------------------------------------
      1          8           0        4.905808   -0.092551   -3.191525
      2          8           0       -2.546529   -2.817938    2.739125
      3          8           0       -3.285454   -0.764611    2.292183
      4          8           0       -4.007167    6.424468    0.999480
      5          8           0       -3.135559    6.589983   -1.048772
      6          8           0       -0.025613   -3.950523    0.449465
      7          7           0        2.015816    1.811914    0.496747
      8          7           0        4.123288   -0.034215   -1.025719
      9          7           0       -1.669125    0.345932   -0.541598
     10          7           0       -1.411859   -2.297576   -0.377400
     11          6           0        4.673464   -0.164253    0.299795
     12          6           0        4.242914    0.985414    1.229754
     13          6           0        2.763592    1.073002    1.367338
     14          6           0        1.900783    0.425150    2.218701
     15          6           0        0.577098    0.770603    1.827988
     16          6           0        0.678508    1.618375    0.739557
     17          6           0        6.157606   -0.175522    0.042105
     18          6           0       -0.677651    0.389510    2.549894
     19          6           0        6.397306   -0.072918   -1.272031
     20          6           0       -0.341102    2.305373   -0.026079
     21          6           0       -1.433498    1.709545   -0.534606
     22          6           0        5.089228   -0.067488   -1.996711
     23          6           0       -2.598912    2.320530   -1.171737
     24          6           0        2.270853   -0.478513    3.349665
     25          6           0        7.120755   -0.294215    1.169715
     26          6           0       -3.457855    1.332828   -1.506664
     27          6           0       -0.915095   -1.121358    2.630199
     28          6           0       -2.846670    0.063198   -1.120444
     29          6           0       -2.781447    3.794358   -1.311455
     30          6           0        7.644018   -0.037688   -2.023111
     31          6           0       -3.326749    4.414287   -0.026735
     32          6           0       -4.799014    1.428321   -2.145339
     33          6           0       -3.341838   -1.213898   -1.305242
     34          6           0       -2.366849   -1.501576    2.533707
     35          6           0       -2.622550   -2.345620   -0.901546
     36          6           0        8.815025    0.412522   -1.583786
     37          6           0       -3.464108    5.909900   -0.116058
     38          6           0       -3.137471   -3.753662   -1.002843
     39          6           0       -2.177890   -4.534591   -0.491667
     40          6           0       -1.055463   -3.607197   -0.077572
     41          6           0       -4.453022   -4.103187   -1.520033
     42          6           0       -2.109403   -5.997669   -0.271782
     43          6           0       -4.768749   -5.249950   -2.115015
     44          1           0        4.365579   -1.112654    0.757224
     45          1           0        4.643693    1.920327    0.828280
     46          1           0        4.696436    0.834652    2.211231
     47          1           0        2.389633    2.281031   -0.308868
     48          1           0        3.169794   -0.268148   -1.240845
     49          1           0       -0.646739    0.801305    3.563096
     50          1           0       -1.537112    0.851447    2.066326
     51          1           0       -0.223851    3.370483   -0.197269
     52          1           0        3.330672   -0.399795    3.595817
     53          1           0        1.705404   -0.232362    4.251681
     54          1           0        2.062510   -1.524314    3.111259
     55          1           0        6.698088   -0.888688    1.981955
     56          1           0        7.371356    0.688263    1.580645
     57          1           0        8.050202   -0.759576    0.840344
     58          1           0       -0.415361   -1.647198    1.813111
     59          1           0       -0.513264   -1.554631    3.547456
     60          1           0       -1.049942   -0.411469   -0.256301
     61          1           0       -3.458866    4.014804   -2.136523
     62          1           0       -1.833582    4.270889   -1.567110
     63          1           0        7.557905   -0.391073   -3.045921
     64          1           0       -2.677916    4.187238    0.823231
     65          1           0       -4.302558    3.994473    0.228151
     66          1           0       -5.057799    2.459454   -2.381062
     67          1           0       -5.570713    1.028399   -1.483532
     68          1           0       -4.832412    0.850564   -3.071686
     69          1           0       -4.309461   -1.325977   -1.769784
     70          1           0        8.941141    0.833904   -0.594402
     71          1           0        9.687997    0.398487   -2.223308
     72          1           0       -3.486521   -2.994417    2.612831
     73          1           0       -5.228594   -3.352227   -1.401424
     74          1           0       -1.690406   -6.503894   -1.146055
     75          1           0       -1.452585   -6.214479    0.570800
     76          1           0       -3.099955   -6.418968   -0.089476
     77          1           0       -4.058035    7.380336    0.876184
     78          1           0       -5.777604   -5.438873   -2.458266
     79          1           0       -4.032751   -6.021990   -2.299435
 ---------------------------------------------------------------------

 The electronic state is 1-A.
 Alpha  occ. eigenvalues --  -19.30967 -19.29057 -19.24982 -19.23101 -19.22084
 Alpha  occ. eigenvalues --  -19.20774 -14.48166 -14.47136 -14.45280 -14.39901
 Alpha  occ. eigenvalues --  -10.43059 -10.41109 -10.37953 -10.36922 -10.35512
 Alpha  occ. eigenvalues --  -10.34411 -10.34236 -10.34175 -10.31979 -10.31810
 Alpha  occ. eigenvalues --  -10.31785 -10.31694 -10.31522 -10.31412 -10.31385
 Alpha  occ. eigenvalues --  -10.30969 -10.30959 -10.30261 -10.30205 -10.29982
 Alpha  occ. eigenvalues --  -10.29871 -10.29868 -10.29747 -10.29419 -10.29086
 Alpha  occ. eigenvalues --  -10.28680 -10.28485 -10.28425 -10.28359 -10.28275
 Alpha  occ. eigenvalues --  -10.28259 -10.28064 -10.27988  -1.22886  -1.20962
 Alpha  occ. eigenvalues --   -1.13857  -1.13807  -1.13504  -1.11486  -1.10473
 Alpha  occ. eigenvalues --   -1.09424  -1.05290  -1.03903  -0.94746  -0.93205
 Alpha  occ. eigenvalues --   -0.93110  -0.92104  -0.91872  -0.90585  -0.89531
 Alpha  occ. eigenvalues --   -0.88003  -0.87415  -0.86658  -0.85735  -0.83627
 Alpha  occ. eigenvalues --   -0.82277  -0.81923  -0.80605  -0.79800  -0.79264
 Alpha  occ. eigenvalues --   -0.77697  -0.76383  -0.74099  -0.70884  -0.70813
 Alpha  occ. eigenvalues --   -0.70516  -0.69049  -0.68357  -0.67501  -0.66917
 Alpha  occ. eigenvalues --   -0.66185  -0.65444  -0.64876  -0.63558  -0.62760
 Alpha  occ. eigenvalues --   -0.61879  -0.61138  -0.60485  -0.60278  -0.59646
 Alpha  occ. eigenvalues --   -0.59058  -0.58728  -0.57831  -0.57317  -0.57032
 Alpha  occ. eigenvalues --   -0.56942  -0.56464  -0.56399  -0.55692  -0.54879
 Alpha  occ. eigenvalues --   -0.54449  -0.54061  -0.53564  -0.52802  -0.52657
 Alpha  occ. eigenvalues --   -0.52110  -0.51917  -0.51654  -0.51592  -0.51313
 Alpha  occ. eigenvalues --   -0.51235  -0.51158  -0.50944  -0.50444  -0.50143
 Alpha  occ. eigenvalues --   -0.49683  -0.49417  -0.49161  -0.48915  -0.48848
 Alpha  occ. eigenvalues --   -0.48613  -0.48363  -0.47882  -0.47819  -0.47354
 Alpha  occ. eigenvalues --   -0.47122  -0.46881  -0.46698  -0.46502  -0.46047
 Alpha  occ. eigenvalues --   -0.45515  -0.44690  -0.44430  -0.44168  -0.43652
 Alpha  occ. eigenvalues --   -0.42923  -0.42523  -0.42423  -0.41313  -0.40560
 Alpha  occ. eigenvalues --   -0.39712  -0.39550  -0.38054  -0.37053  -0.36491
 Alpha  occ. eigenvalues --   -0.36104  -0.34500  -0.34416  -0.33665  -0.32784
 Alpha  occ. eigenvalues --   -0.32023  -0.31770  -0.31223  -0.30126  -0.26162
 Alpha virt. eigenvalues --   -0.04721   0.00862   0.01979   0.06284   0.07017
 Alpha virt. eigenvalues --    0.08405   0.08545   0.08608   0.09098   0.09658
 Alpha virt. eigenvalues --    0.10527   0.10667   0.10906   0.11235   0.12096

 Mulliken charges:
               1
     1  O   -0.377084
     2  O   -0.398609
     3  O   -0.356809
     4  O   -0.397431
     5  O   -0.346065
     6  O   -0.347965
     7  N   -0.297806
     8  N   -0.329436
     9  N   -0.174356
    10  N   -0.433375
    11  C    0.128168
    12  C   -0.415077
    13  C    0.151473
    14  C   -0.029495
    15  C   -0.132354
    16  C    0.252372
    17  C    0.033493
    18  C   -0.192061
    19  C   -0.012302
    20  C   -0.379136
    21  C    0.165247
    22  C    0.227810
    23  C    0.116565
    24  C   -0.387879
    25  C   -0.438818
    26  C   -0.078150
    27  C   -0.286505
    28  C    0.267764
    29  C   -0.351801
    30  C   -0.166397
    31  C   -0.223886
    32  C   -0.382030
    33  C   -0.443932
    34  C    0.325908
    35  C    0.441660
    36  C   -0.288830
    37  C    0.322284
    38  C   -0.094165
    39  C    0.040487
    40  C    0.240449
    41  C   -0.175023
    42  C   -0.413226
    43  C   -0.276448
    44  H    0.133606
    45  H    0.144146
    46  H    0.137831
    47  H    0.244149
    48  H    0.251149
    49  H    0.121806
    50  H    0.159959
    51  H    0.148721
    52  H    0.112185
    53  H    0.135321
    54  H    0.160268
    55  H    0.139364
    56  H    0.152581
    57  H    0.165277
    58  H    0.206068
    59  H    0.132652
    60  H    0.259103
    61  H    0.142652
    62  H    0.147041
    63  H    0.151231
    64  H    0.160549
    65  H    0.150566
    66  H    0.123873
    67  H    0.152547
    68  H    0.147083
    69  H    0.135006
    70  H    0.139489
    71  H    0.134277
    72  H    0.334640
    73  H    0.124512
    74  H    0.142932
    75  H    0.157179
    76  H    0.143805
    77  H    0.339858
    78  H    0.132364
    79  H    0.148983
 Sum of Mulliken charges =  -0.00000

 Dipole moment (field-independent basis, Debye):
    X=             -2.0996    Y=              2.2560    Z=              3.4800  Tot=              4.6484
 Quadrupole moment (field-independent basis, Debye-Ang):
   XX=           -215.8383   YY=           -243.2435   ZZ=           -263.7624
   XY=              8.4404   XZ=             29.6075   YZ=              9.4920

 Normal termination of Gaussian 16 at Thu Nov 21 03:36:16 2019.
