 Gaussian 16, Revision A.03,
 Gaussian 16:  ES64L-G16RevA.03 25-Dec-2016

 ----------------------------------
 #n wB97XD/Def2TZVP Geom=Checkpoint
 ----------------------------------

 ------------
 pheo-a-s0-sp
 ------------
 Structure from the checkpoint file:  "pheo-a-s0-sp.chk"
 Charge =  1 Multiplicity = 2

                         Standard orientation:
 ---------------------------------------------------------------------
 Center     Atomic      Atomic             Coordinates (Angstroms)
 Number     Number       Type             X           Y           Z
 ---------------------------------------------------------------------
      1          6           0       -5.140457   -1.928461   -0.261709
      2          6           0       -3.548272    1.584282    2.527075
      3          6           0       -6.834760    4.526935    0.528386
      4          6           0       -8.694557    0.929350   -2.072345
      5          7           0       -4.517152   -0.000252    0.989230
      6          6           0       -4.344898   -1.315976    0.649227
      7          6           0       -3.213267   -1.961335    1.420041
      8          6           0       -2.855935   -0.868131    2.443060
      9          6           0       -3.682809    0.307536    1.956749
     10          6           0       -3.193363   -1.249116    3.883124
     11          6           0       -2.039453   -2.374341    0.530085
     12          6           0       -1.010192   -3.185814    1.298358
     13          6           0        0.188155   -3.567856    0.466633
     14          8           0        0.424773   -3.148049   -0.634183
     15          8           0        0.961097   -4.441409    1.120697
     16          7           0       -5.272442    2.816393    1.303409
     17          6           0       -4.261350    2.714047    2.204360
     18          6           0       -4.062904    4.035242    2.764085
     19          6           0       -4.949845    4.878353    2.171370
     20          6           0       -5.762655    4.097665    1.248624
     21          6           0       -3.017084    4.356469    3.774942
     22          6           0       -5.063462    6.316117    2.415024
     23          6           0       -5.253750    7.247556    1.487759
     24          7           0       -7.487332    2.492222   -0.647933
     25          6           0       -7.654127    3.776499   -0.354051
     26          6           0       -8.799402    4.348458   -1.048374
     27          6           0       -9.333288    3.340353   -1.781670
     28          6           0       -8.500796    2.175682   -1.525594
     29          6           0       -9.246092    5.768499   -0.944713
     30          6           0      -10.497745    3.387127   -2.717488
     31          6           0      -10.076728    3.621977   -4.169941
     32          7           0       -6.791543   -0.136275   -1.011033
     33          6           0       -7.901127   -0.200666   -1.836151
     34          6           0       -8.034875   -1.525974   -2.300608
     35          6           0       -6.974980   -2.227653   -1.721135
     36          6           0       -6.235997   -1.340324   -0.933304
     37          6           0       -9.104342   -2.064628   -3.185512
     38          6           0       -6.374834   -3.547999   -1.629601
     39          8           0       -6.707237   -4.592777   -2.125659
     40          6           0       -5.102358   -3.374202   -0.723280
     41          6           0       -5.123681   -4.383251    0.401148
     42          8           0       -5.874036   -4.353629    1.337084
     43          8           0       -4.189642   -5.324920    0.228263
     44          6           0       -4.159124   -6.351950    1.215155
     45          6           0        2.201526   -4.816866    0.486695
     46          6           0        3.291769   -3.856986    0.828487
     47          6           0        3.965744   -3.082188   -0.019806
     48          6           0        3.715115   -3.034660   -1.501122
     49          6           0        5.074596   -2.196321    0.480953
     50          6           0        6.447046   -2.561080   -0.089206
     51          6           0        7.555563   -1.673595    0.463646
     52          6           0        8.935998   -1.886584   -0.163782
     53          6           0        9.455187   -3.302325    0.075936
     54          6           0        9.910062   -0.825118    0.355336
     55          6           0       11.278181   -0.811359   -0.316998
     56          6           0       12.148753    0.346393    0.158175
     57          6           0       13.494017    0.491236   -0.558809
     58          6           0       14.393057   -0.722138   -0.333212
     59          6           0       14.175840    1.791971   -0.125797
     60          6           0       15.456079    2.139006   -0.877352
     61          6           0       15.984600    3.522824   -0.517092
     62          6           0       17.347535    3.874531   -1.117107
     63          6           0       17.325703    3.873467   -2.643450
     64          6           0       17.828740    5.223425   -0.590225
     65          1           0       -2.794080    1.699662    3.294331
     66          1           0       -7.103300    5.564938    0.666216
     67          1           0       -9.537749    0.797980   -2.738896
     68          1           0       -3.590148   -2.849333    1.937205
     69          1           0       -1.794107   -0.610794    2.385328
     70          1           0       -2.602729   -2.112148    4.196558
     71          1           0       -2.987878   -0.428819    4.572507
     72          1           0       -4.249835   -1.509978    3.971331
     73          1           0       -2.395572   -2.969694   -0.310617
     74          1           0       -1.573526   -1.485559    0.099090
     75          1           0       -0.632710   -2.636164    2.166325
     76          1           0       -1.455221   -4.101478    1.695896
     77          1           0       -2.018596    4.153943    3.380773
     78          1           0       -3.052561    5.405657    4.062861
     79          1           0       -3.142103    3.750977    4.675465
     80          1           0       -4.950016    6.629500    3.448456
     81          1           0       -5.330738    7.001950    0.435822
     82          1           0       -5.314319    8.293896    1.757509
     83          1           0       -8.473030    6.455645   -1.298486
     84          1           0      -10.140333    5.946749   -1.541393
     85          1           0       -9.475538    6.041922    0.088098
     86          1           0      -11.066316    2.456175   -2.648641
     87          1           0      -11.183046    4.178555   -2.406780
     88          1           0       -9.547943    4.571590   -4.267540
     89          1           0       -9.404302    2.833695   -4.512842
     90          1           0      -10.944733    3.643438   -4.831186
     91          1           0       -9.557189   -1.283800   -3.796552
     92          1           0       -8.701985   -2.834088   -3.843669
     93          1           0       -9.895016   -2.529366   -2.591644
     94          1           0       -4.241767   -3.580551   -1.361834
     95          1           0       -3.350568   -7.017328    0.924907
     96          1           0       -3.971077   -5.929241    2.202743
     97          1           0       -5.106789   -6.889195    1.235387
     98          1           0        2.416148   -5.803471    0.897349
     99          1           0        2.042745   -4.908415   -0.585279
    100          1           0        3.544939   -3.813235    1.884224
    101          1           0        2.696863   -3.320181   -1.756495
    102          1           0        3.882591   -2.022738   -1.876167
    103          1           0        4.408737   -3.690178   -2.034449
    104          1           0        4.846387   -1.158597    0.210636
    105          1           0        5.117234   -2.237923    1.572340
    106          1           0        6.648175   -3.611195    0.138343
    107          1           0        6.429249   -2.475935   -1.180337
    108          1           0        7.266852   -0.626687    0.320117
    109          1           0        7.631603   -1.821506    1.547858
    110          1           0        8.833786   -1.741357   -1.247028
    111          1           0        8.773513   -4.054358   -0.322590
    112          1           0       10.423379   -3.461740   -0.399401
    113          1           0        9.572372   -3.489419    1.147733
    114          1           0        9.448847    0.160148    0.227542
    115          1           0       10.039735   -0.960902    1.436165
    116          1           0       11.789660   -1.757163   -0.127563
    117          1           0       11.146524   -0.742286   -1.403242
    118          1           0       11.587520    1.278696    0.033070
    119          1           0       12.329902    0.244305    1.235318
    120          1           0       13.289871    0.566629   -1.634791
    121          1           0       13.917863   -1.644307   -0.669106
    122          1           0       15.335479   -0.630265   -0.873956
    123          1           0       14.625607   -0.832161    0.730459
    124          1           0       13.464392    2.615094   -0.253840
    125          1           0       14.388993    1.740774    0.949018
    126          1           0       16.232633    1.398603   -0.662672
    127          1           0       15.261838    2.079985   -1.952810
    128          1           0       15.255283    4.281826   -0.826241
    129          1           0       16.055108    3.597567    0.573667
    130          1           0       18.061480    3.109637   -0.788849
    131          1           0       16.583288    4.585495   -3.016409
    132          1           0       18.297641    4.164453   -3.047083
    133          1           0       17.080587    2.890862   -3.048512
    134          1           0       17.877827    5.229191    0.500704
    135          1           0       18.821338    5.467866   -0.973991
    136          1           0       17.147117    6.021746   -0.897832
    137          1           0       -5.666960    2.034297    0.806913
    138          1           0       -6.510218    0.731143   -0.574872
 ---------------------------------------------------------------------

 SCF Done:  E(UwB97XD) =  -2735.50620006     A.U. after   30 cycles

 Alpha virt. eigenvalues --    1.90578   1.90719   1.91422   1.91540   1.92240
 Alpha virt. eigenvalues --    1.92446   1.92525   1.92844   1.92942   1.93092
 Alpha virt. eigenvalues --    1.93753   1.94177   1.94507   1.94883   1.94892

  Beta  occ. eigenvalues --  -19.38579 -19.35662 -19.34195 -19.32474 -19.30146
  Beta  occ. eigenvalues --  -14.59718 -14.58726 -14.54294 -14.52834 -10.50637
  Beta  occ. eigenvalues --  -10.48673 -10.48154 -10.46714 -10.46385 -10.46275
  Beta  occ. eigenvalues --  -10.46270 -10.45670 -10.45607 -10.44507 -10.44384
  Beta  occ. eigenvalues --  -10.44125 -10.42507 -10.41797 -10.41789 -10.41661
  Beta  occ. eigenvalues --  -10.41525 -10.41156 -10.40862 -10.40593 -10.40432
  Beta  occ. eigenvalues --  -10.40356 -10.39985 -10.39875 -10.39800 -10.39686
  Beta  occ. eigenvalues --  -10.39545 -10.38906 -10.38619 -10.38441 -10.38365
  Beta  occ. eigenvalues --  -10.38156 -10.37968 -10.37911 -10.37633 -10.36219
  Beta  occ. eigenvalues --  -10.34774 -10.32810 -10.32646 -10.32165 -10.32090
  Beta  occ. eigenvalues --  -10.31907 -10.31418 -10.30876 -10.30649 -10.30504
  Beta  occ. eigenvalues --  -10.30397 -10.30194 -10.30131 -10.29788 -10.29694
  Beta  occ. eigenvalues --  -10.29548 -10.29263 -10.28856 -10.28819  -1.30413
  Beta  occ. eigenvalues --   -1.27590  -1.25027  -1.22810  -1.21360  -1.21251
  Beta  occ. eigenvalues --   -1.18765  -1.17802  -1.17281  -1.07641  -1.04166
  Beta  occ. eigenvalues --   -1.04027  -1.03056  -1.02488  -1.01890  -1.01352
  Beta  occ. eigenvalues --   -0.98794  -0.98223  -0.97472  -0.96774  -0.96148
  Beta  occ. eigenvalues --   -0.95856  -0.94989  -0.94726  -0.94576  -0.93403
  Beta  occ. eigenvalues --   -0.92463  -0.92024  -0.91199  -0.90452  -0.89979
  Beta  occ. eigenvalues --   -0.88970  -0.88692  -0.87662  -0.87506  -0.85666
  Beta  occ. eigenvalues --   -0.85588  -0.83882  -0.83703  -0.82814  -0.82149
  Beta  occ. eigenvalues --   -0.81964  -0.80751  -0.80197  -0.80175  -0.79708
  Beta  occ. eigenvalues --   -0.79344  -0.78955  -0.77805  -0.76736  -0.76445
  Beta  occ. eigenvalues --   -0.75402  -0.74777  -0.74338  -0.73446  -0.72759
  Beta  occ. eigenvalues --   -0.72507  -0.72358  -0.71360  -0.70470  -0.70335
  Beta  occ. eigenvalues --   -0.70009  -0.69838  -0.68981  -0.68533  -0.67897
  Beta  occ. eigenvalues --   -0.67747  -0.67368  -0.67057  -0.66934  -0.66750
  Beta  occ. eigenvalues --   -0.66415  -0.66004  -0.65693  -0.65439  -0.65163
  Beta  occ. eigenvalues --   -0.64945  -0.64647  -0.64211  -0.63643  -0.63353
  Beta  occ. eigenvalues --   -0.63019  -0.62895  -0.62713  -0.61995  -0.61733
  Beta  occ. eigenvalues --   -0.61333  -0.60880  -0.60801  -0.60645  -0.60542
  Beta  occ. eigenvalues --   -0.60189  -0.60086  -0.59819  -0.59475  -0.59336
  Beta  occ. eigenvalues --   -0.59135  -0.58776  -0.58640  -0.58468  -0.58380
  Beta  occ. eigenvalues --   -0.58189  -0.57711  -0.57541  -0.57467  -0.57331
  Beta  occ. eigenvalues --   -0.57270  -0.56859  -0.56645  -0.56255  -0.56190
  Beta  occ. eigenvalues --   -0.55788  -0.55689  -0.55491  -0.55404  -0.55293
  Beta  occ. eigenvalues --   -0.55187  -0.54864  -0.54624  -0.54254  -0.53875
  Beta  occ. eigenvalues --   -0.53741  -0.53309  -0.52899  -0.52756  -0.52579
  Beta  occ. eigenvalues --   -0.52219  -0.52161  -0.51992  -0.51515  -0.51368
  Beta  occ. eigenvalues --   -0.51059  -0.50783  -0.50409  -0.50078  -0.49545
  Beta  occ. eigenvalues --   -0.49343  -0.49269  -0.48944  -0.48830  -0.48096
  Beta  occ. eigenvalues --   -0.47897  -0.47760  -0.47245  -0.46938  -0.46820
  Beta  occ. eigenvalues --   -0.46799  -0.46631  -0.46042  -0.45994  -0.45977
  Beta  occ. eigenvalues --   -0.45487  -0.45422  -0.44915  -0.44510  -0.44305
  Beta  occ. eigenvalues --   -0.43928  -0.43846  -0.43430  -0.43166  -0.43037
  Beta  occ. eigenvalues --   -0.42770  -0.42588  -0.42536  -0.42119  -0.42034
  Beta  occ. eigenvalues --   -0.41863  -0.41670  -0.39590  -0.38020  -0.37690
  Beta virt. eigenvalues --   -0.21992  -0.14667  -0.11880  -0.07292  -0.04304
  Beta virt. eigenvalues --   -0.02399  -0.01662  -0.01069   0.00773   0.00967
  Beta virt. eigenvalues --    0.01319   0.02002   0.02437   0.02643   0.03067

 Mulliken charges and spin densities:
               1          2
     1  C   -0.242731   0.002771
     2  C   -0.522423   0.036273
     3  C   -0.469903  -0.124464
     4  C   -0.338525  -0.202722
     5  N   -0.408197  -0.021245
     6  C    0.376224   0.151917
     7  C   -0.002535  -0.003312
     8  C    0.057859  -0.002767
     9  C    0.287445   0.100261
    10  C   -0.399761   0.006910
    11  C   -0.309561   0.012196
    12  C   -0.241926   0.001208
    13  C    0.390277   0.000165
    14  O   -0.382612   0.000041
    15  O   -0.278948   0.000017
    16  N   -0.189627  -0.022066
    17  C    0.306809   0.048062
    18  C   -0.101442   0.064980
    19  C    0.081411  -0.037170
    20  C    0.263557   0.160573
    21  C   -0.346274  -0.003138
    22  C   -0.198160   0.007795
    23  C   -0.304504  -0.009442
    24  N   -0.491707  -0.122828
    25  C    0.349727   0.187158
    26  C    0.019963   0.075469
    27  C   -0.093812  -0.019495
    28  C    0.391729   0.263939
    29  C   -0.372325  -0.002680
    30  C   -0.263585   0.001968
    31  C   -0.336418   0.000586
    32  N   -0.167391  -0.063874
    33  C    0.337366   0.245445
    34  C   -0.134626   0.026563
    35  C    0.013539   0.069962
    36  C    0.084853   0.107282
    37  C   -0.354334   0.000141
    38  C    0.148988  -0.019388
    39  O   -0.274432   0.043443
    40  C    0.071208   0.001759
    41  C    0.262173   0.000344
    42  O   -0.329970   0.000633
    43  O   -0.255664  -0.000122
    44  C   -0.208625  -0.000041
    45  C   -0.034985   0.000033
    46  C   -0.266015  -0.000005
    47  C    0.123366   0.000009
    48  C   -0.407008   0.000000
    49  C   -0.202240  -0.000000
    50  C   -0.249916   0.000000
    51  C   -0.201016   0.000000
    52  C    0.051062  -0.000000
    53  C   -0.410759  -0.000000
    54  C   -0.201561   0.000000
    55  C   -0.229608   0.000000
    56  C   -0.203913  -0.000000
    57  C    0.056005   0.000000
    58  C   -0.410056  -0.000000
    59  C   -0.200244  -0.000000
    60  C   -0.232905   0.000000
    61  C   -0.204117  -0.000000
    62  C    0.012573   0.000000
    63  C   -0.378394  -0.000000
    64  C   -0.342321   0.000000
    65  H    0.169745  -0.001279
    66  H    0.205784   0.002170
    67  H    0.162499   0.004561
    68  H    0.147423   0.008669
    69  H    0.121246   0.005617
    70  H    0.147268   0.000694
    71  H    0.132787   0.000026
    72  H    0.147203  -0.000067
    73  H    0.138047  -0.000361
    74  H    0.144474  -0.000334
    75  H    0.136686   0.000003
    76  H    0.140353   0.000024
    77  H    0.161412   0.004024
    78  H    0.141448   0.000008
    79  H    0.153900   0.003331
    80  H    0.157579  -0.001120
    81  H    0.164595   0.000301
    82  H    0.159233   0.000530
    83  H    0.153149   0.004510
    84  H    0.139356  -0.000203
    85  H    0.154887   0.004094
    86  H    0.117734  -0.000477
    87  H    0.131159  -0.000348
    88  H    0.127033  -0.000031
    89  H    0.116356   0.000099
    90  H    0.142866   0.000299
    91  H    0.132990  -0.000071
    92  H    0.177166   0.001199
    93  H    0.175697   0.003916
    94  H    0.141910  -0.003455
    95  H    0.151859  -0.000007
    96  H    0.131299   0.000004
    97  H    0.157207  -0.000001
    98  H    0.123717   0.000007
    99  H    0.138369  -0.000003
   100  H    0.116749  -0.000000
   101  H    0.151174  -0.000000
   102  H    0.125020   0.000000
   103  H    0.147025   0.000001
   104  H    0.111750   0.000000
   105  H    0.102773   0.000000
   106  H    0.114827  -0.000000
   107  H    0.108487  -0.000000
   108  H    0.092748  -0.000000
   109  H    0.099036   0.000000
   110  H    0.063313   0.000000
   111  H    0.122284  -0.000000
   112  H    0.130151  -0.000000
   113  H    0.108965   0.000000
   114  H    0.091523   0.000000
   115  H    0.095921  -0.000000
   116  H    0.101114   0.000000
   117  H    0.093068  -0.000000
   118  H    0.091720  -0.000000
   119  H    0.095094  -0.000000
   120  H    0.061016  -0.000000
   121  H    0.121456  -0.000000
   122  H    0.128957   0.000000
   123  H    0.107951   0.000000
   124  H    0.092068   0.000000
   125  H    0.095996  -0.000000
   126  H    0.098885  -0.000000
   127  H    0.100152  -0.000000
   128  H    0.093024   0.000000
   129  H    0.093452   0.000000
   130  H    0.065177  -0.000000
   131  H    0.104613   0.000000
   132  H    0.118938   0.000000
   133  H    0.122321   0.000000
   134  H    0.112777  -0.000000
   135  H    0.118646   0.000000
   136  H    0.103888  -0.000000
   137  H    0.226566   0.000119
   138  H    0.235887   0.000409
 Sum of Mulliken charges =   1.00000   1.00000

 Dipole moment (field-independent basis, Debye):
    X=            -24.9797    Y=              8.1383    Z=              2.2813  Tot=             26.3708
 Quadrupole moment (field-independent basis, Debye-Ang):
   XX=           -151.7546   YY=           -295.3092   ZZ=           -348.2296
   XY=            -81.6309   XZ=             31.9203   YZ=              3.2639

 Normal termination of Gaussian 16 at Fri Nov 29 22:28:39 2019.
