 Gaussian 16, Revision A.03,

 -------------------------------------------------
 #n wB97XD/Def2TZVP Opt Geom=Checkpoint Guess=Read
 -------------------------------------------------

 --------------
 pheo-a-charged
 --------------
 Structure from the checkpoint file:  "pheo-a-charged.chk"
 Charge =  1 Multiplicity = 2

 SCF Done:  E(UwB97XD) =  -2735.50620006     A.U. after   24 cycles
 SCF Done:  E(UwB97XD) =  -2735.51078598     A.U. after   23 cycles
 SCF Done:  E(UwB97XD) =  -2735.51177399     A.U. after   21 cycles
 SCF Done:  E(UwB97XD) =  -2735.51153691     A.U. after   20 cycles
 SCF Done:  E(UwB97XD) =  -2735.51209019     A.U. after   21 cycles
 SCF Done:  E(UwB97XD) =  -2735.51233658     A.U. after   17 cycles
 SCF Done:  E(UwB97XD) =  -2735.51260547     A.U. after   21 cycles
 SCF Done:  E(UwB97XD) =  -2735.51264640     A.U. after   20 cycles
 SCF Done:  E(UwB97XD) =  -2735.51268960     A.U. after   15 cycles
 SCF Done:  E(UwB97XD) =  -2735.51280743     A.U. after   19 cycles
 SCF Done:  E(UwB97XD) =  -2735.51306557     A.U. after   13 cycles
 SCF Done:  E(UwB97XD) =  -2735.51306568     A.U. after   12 cycles
 SCF Done:  E(UwB97XD) =  -2735.51306576     A.U. after   11 cycles
 SCF Done:  E(UwB97XD) =  -2735.51306585     A.U. after   12 cycles
 SCF Done:  E(UwB97XD) =  -2735.51306590     A.U. after    7 cycles
 SCF Done:  E(UwB97XD) =  -2735.51306592     A.U. after    5 cycles
 SCF Done:  E(UwB97XD) =  -2735.51306593     A.U. after    5 cycles
 SCF Done:  E(UwB97XD) =  -2735.51306594     A.U. after    7 cycles
 SCF Done:  E(UwB97XD) =  -2735.51306596     A.U. after    6 cycles
 Optimization completed.
    -- Stationary point found.
 Normal termination of Gaussian 16 at Tue Dec  3 02:36:06 2019.
 Gaussian 16:  ES64L-G16RevA.03 25-Dec-2016

 ----------------------------------
 #n wB97XD/Def2TZVP Geom=Checkpoint
 ----------------------------------

 --------------
 pheo-a-charged
 --------------
 Structure from the checkpoint file:  "pheo-a-charged-SP.chk"
 Charge =  0 Multiplicity = 1

                         Standard orientation:
 ---------------------------------------------------------------------
 Center     Atomic      Atomic             Coordinates (Angstroms)
 Number     Number       Type             X           Y           Z
 ---------------------------------------------------------------------
      1          6           0       -4.977957   -1.885226   -0.464088
      2          6           0       -3.816268    1.360918    2.841078
      3          6           0       -6.877861    4.469493    0.734332
      4          6           0       -8.270307    1.120099   -2.429676
      5          7           0       -4.564392   -0.081503    1.044374
      6          6           0       -4.317270   -1.344757    0.627813
      7          6           0       -3.304071   -2.061821    1.478472
      8          6           0       -3.056684   -1.050390    2.606572
      9          6           0       -3.852403    0.144402    2.144313
     10          6           0       -3.490848   -1.546440    3.986367
     11          6           0       -2.040399   -2.457061    0.707451
     12          6           0       -1.096079   -3.292231    1.555574
     13          6           0        0.139642   -3.709360    0.789423
     14          8           0        0.355806   -3.408460   -0.354369
     15          8           0        0.934304   -4.455686    1.547739
     16          7           0       -5.397165    2.693902    1.532940
     17          6           0       -4.501996    2.511070    2.540253
     18          6           0       -4.391845    3.776989    3.248041
     19          6           0       -5.211471    4.667572    2.631436
     20          6           0       -5.888942    3.967859    1.546454
     21          6           0       -3.486946    4.001223    4.406844
     22          6           0       -5.391683    6.075369    2.987332
     23          6           0       -5.445175    7.081247    2.122864
     24          7           0       -7.305964    2.548558   -0.708742
     25          6           0       -7.544899    3.810855   -0.303766
     26          6           0       -8.614178    4.438499   -1.094971
     27          6           0       -9.011459    3.506052   -1.984183
     28          6           0       -8.174499    2.329060   -1.722664
     29          6           0       -9.104699    5.830633   -0.902884
     30          6           0      -10.039680    3.605273   -3.061801
     31          6           0       -9.425476    3.891779   -4.434640
     32          7           0       -6.508667   -0.010039   -1.218012
     33          6           0       -7.490816    0.017357   -2.185647
     34          6           0       -7.532661   -1.295595   -2.820949
     35          6           0       -6.576463   -2.026855   -2.187122
     36          6           0       -5.950896   -1.221286   -1.191005
     37          6           0       -8.456688   -1.695466   -3.910358
     38          6           0       -5.971190   -3.367894   -2.140087
     39          8           0       -6.236273   -4.336458   -2.787690
     40          6           0       -4.862035   -3.288662   -1.034071
     41          6           0       -5.083097   -4.395925   -0.019199
     42          8           0       -5.765741   -4.279215    0.962701
     43          8           0       -4.439850   -5.496477   -0.373284
     44          6           0       -4.656904   -6.649690    0.446949
     45          6           0        2.202877   -4.863713    0.975355
     46          6           0        3.250166   -3.828892    1.207270
     47          6           0        3.917783   -3.150668    0.274488
     48          6           0        3.699082   -3.307395   -1.203874
     49          6           0        4.994189   -2.177297    0.671901
     50          6           0        6.386489   -2.578316    0.178303
     51          6           0        7.462561   -1.601582    0.636917
     52          6           0        8.859212   -1.854503    0.062421
     53          6           0        9.403378   -3.219877    0.475819
     54          6           0        9.799621   -0.716674    0.470031
     55          6           0       11.178181   -0.746499   -0.179995
     56          6           0       12.014739    0.478129    0.172930
     57          6           0       13.368997    0.571528   -0.535670
     58          6           0       14.289083   -0.587891   -0.160962
     59          6           0       14.015572    1.928004   -0.241884
     60          6           0       15.302016    2.216860   -1.007321
     61          6           0       15.794643    3.644302   -0.798285
     62          6           0       17.159582    3.957070   -1.415031
     63          6           0       17.162725    3.783316   -2.931604
     64          6           0       17.603321    5.367351   -1.037235
     65          1           0       -3.164793    1.406977    3.702952
     66          1           0       -7.180562    5.485914    0.941984
     67          1           0       -9.012013    1.043230   -3.213036
     68          1           0       -3.773942   -2.966389    1.875496
     69          1           0       -2.001030   -0.766778    2.650262
     70          1           0       -2.907364   -2.424242    4.265526
     71          1           0       -3.340923   -0.785425    4.752482
     72          1           0       -4.545710   -1.825948    3.981419
     73          1           0       -2.299372   -3.027515   -0.183617
     74          1           0       -1.529595   -1.559217    0.351986
     75          1           0       -0.765639   -2.755841    2.448845
     76          1           0       -1.591531   -4.198037    1.915638
     77          1           0       -2.447096    3.816222    4.128946
     78          1           0       -3.555975    5.024659    4.768784
     79          1           0       -3.732561    3.329414    5.232052
     80          1           0       -5.448397    6.290797    4.049281
     81          1           0       -5.344697    6.928949    1.054914
     82          1           0       -5.561271    8.100801    2.465451
     83          1           0       -8.303773    6.555515   -1.066196
     84          1           0       -9.909434    6.065898   -1.596904
     85          1           0       -9.481564    5.981309    0.111138
     86          1           0      -10.620831    2.680287   -3.102817
     87          1           0      -10.751341    4.392663   -2.810114
     88          1           0       -8.887622    4.840600   -4.425340
     89          1           0       -8.717027    3.113324   -4.724182
     90          1           0      -10.200322    3.946099   -5.199374
     91          1           0       -8.325150   -1.052785   -4.783465
     92          1           0       -8.276181   -2.726615   -4.204785
     93          1           0       -9.495570   -1.601522   -3.586809
     94          1           0       -3.912740   -3.465213   -1.543020
     95          1           0       -4.064027   -7.441322   -0.000269
     96          1           0       -4.332025   -6.454846    1.468404
     97          1           0       -5.712850   -6.915367    0.448374
     98          1           0        2.439692   -5.783106    1.509553
     99          1           0        2.058091   -5.092430   -0.077586
    100          1           0        3.486511   -3.645864    2.251653
    101          1           0        2.701297   -3.669662   -1.441987
    102          1           0        3.836444   -2.347333   -1.705624
    103          1           0        4.432269   -3.995787   -1.631816
    104          1           0        4.747029   -1.191034    0.261813
    105          1           0        5.016001   -2.073212    1.759636
    106          1           0        6.605505   -3.586086    0.540379
    107          1           0        6.391522   -2.630983   -0.914908
    108          1           0        7.152532   -0.587488    0.361866
    109          1           0        7.521186   -1.615148    1.732069
    110          1           0        8.775295   -1.839366   -1.031958
    111          1           0        8.749266   -4.030676    0.153136
    112          1           0       10.385385   -3.408526    0.042024
    113          1           0        9.500740   -3.278884    1.564107
    114          1           0        9.318538    0.236030    0.223047
    115          1           0        9.914009   -0.724483    1.561006
    116          1           0       11.707639   -1.651786    0.123100
    117          1           0       11.063452   -0.804376   -1.268775
    118          1           0       11.435919    1.376881   -0.066273
    119          1           0       12.179313    0.503311    1.257206
    120          1           0       13.182172    0.520748   -1.616232
    121          1           0       13.840154   -1.553108   -0.397564
    122          1           0       15.238203   -0.535633   -0.694876
    123          1           0       14.506196   -0.571866    0.911440
    124          1           0       13.289791    2.715297   -0.473646
    125          1           0       14.209963    2.003113    0.835072
    126          1           0       16.089716    1.523712   -0.697107
    127          1           0       15.129449    2.031885   -2.072126
    128          1           0       15.054689    4.346618   -1.201902
    129          1           0       15.845342    3.843212    0.277896
    130          1           0       17.883930    3.250573   -0.992481
    131          1           0       16.412517    4.432556   -3.393154
    132          1           0       18.135022    4.047974   -3.351800
    133          1           0       16.944394    2.756112   -3.226432
    134          1           0       17.634848    5.497099    0.046599
    135          1           0       18.596527    5.589597   -1.432375
    136          1           0       16.910143    6.110190   -1.442531
    137          1           0       -5.718781    1.963250    0.920199
    138          1           0       -6.301727    0.804975   -0.657516
 ---------------------------------------------------------------------

 SCF Done:  E(RwB97XD) =  -2735.73316016     A.U. after   19 cycles

 The electronic state is 1-A.
 Alpha  occ. eigenvalues --  -19.30261 -19.29562 -19.23782 -19.23510 -19.23360
 Alpha  occ. eigenvalues --  -14.47257 -14.47242 -14.42703 -14.40462 -10.41602
 Alpha  occ. eigenvalues --  -10.41246 -10.38198 -10.34244 -10.33893 -10.33824
 Alpha  occ. eigenvalues --  -10.33240 -10.32947 -10.32888 -10.32731 -10.32578
 Alpha  occ. eigenvalues --  -10.31466 -10.31324 -10.30607 -10.30479 -10.30467
 Alpha  occ. eigenvalues --  -10.30345 -10.30192 -10.29919 -10.29864 -10.29840
 Alpha  occ. eigenvalues --  -10.29779 -10.29547 -10.29544 -10.29094 -10.29089
 Alpha  occ. eigenvalues --  -10.28996 -10.28888 -10.28517 -10.28454 -10.28437
 Alpha  occ. eigenvalues --  -10.28356 -10.28346 -10.28264 -10.28168 -10.28115
 Alpha  occ. eigenvalues --  -10.28092 -10.27936 -10.27842 -10.27801 -10.27726
 Alpha  occ. eigenvalues --  -10.27652 -10.27551 -10.27338 -10.27295 -10.27261
 Alpha  occ. eigenvalues --  -10.27161 -10.27157 -10.27136 -10.27108 -10.27094
 Alpha  occ. eigenvalues --  -10.26763 -10.26561 -10.26545 -10.26544  -1.22080
 Alpha  occ. eigenvalues --   -1.21332  -1.15300  -1.12606  -1.12263  -1.09850
 Alpha  occ. eigenvalues --   -1.09497  -1.06016  -1.04414  -0.95822  -0.93655
 Alpha  occ. eigenvalues --   -0.93273  -0.92853  -0.92422  -0.92100  -0.91830
 Alpha  occ. eigenvalues --   -0.91186  -0.90625  -0.90230  -0.89808  -0.88618
 Alpha  occ. eigenvalues --   -0.87759  -0.87024  -0.86628  -0.85764  -0.85210
 Alpha  occ. eigenvalues --   -0.84462  -0.83981  -0.83241  -0.82343  -0.81578
 Alpha  occ. eigenvalues --   -0.80958  -0.80018  -0.79264  -0.78407  -0.77965
 Alpha  occ. eigenvalues --   -0.77886  -0.77583  -0.76996  -0.76110  -0.75706
 Alpha  occ. eigenvalues --   -0.74441  -0.73202  -0.72494  -0.71871  -0.71749
 Alpha  occ. eigenvalues --   -0.71345  -0.69095  -0.68434  -0.67554  -0.67163
 Alpha  occ. eigenvalues --   -0.66876  -0.65872  -0.65630  -0.65375  -0.65168
 Alpha  occ. eigenvalues --   -0.64997  -0.64789  -0.64387  -0.63732  -0.62506
 Alpha  occ. eigenvalues --   -0.62025  -0.61584  -0.61007  -0.60679  -0.60051
 Alpha  occ. eigenvalues --   -0.58761  -0.58556  -0.58361  -0.58173  -0.57474
 Alpha  occ. eigenvalues --   -0.57344  -0.57130  -0.56775  -0.56654  -0.56221
 Alpha  occ. eigenvalues --   -0.56036  -0.55473  -0.55264  -0.54980  -0.54681
 Alpha  occ. eigenvalues --   -0.54537  -0.54180  -0.54086  -0.53679  -0.53588
 Alpha  occ. eigenvalues --   -0.53393  -0.53001  -0.52865  -0.52533  -0.52463
 Alpha  occ. eigenvalues --   -0.52283  -0.52115  -0.51904  -0.51683  -0.51338
 Alpha  occ. eigenvalues --   -0.51088  -0.50972  -0.50654  -0.50595  -0.50288
 Alpha  occ. eigenvalues --   -0.50115  -0.49849  -0.49654  -0.49575  -0.49166
 Alpha  occ. eigenvalues --   -0.48708  -0.48512  -0.48369  -0.48321  -0.48001
 Alpha  occ. eigenvalues --   -0.47826  -0.47750  -0.47685  -0.47595  -0.47135
 Alpha  occ. eigenvalues --   -0.46852  -0.46702  -0.46619  -0.46421  -0.46295
 Alpha  occ. eigenvalues --   -0.45937  -0.45859  -0.45614  -0.45513  -0.45385
 Alpha  occ. eigenvalues --   -0.45111  -0.45078  -0.44799  -0.44743  -0.44364
 Alpha  occ. eigenvalues --   -0.44188  -0.44110  -0.43821  -0.43764  -0.43681
 Alpha  occ. eigenvalues --   -0.43426  -0.42985  -0.42747  -0.42380  -0.42194
 Alpha  occ. eigenvalues --   -0.41969  -0.41904  -0.41535  -0.41412  -0.40965
 Alpha  occ. eigenvalues --   -0.40680  -0.40307  -0.40258  -0.39983  -0.39944
 Alpha  occ. eigenvalues --   -0.39695  -0.39592  -0.39521  -0.39420  -0.39044
 Alpha  occ. eigenvalues --   -0.38882  -0.38292  -0.36777  -0.36645  -0.36543
 Alpha  occ. eigenvalues --   -0.35778  -0.35527  -0.34895  -0.34277  -0.33991
 Alpha  occ. eigenvalues --   -0.33348  -0.32734  -0.32287  -0.30214  -0.25628
 Alpha  occ. eigenvalues --   -0.23305
 Alpha virt. eigenvalues --   -0.04515  -0.01933   0.03079   0.05392   0.07169
 Alpha virt. eigenvalues --    0.07611   0.08278   0.08368   0.09664   0.09796
 Alpha virt. eigenvalues --    0.10204   0.10270   0.10646   0.10805   0.11484

 Mulliken charges:
               1
     1  C   -0.202333
     2  C   -0.538823
     3  C   -0.444140
     4  C   -0.362163
     5  N   -0.400796
     6  C    0.287562
     7  C    0.022231
     8  C    0.084521
     9  C    0.249128
    10  C   -0.395173
    11  C   -0.312281
    12  C   -0.238325
    13  C    0.396403
    14  O   -0.386874
    15  O   -0.276242
    16  N   -0.182650
    17  C    0.282246
    18  C   -0.108743
    19  C    0.087421
    20  C    0.211311
    21  C   -0.361187
    22  C   -0.208988
    23  C   -0.309351
    24  N   -0.488690
    25  C    0.302072
    26  C   -0.009902
    27  C   -0.072157
    28  C    0.371589
    29  C   -0.384269
    30  C   -0.260911
    31  C   -0.333218
    32  N   -0.165127
    33  C    0.216178
    34  C   -0.088593
    35  C   -0.046647
    36  C    0.075910
    37  C   -0.413761
    38  C    0.127222
    39  O   -0.305404
    40  C    0.060387
    41  C    0.292337
    42  O   -0.352968
    43  O   -0.251429
    44  C   -0.200958
    45  C   -0.034728
    46  C   -0.257731
    47  C    0.128639
    48  C   -0.407481
    49  C   -0.209183
    50  C   -0.248801
    51  C   -0.200720
    52  C    0.052611
    53  C   -0.410198
    54  C   -0.203257
    55  C   -0.226988
    56  C   -0.204376
    57  C    0.057712
    58  C   -0.409812
    59  C   -0.201992
    60  C   -0.231201
    61  C   -0.203798
    62  C    0.014069
    63  C   -0.378365
    64  C   -0.341892
    65  H    0.139520
    66  H    0.187435
    67  H    0.152506
    68  H    0.127164
    69  H    0.086929
    70  H    0.122055
    71  H    0.117497
    72  H    0.143638
    73  H    0.129524
    74  H    0.136010
    75  H    0.131826
    76  H    0.129557
    77  H    0.142789
    78  H    0.123956
    79  H    0.139664
    80  H    0.135709
    81  H    0.160761
    82  H    0.132564
    83  H    0.134231
    84  H    0.116800
    85  H    0.137228
    86  H    0.109469
    87  H    0.107894
    88  H    0.116145
    89  H    0.119696
    90  H    0.113971
    91  H    0.138286
    92  H    0.164336
    93  H    0.141018
    94  H    0.126613
    95  H    0.137823
    96  H    0.127388
    97  H    0.142219
    98  H    0.114616
    99  H    0.134910
   100  H    0.113137
   101  H    0.158251
   102  H    0.124191
   103  H    0.137876
   104  H    0.116635
   105  H    0.102226
   106  H    0.111616
   107  H    0.106851
   108  H    0.095027
   109  H    0.097394
   110  H    0.062717
   111  H    0.124999
   112  H    0.124854
   113  H    0.107347
   114  H    0.093957
   115  H    0.094458
   116  H    0.098684
   117  H    0.092397
   118  H    0.093599
   119  H    0.093938
   120  H    0.060973
   121  H    0.122912
   122  H    0.125827
   123  H    0.106765
   124  H    0.094075
   125  H    0.095063
   126  H    0.096993
   127  H    0.099937
   128  H    0.094458
   129  H    0.093042
   130  H    0.063279
   131  H    0.105756
   132  H    0.116264
   133  H    0.122875
   134  H    0.112406
   135  H    0.116084
   136  H    0.104704
   137  H    0.225116
   138  H    0.224647
 Sum of Mulliken charges =  -0.00000

 Dipole moment (field-independent basis, Debye):
    X=              3.2550    Y=              2.1136    Z=              2.9133  Tot=              4.8528
 Quadrupole moment (field-independent basis, Debye-Ang):
   XX=           -386.9993   YY=           -364.6144   ZZ=           -375.9533
   XY=            -31.0827   XZ=              4.1077   YZ=             -5.1877

 Normal termination of Gaussian 16 at Tue Dec  3 05:29:27 2019.
