 Gaussian 16, Revision A.03,
 Gaussian 16:  ES64L-G16RevA.03 25-Dec-2016

 ----------------------
 #n wB97XD/Def2TZVP Opt
 ----------------------

 -----------
 Ph-Bilin-s0
 -----------
 Symbolic Z-matrix:
 Charge =  0 Multiplicity = 1

 SCF Done:  E(RwB97XD) =  -1950.92538798     A.U. after   17 cycles
 SCF Done:  E(RwB97XD) =  -1950.93239404     A.U. after   15 cycles
 SCF Done:  E(RwB97XD) =  -1950.92406903     A.U. after   16 cycles
 SCF Done:  E(RwB97XD) =  -1950.92630493     A.U. after   16 cycles
 SCF Done:  E(RwB97XD) =  -1950.93263449     A.U. after   11 cycles
 SCF Done:  E(RwB97XD) =  -1950.93371918     A.U. after   15 cycles
 SCF Done:  E(RwB97XD) =  -1950.93316773     A.U. after   14 cycles
 SCF Done:  E(RwB97XD) =  -1950.93389952     A.U. after   14 cycles
 SCF Done:  E(RwB97XD) =  -1950.93400683     A.U. after   15 cycles
 SCF Done:  E(RwB97XD) =  -1950.93413357     A.U. after   13 cycles
 SCF Done:  E(RwB97XD) =  -1950.93424098     A.U. after   10 cycles
 SCF Done:  E(RwB97XD) =  -1950.93424305     A.U. after    8 cycles
 SCF Done:  E(RwB97XD) =  -1950.93424366     A.U. after    8 cycles
 SCF Done:  E(RwB97XD) =  -1950.93424419     A.U. after    8 cycles
 SCF Done:  E(RwB97XD) =  -1950.93424452     A.U. after    8 cycles
 SCF Done:  E(RwB97XD) =  -1950.93424464     A.U. after    7 cycles
 SCF Done:  E(RwB97XD) =  -1950.93424471     A.U. after    7 cycles
 SCF Done:  E(RwB97XD) =  -1950.93424475     A.U. after    6 cycles
 SCF Done:  E(RwB97XD) =  -1950.93424477     A.U. after    7 cycles
 SCF Done:  E(RwB97XD) =  -1950.93424480     A.U. after    7 cycles
 Optimization completed.
    -- Stationary point found.

                         Standard orientation:
 ---------------------------------------------------------------------
 Center     Atomic      Atomic             Coordinates (Angstroms)
 Number     Number       Type             X           Y           Z
 ---------------------------------------------------------------------
      1          8           0       -4.012510   -4.767326    2.033812
      2          8           0        2.874618   -4.507936    1.280452
      3          8           0        6.736656   -1.450181    1.974891
      4          8           0        3.844293   -2.975525   -0.010922
      5          8           0        7.396103   -0.657593   -0.003915
      6          8           0       -3.105947    2.402557   -0.313025
      7          7           0       -0.252485   -0.551614   -0.680199
      8          7           0        1.479578    1.848868   -0.440017
      9          7           0       -3.140864   -3.175810    0.639682
     10          7           0       -0.856366    2.885649   -0.163275
     11          6           0        0.738989   -2.372921   -1.479074
     12          6           0        0.972644   -1.069991   -1.038209
     13          6           0       -0.643368   -2.625366   -1.375449
     14          6           0       -1.232495   -1.474122   -0.855490
     15          6           0        3.714050    1.556492   -0.349146
     16          6           0        2.455943    0.896205   -0.635275
     17          6           0        2.222913   -0.401945   -0.944376
     18          6           0        3.441997    2.841149    0.019680
     19          6           0        1.755918   -3.339796   -1.998974
     20          6           0       -5.275751   -2.744336    1.464263
     21          6           0       -3.471771   -1.938410    0.090186
     22          6           0        2.005255    3.011666   -0.044130
     23          6           0       -4.888623   -1.710746    0.424656
     24          6           0        5.034498    0.860104   -0.378508
     25          6           0       -2.609306   -1.132656   -0.551614
     26          6           0       -1.354596   -3.847786   -1.861151
     27          6           0       -4.108022   -3.720956    1.443057
     28          6           0        2.152991   -4.400859   -0.970244
     29          6           0        5.259692    0.027859    0.882476
     30          6           0        4.381186    3.916383    0.447551
     31          6           0        1.186036    4.110758    0.247482
     32          6           0       -6.616517   -3.437711    1.279835
     33          6           0       -5.732007   -0.841098   -0.129378
     34          6           0       -0.196963    4.000621    0.184350
     35          6           0       -1.143687    5.112405    0.504683
     36          6           0       -2.372012    4.618433    0.342600
     37          6           0        3.039037   -3.860883    0.121183
     38          6           0       -5.457293    0.137236   -1.223650
     39          6           0        6.571199   -0.706126    0.866301
     40          6           0       -3.712795    5.245529    0.488066
     41          6           0       -2.200285    3.178749   -0.085565
     42          6           0       -0.708884    6.476042    0.913308
     43          6           0       -4.342414    5.579557   -0.866778
     44          1           0       -0.439576    0.333230   -0.235134
     45          1           0        3.090097   -1.030576   -1.097888
     46          1           0        2.651813   -2.820176   -2.338263
     47          1           0        1.347072   -3.853462   -2.871878
     48          1           0       -5.244892   -2.290895    2.462372
     49          1           0        5.094907    0.205909   -1.249931
     50          1           0        5.842529    1.583338   -0.487617
     51          1           0       -2.917816   -0.119729   -0.774806
     52          1           0        0.464737    1.839228   -0.598398
     53          1           0       -1.268242   -4.695545   -1.173967
     54          1           0       -2.416554   -3.649114   -2.003849
     55          1           0       -0.947362   -4.177252   -2.819215
     56          1           0       -2.216730   -3.570135    0.594110
     57          1           0        1.277599   -4.870725   -0.522796
     58          1           0        2.727639   -5.196991   -1.454136
     59          1           0        4.471118   -0.717313    1.005593
     60          1           0        5.233085    0.655987    1.776640
     61          1           0        4.284604    4.798468   -0.189658
     62          1           0        5.417203    3.583364    0.403559
     63          1           0        4.173645    4.232455    1.472746
     64          1           0        1.641757    5.043472    0.544964
     65          1           0       -7.440926   -2.739014    1.423146
     66          1           0       -6.718500   -4.243824    2.006292
     67          1           0       -6.697249   -3.859995    0.277058
     68          1           0       -6.749600   -0.853207    0.250073
     69          1           0       -4.984312    1.046116   -0.842269
     70          1           0       -6.385732    0.423776   -1.717515
     71          1           0       -4.781340   -0.281774   -1.972008
     72          1           0       -3.641587    6.148485    1.098453
     73          1           0       -4.364547    4.546538    1.018120
     74          1           0       -0.094393    6.438120    1.816071
     75          1           0       -1.563883    7.121232    1.111449
     76          1           0       -0.106510    6.944098    0.130871
     77          1           0       -3.727444    6.296281   -1.414175
     78          1           0       -5.335752    6.011332   -0.735148
     79          1           0       -4.438475    4.678871   -1.473795
     80          1           0        3.503701   -4.133894    1.910632
     81          1           0        7.591808   -1.889182    1.890633
 ---------------------------------------------------------------------

 The electronic state is 1-A.
 Alpha  occ. eigenvalues --  -19.31522 -19.30293 -19.25534 -19.24236 -19.21929
 Alpha  occ. eigenvalues --  -19.21547 -14.48149 -14.47104 -14.46779 -14.39598
 Alpha  occ. eigenvalues --  -10.43625 -10.42301 -10.38770 -10.36584 -10.34924
 Alpha  occ. eigenvalues --  -10.34072 -10.33493 -10.33269 -10.32896 -10.32584
 Alpha  occ. eigenvalues --  -10.31625 -10.31452 -10.31400 -10.30588 -10.30571
 Alpha  occ. eigenvalues --  -10.30568 -10.30224 -10.30171 -10.29770 -10.29586
 Alpha  occ. eigenvalues --  -10.29581 -10.29479 -10.29103 -10.28875 -10.28838
 Alpha  occ. eigenvalues --  -10.28806 -10.28691 -10.28338 -10.28148 -10.28088
 Alpha  occ. eigenvalues --  -10.27657 -10.26818 -10.26706  -1.23495  -1.22148
 Alpha  occ. eigenvalues --   -1.15095  -1.13966  -1.13175  -1.12750  -1.10667
 Alpha  occ. eigenvalues --   -1.09509  -1.06384  -1.03208  -0.94233  -0.93613
 Alpha  occ. eigenvalues --   -0.92624  -0.92570  -0.91035  -0.90028  -0.89035
 Alpha  occ. eigenvalues --   -0.88704  -0.87563  -0.86256  -0.85231  -0.83439
 Alpha  occ. eigenvalues --   -0.82414  -0.80189  -0.80036  -0.79418  -0.78872
 Alpha  occ. eigenvalues --   -0.78422  -0.75918  -0.75019  -0.72598  -0.71795
 Alpha  occ. eigenvalues --   -0.71130  -0.69860  -0.68813  -0.67685  -0.67076
 Alpha  occ. eigenvalues --   -0.66095  -0.65679  -0.64722  -0.63329  -0.62775
 Alpha  occ. eigenvalues --   -0.62170  -0.61498  -0.60798  -0.60120  -0.59636
 Alpha  occ. eigenvalues --   -0.59060  -0.58660  -0.58398  -0.58194  -0.57296
 Alpha  occ. eigenvalues --   -0.56650  -0.55971  -0.55252  -0.55026  -0.54541
 Alpha  occ. eigenvalues --   -0.54011  -0.53519  -0.53215  -0.52985  -0.52827
 Alpha  occ. eigenvalues --   -0.52321  -0.52197  -0.51611  -0.51475  -0.51208
 Alpha  occ. eigenvalues --   -0.50822  -0.50532  -0.50509  -0.49999  -0.49724
 Alpha  occ. eigenvalues --   -0.49620  -0.49411  -0.49266  -0.48950  -0.48466
 Alpha  occ. eigenvalues --   -0.48418  -0.48107  -0.47970  -0.47917  -0.47675
 Alpha  occ. eigenvalues --   -0.47148  -0.46958  -0.46667  -0.46070  -0.45736
 Alpha  occ. eigenvalues --   -0.45055  -0.45024  -0.44912  -0.44245  -0.44048
 Alpha  occ. eigenvalues --   -0.43428  -0.42984  -0.42748  -0.42684  -0.42270
 Alpha  occ. eigenvalues --   -0.42006  -0.41715  -0.40943  -0.38573  -0.38339
 Alpha  occ. eigenvalues --   -0.37284  -0.36457  -0.34689  -0.34020  -0.33632
 Alpha  occ. eigenvalues --   -0.33068  -0.32754  -0.32340  -0.31427  -0.28976
 Alpha  occ. eigenvalues --   -0.24442
 Alpha virt. eigenvalues --   -0.04703   0.01223   0.03565   0.06080   0.07651
 Alpha virt. eigenvalues --    0.07805   0.08848   0.09520   0.09822   0.10277
 Alpha virt. eigenvalues --    0.11023   0.11764   0.12158   0.12291   0.12594

 Mulliken charges:
               1
     1  O   -0.362316
     2  O   -0.389516
     3  O   -0.408096
     4  O   -0.399429
     5  O   -0.349755
     6  O   -0.429903
     7  N   -0.261385
     8  N   -0.206322
     9  N   -0.235811
    10  N   -0.467288
    11  C   -0.090227
    12  C    0.275544
    13  C   -0.173746
    14  C    0.275568
    15  C    0.054248
    16  C    0.242273
    17  C   -0.375207
    18  C   -0.083398
    19  C   -0.194363
    20  C    0.082274
    21  C    0.184887
    22  C    0.257305
    23  C   -0.154542
    24  C   -0.344186
    25  C   -0.430064
    26  C   -0.374007
    27  C    0.186827
    28  C   -0.169002
    29  C   -0.212401
    30  C   -0.373094
    31  C   -0.454603
    32  C   -0.389966
    33  C   -0.089961
    34  C    0.414874
    35  C   -0.159249
    36  C    0.085945
    37  C    0.342737
    38  C   -0.384425
    39  C    0.328830
    40  C   -0.181079
    41  C    0.252007
    42  C   -0.385597
    43  C   -0.357849
    44  H    0.233287
    45  H    0.177832
    46  H    0.141894
    47  H    0.126182
    48  H    0.106937
    49  H    0.145560
    50  H    0.138475
    51  H    0.218828
    52  H    0.223624
    53  H    0.136215
    54  H    0.159321
    55  H    0.130203
    56  H    0.238990
    57  H    0.137917
    58  H    0.134673
    59  H    0.161527
    60  H    0.142906
    61  H    0.140365
    62  H    0.123760
    63  H    0.142723
    64  H    0.149098
    65  H    0.119292
    66  H    0.145980
    67  H    0.123690
    68  H    0.115278
    69  H    0.175709
    70  H    0.117861
    71  H    0.141403
    72  H    0.097500
    73  H    0.115353
    74  H    0.138108
    75  H    0.123834
    76  H    0.141046
    77  H    0.108050
    78  H    0.112883
    79  H    0.138920
    80  H    0.341280
    81  H    0.336962
 Sum of Mulliken charges =  -0.00000

 Dipole moment (field-independent basis, Debye):
    X=              2.8269    Y=              1.7931    Z=              0.5391  Tot=              3.3907
 Quadrupole moment (field-independent basis, Debye-Ang):
   XX=           -250.3278   YY=           -238.0564   ZZ=           -253.3502
   XY=            -13.8533   XZ=             15.9920   YZ=             16.7844

 Normal termination of Gaussian 16 at Tue Nov 19 03:52:13 2019.
