 Gaussian 16, Revision A.03,
 Gaussian 16:  ES64L-G16RevA.03 25-Dec-2016

 -------------------
 #n B3LYP/SVP Opt td
 -------------------

 -----------------------
 phycocyanobilin-s1-geom
 -----------------------
 Symbolic Z-matrix:
 Charge =  0 Multiplicity = 1

 SCF Done:  E(RB3LYP) =  -1949.41358085     A.U. after   16 cycles
 Total Energy, E(TD-HF/TD-DFT) =  -1949.33993838
 SCF Done:  E(RB3LYP) =  -1949.34003491     A.U. after   15 cycles
 Total Energy, E(TD-HF/TD-DFT) =  -1949.28271323
 SCF Done:  E(RB3LYP) =  -1949.40088939     A.U. after   15 cycles
 Total Energy, E(TD-HF/TD-DFT) =  -1949.33218554
 SCF Done:  E(RB3LYP) =  -1949.41219307     A.U. after   12 cycles
 Total Energy, E(TD-HF/TD-DFT) =  -1949.34129450
 SCF Done:  E(RB3LYP) =  -1949.41043943     A.U. after   13 cycles
 Total Energy, E(TD-HF/TD-DFT) =  -1949.34263954
 SCF Done:  E(RB3LYP) =  -1949.40821660     A.U. after   13 cycles
 Total Energy, E(TD-HF/TD-DFT) =  -1949.34229376
 SCF Done:  E(RB3LYP) =  -1949.40852245     A.U. after   13 cycles
 Total Energy, E(TD-HF/TD-DFT) =  -1949.34284549
 SCF Done:  E(RB3LYP) =  -1949.40915577     A.U. after   13 cycles
 Total Energy, E(TD-HF/TD-DFT) =  -1949.34307262
 SCF Done:  E(RB3LYP) =  -1949.40909158     A.U. after   12 cycles
 Total Energy, E(TD-HF/TD-DFT) =  -1949.34322987
 SCF Done:  E(RB3LYP) =  -1949.40891894     A.U. after   12 cycles
 Total Energy, E(TD-HF/TD-DFT) =  -1949.34326363
 SCF Done:  E(RB3LYP) =  -1949.40900352     A.U. after   11 cycles
 Total Energy, E(TD-HF/TD-DFT) =  -1949.34330100
 SCF Done:  E(RB3LYP) =  -1949.40906752     A.U. after   11 cycles
 Total Energy, E(TD-HF/TD-DFT) =  -1949.34331372
 SCF Done:  E(RB3LYP) =  -1949.40903956     A.U. after   10 cycles
 Total Energy, E(TD-HF/TD-DFT) =  -1949.34331819
 SCF Done:  E(RB3LYP) =  -1949.40901165     A.U. after   10 cycles
 Total Energy, E(TD-HF/TD-DFT) =  -1949.34332050
 SCF Done:  E(RB3LYP) =  -1949.40899372     A.U. after    8 cycles
 Total Energy, E(TD-HF/TD-DFT) =  -1949.34332161
 SCF Done:  E(RB3LYP) =  -1949.40897375     A.U. after    8 cycles
 Total Energy, E(TD-HF/TD-DFT) =  -1949.34332221
 SCF Done:  E(RB3LYP) =  -1949.40898650     A.U. after    7 cycles
 Total Energy, E(TD-HF/TD-DFT) =  -1949.34332251
 SCF Done:  E(RB3LYP) =  -1949.40898543     A.U. after    7 cycles
 Total Energy, E(TD-HF/TD-DFT) =  -1949.34332263
 SCF Done:  E(RB3LYP) =  -1949.40898069     A.U. after    7 cycles
 Total Energy, E(TD-HF/TD-DFT) =  -1949.34332270
 SCF Done:  E(RB3LYP) =  -1949.40898031     A.U. after    7 cycles

 Excitation energies and oscillator strengths:

 Excited State   1:      Singlet-A      1.7866 eV  693.95 nm  f=0.3290  <S**2>=0.000
     156 ->157        -0.70872
     156 <-157         0.11793
 This state for optimization and/or second-order correction.
 Total Energy, E(TD-HF/TD-DFT) =  -1949.34332277
 Copying the excited state density for this state as the 1-particle RhoCI density.

 Excited State   2:      Singlet-A      2.5743 eV  481.62 nm  f=0.0274  <S**2>=0.000
     154 ->157         0.15342
     155 ->157         0.59537
     156 ->158         0.33545

 Excited State   3:      Singlet-A      2.8084 eV  441.48 nm  f=0.0141  <S**2>=0.000
     153 ->157         0.65464
     153 ->158         0.15113
     154 ->157         0.17544

 Optimization completed.
    -- Stationary point found.

                         Standard orientation:
 ---------------------------------------------------------------------
 Center     Atomic      Atomic             Coordinates (Angstroms)
 Number     Number       Type             X           Y           Z
 ---------------------------------------------------------------------
      1          8           0       -4.254892   -4.886288    1.819716
      2          8           0        2.989713   -4.856932    1.078627
      3          8           0        6.956957   -1.557303    1.873205
      4          8           0        3.799425   -3.119750   -0.076606
      5          8           0        7.594634   -0.541049   -0.019673
      6          8           0       -3.034139    2.389492   -0.394386
      7          7           0       -0.260053   -0.498069   -0.589871
      8          7           0        1.545073    1.845675   -0.374224
      9          7           0       -3.280110   -3.138870    0.676814
     10          7           0       -0.795043    2.898506   -0.081542
     11          6           0        0.647357   -2.380416   -1.417049
     12          6           0        0.940977   -1.057683   -0.971511
     13          6           0       -0.738713   -2.596378   -1.259373
     14          6           0       -1.295780   -1.406886   -0.708700
     15          6           0        3.785392    1.518335   -0.277332
     16          6           0        2.498942    0.881745   -0.558150
     17          6           0        2.227498   -0.437421   -0.895254
     18          6           0        3.533599    2.831978    0.090097
     19          6           0        1.625949   -3.352987   -2.016544
     20          6           0       -5.490933   -2.803851    1.347357
     21          6           0       -3.581407   -1.860241    0.210682
     22          6           0        2.096879    3.030058    0.033766
     23          6           0       -4.993037   -1.620361    0.519561
     24          6           0        5.107381    0.810831   -0.340413
     25          6           0       -2.631843   -1.024446   -0.355262
     26          6           0       -1.493379   -3.792469   -1.766832
     27          6           0       -4.313316   -3.777682    1.338744
     28          6           0        2.068663   -4.489763   -1.077732
     29          6           0        5.371976   -0.118765    0.854528
     30          6           0        4.509387    3.891507    0.497997
     31          6           0        1.273216    4.124497    0.322794
     32          6           0       -6.793494   -3.472202    0.899379
     33          6           0       -5.794194   -0.592160    0.138331
     34          6           0       -0.140807    4.037502    0.241881
     35          6           0       -1.089014    5.154663    0.465345
     36          6           0       -2.335263    4.644986    0.240940
     37          6           0        3.034180   -4.053298    0.003108
     38          6           0       -5.462905    0.587114   -0.705352
     39          6           0        6.751210   -0.735304    0.821018
     40          6           0       -3.684571    5.289415    0.284893
     41          6           0       -2.144484    3.200390   -0.112302
     42          6           0       -0.684089    6.543300    0.849484
     43          6           0       -4.294374    5.520433   -1.109085
     44          1           0       -0.394151    0.401342   -0.132603
     45          1           0        3.076390   -1.098588   -1.059126
     46          1           0        2.521187   -2.824034   -2.374529
     47          1           0        1.169938   -3.818891   -2.906399
     48          1           0       -5.602727   -2.493753    2.404601
     49          1           0        5.174875    0.216186   -1.266527
     50          1           0        5.924326    1.544719   -0.404254
     51          1           0       -2.867823    0.042097   -0.446025
     52          1           0        0.517694    1.861561   -0.525544
     53          1           0       -1.472642   -4.654295   -1.074902
     54          1           0       -2.548890   -3.554136   -1.958669
     55          1           0       -1.058201   -4.149312   -2.714107
     56          1           0       -2.346137   -3.532693    0.653348
     57          1           0        1.211707   -4.993017   -0.606101
     58          1           0        2.598957   -5.268931   -1.656181
     59          1           0        4.647670   -0.948366    0.892639
     60          1           0        5.266546    0.419613    1.811969
     61          1           0        4.384744    4.805836   -0.106282
     62          1           0        5.549083    3.554668    0.382104
     63          1           0        4.369674    4.185279    1.552831
     64          1           0        1.732214    5.068226    0.619248
     65          1           0       -7.654317   -2.799165    1.027304
     66          1           0       -6.969361   -4.376179    1.501596
     67          1           0       -6.743030   -3.765839   -0.160884
     68          1           0       -6.824777   -0.640915    0.509989
     69          1           0       -4.900279    1.361791   -0.147387
     70          1           0       -6.376226    1.059250   -1.096840
     71          1           0       -4.806880    0.328378   -1.552352
     72          1           0       -3.630145    6.245949    0.831235
     73          1           0       -4.365618    4.636681    0.859737
     74          1           0       -0.108555    6.554346    1.791584
     75          1           0       -1.558897    7.195453    0.986483
     76          1           0       -0.041680    7.007143    0.080429
     77          1           0       -3.670930    6.203743   -1.707975
     78          1           0       -5.302928    5.958839   -1.031228
     79          1           0       -4.375231    4.568297   -1.654920
     80          1           0        3.665995   -4.537875    1.702176
     81          1           0        7.859754   -1.906110    1.776170
 ---------------------------------------------------------------------

 The electronic state is 1-A.
 Alpha  occ. eigenvalues --  -19.19823 -19.18227 -19.14376 -19.12617 -19.10883
 Alpha  occ. eigenvalues --  -19.10042 -14.37558 -14.36904 -14.35531 -14.28605
 Alpha  occ. eigenvalues --  -10.33570 -10.31858 -10.28865 -10.26123 -10.24410
 Alpha  occ. eigenvalues --  -10.23778 -10.23469 -10.23121 -10.23110 -10.22732
 Alpha  occ. eigenvalues --  -10.21927 -10.21294 -10.21051 -10.20563 -10.20416
 Alpha  occ. eigenvalues --  -10.20350 -10.20108 -10.20096 -10.19852 -10.19841
 Alpha  occ. eigenvalues --  -10.19821 -10.19730 -10.19670 -10.19650 -10.19508
 Alpha  occ. eigenvalues --  -10.19502 -10.18915 -10.18761 -10.18700 -10.18597
 Alpha  occ. eigenvalues --  -10.18530 -10.17553 -10.17054  -1.11573  -1.09865
 Alpha  occ. eigenvalues --   -1.03583  -1.02281  -1.00637  -1.00541  -0.98428
 Alpha  occ. eigenvalues --   -0.97484  -0.95319  -0.91471  -0.82474  -0.81971
 Alpha  occ. eigenvalues --   -0.81385  -0.81068  -0.79453  -0.78828  -0.77894
 Alpha  occ. eigenvalues --   -0.77302  -0.76325  -0.75148  -0.74138  -0.72364
 Alpha  occ. eigenvalues --   -0.71391  -0.69785  -0.69255  -0.68852  -0.67871
 Alpha  occ. eigenvalues --   -0.67795  -0.65508  -0.64459  -0.62402  -0.61665
 Alpha  occ. eigenvalues --   -0.61066  -0.59668  -0.58877  -0.58080  -0.57223
 Alpha  occ. eigenvalues --   -0.55976  -0.55530  -0.55032  -0.53663  -0.53169
 Alpha  occ. eigenvalues --   -0.52431  -0.51829  -0.51212  -0.50236  -0.49807
 Alpha  occ. eigenvalues --   -0.49436  -0.49172  -0.48784  -0.48053  -0.47862
 Alpha  occ. eigenvalues --   -0.47183  -0.46649  -0.45917  -0.45663  -0.44734
 Alpha  occ. eigenvalues --   -0.44542  -0.44299  -0.44094  -0.44014  -0.43596
 Alpha  occ. eigenvalues --   -0.43371  -0.43198  -0.42636  -0.42351  -0.42095
 Alpha  occ. eigenvalues --   -0.41968  -0.41526  -0.41374  -0.41265  -0.40952
 Alpha  occ. eigenvalues --   -0.40662  -0.40357  -0.40322  -0.39988  -0.39785
 Alpha  occ. eigenvalues --   -0.39599  -0.39482  -0.39249  -0.39040  -0.38710
 Alpha  occ. eigenvalues --   -0.38591  -0.38025  -0.37906  -0.37680  -0.37103
 Alpha  occ. eigenvalues --   -0.36752  -0.36683  -0.36348  -0.35814  -0.35438
 Alpha  occ. eigenvalues --   -0.34801  -0.34757  -0.34280  -0.34056  -0.33896
 Alpha  occ. eigenvalues --   -0.33348  -0.32930  -0.32546  -0.30013  -0.29776
 Alpha  occ. eigenvalues --   -0.28281  -0.27656  -0.26283  -0.26017  -0.25495
 Alpha  occ. eigenvalues --   -0.25292  -0.25015  -0.24182  -0.23257  -0.21519
 Alpha  occ. eigenvalues --   -0.17543
 Alpha virt. eigenvalues --   -0.10384  -0.05655  -0.03829  -0.01255   0.00560
 Alpha virt. eigenvalues --    0.00760   0.02696   0.03546   0.04311   0.04659
 Alpha virt. eigenvalues --    0.04953   0.05189   0.05763   0.06009   0.06787

 Mulliken charges:
               1
     1  O   -0.203071
     2  O   -0.167054
     3  O   -0.186319
     4  O   -0.224199
     5  O   -0.226024
     6  O   -0.229297
     7  N   -0.071041
     8  N   -0.084981
     9  N   -0.112755
    10  N   -0.308516
    11  C   -0.110499
    12  C    0.062117
    13  C   -0.173244
    14  C    0.067230
    15  C   -0.086132
    16  C    0.082743
    17  C   -0.054570
    18  C   -0.133316
    19  C    0.119150
    20  C   -0.060309
    21  C    0.098679
    22  C    0.087988
    23  C   -0.009861
    24  C    0.117773
    25  C   -0.116882
    26  C    0.089268
    27  C    0.111125
    28  C    0.025700
    29  C   -0.006948
    30  C    0.113816
    31  C   -0.124064
    32  C    0.055656
    33  C   -0.155729
    34  C    0.087977
    35  C   -0.110027
    36  C   -0.179617
    37  C    0.114490
    38  C    0.078593
    39  C    0.129034
    40  C    0.091917
    41  C    0.157618
    42  C    0.118732
    43  C   -0.002366
    44  H    0.131542
    45  H    0.001209
    46  H    0.010966
    47  H    0.002534
    48  H    0.041298
    49  H    0.017279
    50  H    0.005864
    51  H    0.014148
    52  H    0.138234
    53  H    0.022099
    54  H    0.028914
    55  H    0.011991
    56  H    0.127052
    57  H    0.028937
    58  H    0.045095
    59  H    0.047811
    60  H    0.030380
    61  H    0.023396
    62  H    0.007355
    63  H    0.023208
    64  H   -0.036170
    65  H    0.015333
    66  H    0.030562
    67  H    0.013679
    68  H   -0.013629
    69  H    0.070713
    70  H    0.000511
    71  H    0.028162
    72  H   -0.011965
    73  H    0.009674
    74  H    0.021835
    75  H    0.008125
    76  H    0.022998
    77  H    0.006765
    78  H    0.009499
    79  H    0.029342
    80  H    0.185529
    81  H    0.176941
 Sum of Mulliken charges =  -0.00000

 Dipole moment (field-independent basis, Debye):
    X=              2.5077    Y=              0.5256    Z=              0.8563  Tot=              2.7015
 Quadrupole moment (field-independent basis, Debye-Ang):
   XX=           -250.3091   YY=           -238.2803   ZZ=           -253.1884
   XY=            -16.8348   XZ=             14.0898   YZ=             14.4841

 Normal termination of Gaussian 16 at Fri Mar 29 22:50:05 2019.
