 Gaussian 16, Revision A.03,
 Gaussian 16:  ES64L-G16RevA.03 25-Dec-2016

 ---------------------------------------
 #n PBE1PBE/Gen Opt Freq=savenormalmodes
 ---------------------------------------

 ---------------------------
 b-caroten-s0-geom-freq-TZVP
 ---------------------------
 Symbolic Z-matrix:
 Charge =  0 Multiplicity = 1

 SCF Done:  E(RPBE1PBE) =  -1556.51325632     A.U. after   14 cycles
 SCF Done:  E(RPBE1PBE) =  -1556.51716426     A.U. after   11 cycles
 SCF Done:  E(RPBE1PBE) =  -1556.51728743     A.U. after   10 cycles
 SCF Done:  E(RPBE1PBE) =  -1556.51734654     A.U. after   10 cycles
 SCF Done:  E(RPBE1PBE) =  -1556.51735709     A.U. after    9 cycles
 SCF Done:  E(RPBE1PBE) =  -1556.51735846     A.U. after    7 cycles
 SCF Done:  E(RPBE1PBE) =  -1556.51735867     A.U. after    7 cycles
 SCF Done:  E(RPBE1PBE) =  -1556.51735877     A.U. after    6 cycles
 SCF Done:  E(RPBE1PBE) =  -1556.51735882     A.U. after    6 cycles
 SCF Done:  E(RPBE1PBE) =  -1556.51735885     A.U. after    5 cycles
 Optimization completed.
    -- Stationary point found.

 The electronic state is 1-A.
 Alpha  occ. eigenvalues --  -10.23777 -10.23768 -10.23694 -10.23491 -10.23467
 Alpha  occ. eigenvalues --  -10.23398 -10.22678 -10.22582 -10.22569 -10.22541
 Alpha  occ. eigenvalues --  -10.22487 -10.22417 -10.22391 -10.22309 -10.22297
 Alpha  occ. eigenvalues --  -10.22294 -10.22283 -10.22137 -10.22025 -10.22000
 Alpha  occ. eigenvalues --  -10.21999 -10.21963 -10.21926 -10.21833 -10.21738
 Alpha  occ. eigenvalues --  -10.21700 -10.21651 -10.21620 -10.21607 -10.21587
 Alpha  occ. eigenvalues --  -10.21182 -10.21171 -10.21025 -10.21002 -10.20737
 Alpha  occ. eigenvalues --  -10.20658 -10.20632 -10.20571 -10.20245 -10.20224
 Alpha  occ. eigenvalues --   -0.88293  -0.88221  -0.86864  -0.86360  -0.85364
 Alpha  occ. eigenvalues --   -0.84721  -0.81957  -0.81477  -0.81368  -0.80640
 Alpha  occ. eigenvalues --   -0.79912  -0.78247  -0.77246  -0.74880  -0.74668
 Alpha  occ. eigenvalues --   -0.72767  -0.71348  -0.71333  -0.70473  -0.70386
 Alpha  occ. eigenvalues --   -0.70336  -0.70120  -0.69447  -0.69401  -0.69030
 Alpha  occ. eigenvalues --   -0.65325  -0.64434  -0.62062  -0.61440  -0.59343
 Alpha  occ. eigenvalues --   -0.58858  -0.57999  -0.57355  -0.56051  -0.55351
 Alpha  occ. eigenvalues --   -0.54885  -0.54322  -0.52780  -0.52112  -0.51106
 Alpha  occ. eigenvalues --   -0.50433  -0.49703  -0.49328  -0.48851  -0.48361
 Alpha  occ. eigenvalues --   -0.47576  -0.46954  -0.46712  -0.46387  -0.46021
 Alpha  occ. eigenvalues --   -0.45422  -0.44726  -0.44160  -0.43923  -0.43804
 Alpha  occ. eigenvalues --   -0.43642  -0.43618  -0.43564  -0.43300  -0.43280
 Alpha  occ. eigenvalues --   -0.43094  -0.42978  -0.41632  -0.41406  -0.41141
 Alpha  occ. eigenvalues --   -0.40994  -0.40884  -0.40696  -0.40462  -0.40154
 Alpha  occ. eigenvalues --   -0.40001  -0.39808  -0.39117  -0.38795  -0.38579
 Alpha  occ. eigenvalues --   -0.38410  -0.37950  -0.37850  -0.37468  -0.37284
 Alpha  occ. eigenvalues --   -0.37056  -0.36531  -0.36215  -0.36083  -0.35884
 Alpha  occ. eigenvalues --   -0.35680  -0.35677  -0.35394  -0.35230  -0.35049
 Alpha  occ. eigenvalues --   -0.34825  -0.34646  -0.33953  -0.33380  -0.32870
 Alpha  occ. eigenvalues --   -0.32822  -0.32291  -0.32098  -0.31275  -0.30709
 Alpha  occ. eigenvalues --   -0.30320  -0.29918  -0.28430  -0.26038  -0.24574
 Alpha  occ. eigenvalues --   -0.22848  -0.20517  -0.18018
 Alpha virt. eigenvalues --   -0.08293  -0.05287  -0.01629   0.00854   0.02799
 Alpha virt. eigenvalues --    0.03602   0.03746   0.04343   0.04402   0.04669
 Alpha virt. eigenvalues --    0.05277   0.05533   0.05769   0.05925   0.06194

 Mulliken charges:
               1
     1  C    0.142167
     2  C    0.065357
     3  C   -0.200100
     4  C   -0.193085
     5  C   -0.183087
     6  C   -0.181815
     7  C    0.069735
     8  C    0.100680
     9  C   -0.181803
    10  C   -0.162633
    11  C   -0.031818
    12  C   -0.058383
    13  C   -0.403483
    14  C   -0.407996
    15  C   -0.395766
    16  C   -0.349932
    17  C   -0.283395
    18  C   -0.251089
    19  C   -0.420234
    20  C   -0.410508
    21  C   -0.229727
    22  C   -0.250047
    23  C    0.181015
    24  C    0.190368
    25  C   -0.399295
    26  C   -0.401805
    27  C   -0.184539
    28  C   -0.194421
    29  C   -0.047180
    30  C   -0.039371
    31  C   -0.176588
    32  C   -0.212739
    33  C    0.138166
    34  C    0.133252
    35  C   -0.409470
    36  C   -0.407563
    37  C   -0.148086
    38  C   -0.073046
    39  C   -0.127805
    40  C   -0.167231
    41  H    0.095838
    42  H    0.106204
    43  H    0.093517
    44  H    0.105398
    45  H    0.107321
    46  H    0.094411
    47  H    0.107172
    48  H    0.096757
    49  H    0.104959
    50  H    0.113726
    51  H    0.099276
    52  H    0.107095
    53  H    0.117430
    54  H    0.118078
    55  H    0.134768
    56  H    0.129111
    57  H    0.121006
    58  H    0.126486
    59  H    0.121820
    60  H    0.120015
    61  H    0.117960
    62  H    0.122448
    63  H    0.121489
    64  H    0.120650
    65  H    0.130190
    66  H    0.122920
    67  H    0.157760
    68  H    0.125222
    69  H    0.130420
    70  H    0.161474
    71  H    0.126734
    72  H    0.119733
    73  H    0.114339
    74  H    0.122070
    75  H    0.138801
    76  H    0.130578
    77  H    0.135755
    78  H    0.138212
    79  H    0.135505
    80  H    0.129506
    81  H    0.090293
    82  H    0.089727
    83  H    0.097352
    84  H    0.097781
    85  H    0.091193
    86  H    0.089984
    87  H    0.135896
    88  H    0.128204
    89  H    0.135909
    90  H    0.138646
    91  H    0.138668
    92  H    0.132071
    93  H    0.092909
    94  H    0.099511
    95  H    0.099915
    96  H    0.083087
 Sum of Mulliken charges =  -0.00000

 Dipole moment (field-independent basis, Debye):
    X=              0.2286    Y=              0.0868    Z=              0.0917  Tot=              0.2611
 Quadrupole moment (field-independent basis, Debye-Ang):
   XX=           -216.9893   YY=           -233.2911   ZZ=           -258.1930
   XY=             -2.5832   XZ=              1.1877   YZ=              2.9043

 Normal termination of Gaussian 16 at Mon Jul  8 08:44:01 2019.

 --------------------------------------------------------------------
 #N Geom=AllCheck Guess=TCheck SCRF=Check GenChk RPBE1PBE/ChkBas Freq
 --------------------------------------------------------------------

 Structure from the checkpoint file:  "b-carotene-s0-geom-freq-TZVP.chk"
 ---------------------------
 b-caroten-s0-geom-freq-TZVP
 ---------------------------
 Charge =  0 Multiplicity = 1

                         Standard orientation:
 ---------------------------------------------------------------------
 Center     Atomic      Atomic             Coordinates (Angstroms)
 Number     Number       Type             X           Y           Z
 ---------------------------------------------------------------------
      1          6           0       12.081019    0.542086   -0.663297
      2          6           0      -12.039547   -0.061552    0.872083
      3          6           0       13.360918   -0.288964   -0.528746
      4          6           0      -12.923886    1.110141    1.307859
      5          6           0       13.091015   -1.778221   -0.508825
      6          6           0      -13.331558    1.997928    0.152163
      7          6           0       10.973550    0.002555    0.249125
      8          6           0      -10.931713    0.414443   -0.075456
      9          6           0       12.237793   -2.110817    0.697277
     10          6           0      -12.095774    2.590533   -0.495375
     11          6           0       11.078015   -1.176901    0.894600
     12          6           0      -10.978168    1.605866   -0.705307
     13          6           0       11.592757    0.525094   -2.116565
     14          6           0       12.437795    1.986695   -0.293495
     15          6           0      -12.893942   -1.129432    0.177168
     16          6           0      -11.429470   -0.672894    2.136888
     17          6           0        9.794565    0.863610    0.371034
     18          6           0       -9.848182   -0.552323   -0.267355
     19          6           0       10.094010   -1.680201    1.906168
     20          6           0       -9.949780    2.081908   -1.685717
     21          6           0        8.514894    0.459848    0.280038
     22          6           0       -8.528453   -0.297130   -0.236581
     23          6           0        7.347035    1.305053    0.390982
     24          6           0       -7.471537   -1.269507   -0.405694
     25          6           0        7.547209    2.764369    0.650568
     26          6           0       -7.849631   -2.692134   -0.670684
     27          6           0        6.123840    0.729557    0.253160
     28          6           0       -6.184990   -0.842035   -0.312943
     29          6           0        4.843968    1.359861    0.326122
     30          6           0       -4.990978   -1.615362   -0.439798
     31          6           0        3.680716    0.683952    0.171027
     32          6           0       -3.751806   -1.081978   -0.321379
     33          6           0        2.366415    1.260342    0.235883
     34          6           0       -2.506473   -1.790618   -0.431946
     35          6           0        2.249193    2.731540    0.498376
     36          6           0       -2.549891   -3.261148   -0.707245
     37          6           0        1.228088    0.526160    0.070183
     38          6           0       -1.349315   -1.086482   -0.278774
     39          6           0        1.129854   -0.873337   -0.188829
     40          6           0       -0.017437   -1.589272   -0.345563
     41          1           0       13.865608   -0.011399    0.405044
     42          1           0       14.040940   -0.020269   -1.343896
     43          1           0      -12.371009    1.712705    2.038902
     44          1           0      -13.801811    0.714131    1.829526
     45          1           0       14.027734   -2.342054   -0.481599
     46          1           0       12.572045   -2.079501   -1.424562
     47          1           0      -14.000258    2.793393    0.493372
     48          1           0      -13.892497    1.418198   -0.587851
     49          1           0       12.852969   -2.101903    1.608980
     50          1           0       11.849162   -3.134331    0.626918
     51          1           0      -11.713126    3.419183    0.118928
     52          1           0      -12.350383    3.044906   -1.459393
     53          1           0       11.399567   -0.491992   -2.464516
     54          1           0       12.340248    0.976675   -2.775993
     55          1           0       10.662721    1.088774   -2.220959
     56          1           0       12.664869    2.078910    0.771993
     57          1           0       11.640230    2.690556   -0.538919
     58          1           0       13.324377    2.296255   -0.854257
     59          1           0      -13.398316   -0.730763   -0.705012
     60          1           0      -13.654598   -1.510393    0.865430
     61          1           0      -12.290389   -1.980753   -0.145809
     62          1           0      -10.759739    0.035958    2.630193
     63          1           0      -10.856283   -1.576955    1.921945
     64          1           0      -12.223198   -0.938662    2.841556
     65          1           0        9.983389    1.925882    0.496828
     66          1           0      -10.159817   -1.588043   -0.384618
     67          1           0        9.421035   -0.904451    2.267137
     68          1           0       10.634595   -2.102238    2.760645
     69          1           0        9.483473   -2.494822    1.499785
     70          1           0       -9.293443    1.285327   -2.030933
     71          1           0       -9.321656    2.868471   -1.250521
     72          1           0      -10.442903    2.530233   -2.554149
     73          1           0        8.315572   -0.591884    0.089785
     74          1           0       -8.200276    0.721602   -0.046611
     75          1           0        8.098896    2.920413    1.582426
     76          1           0        6.608291    3.309158    0.722478
     77          1           0        8.138227    3.221740   -0.149014
     78          1           0       -8.459367   -2.769274   -1.575928
     79          1           0       -8.449589   -3.093496    0.152141
     80          1           0       -6.983363   -3.338401   -0.795233
     81          1           0        6.107327   -0.342644    0.064469
     82          1           0       -6.036213    0.218415   -0.115733
     83          1           0        4.806850    2.427255    0.514882
     84          1           0       -5.084000   -2.677799   -0.638149
     85          1           0        3.750916   -0.383133   -0.016823
     86          1           0       -3.674661   -0.014645   -0.121240
     87          1           0        2.706996    3.002993    1.454843
     88          1           0        1.204442    3.041784    0.524271
     89          1           0        2.756623    3.315582   -0.275919
     90          1           0       -3.071390   -3.462539   -1.647756
     91          1           0       -3.097877   -3.785607    0.081287
     92          1           0       -1.559349   -3.704926   -0.775066
     93          1           0        0.293448    1.073913    0.143828
     94          1           0       -1.465490   -0.024314   -0.082353
     95          1           0        2.055157   -1.433075   -0.272315
     96          1           0        0.104567   -2.649566   -0.539241
 ---------------------------------------------------------------------

 SCF Done:  E(RPBE1PBE) =  -1556.51735885     A.U. after    1 cycles
