 Gaussian 09, Revision D.01,
 Gaussian 09:  ES64L-G09RevD.01 24-Apr-2013

 ---------------------------------------
 #n PBE1PBE/Gen Opt Freq=savenormalmodes
 ---------------------------------------

 ---------------------------
 b-caroten-s0-geom-freq-TZVP
 ---------------------------
 Symbolic Z-matrix:
 Charge =  0 Multiplicity = 1

 SCF Done:  E(RPBE1PBE) =  -1556.51314955     A.U. after   14 cycles
 SCF Done:  E(RPBE1PBE) =  -1556.51712591     A.U. after   12 cycles
 SCF Done:  E(RPBE1PBE) =  -1556.51698258     A.U. after   12 cycles
 SCF Done:  E(RPBE1PBE) =  -1556.51732283     A.U. after   11 cycles
 SCF Done:  E(RPBE1PBE) =  -1556.51744900     A.U. after   11 cycles
 SCF Done:  E(RPBE1PBE) =  -1556.51746897     A.U. after   11 cycles
 SCF Done:  E(RPBE1PBE) =  -1556.51748142     A.U. after   10 cycles
 SCF Done:  E(RPBE1PBE) =  -1556.51748929     A.U. after   10 cycles
 SCF Done:  E(RPBE1PBE) =  -1556.51749020     A.U. after   10 cycles
 SCF Done:  E(RPBE1PBE) =  -1556.51749105     A.U. after    8 cycles
 SCF Done:  E(RPBE1PBE) =  -1556.51749119     A.U. after   11 cycles
 SCF Done:  E(RPBE1PBE) =  -1556.51749125     A.U. after    8 cycles
 SCF Done:  E(RPBE1PBE) =  -1556.51749128     A.U. after   10 cycles
 SCF Done:  E(RPBE1PBE) =  -1556.51749127     A.U. after    7 cycles
 Optimization completed.
    -- Stationary point found.

 The electronic state is 1-A.
 Alpha  occ. eigenvalues --  -10.23775 -10.23767 -10.23692 -10.23487 -10.23466
 Alpha  occ. eigenvalues --  -10.23401 -10.22679 -10.22576 -10.22566 -10.22563
 Alpha  occ. eigenvalues --  -10.22484 -10.22417 -10.22387 -10.22306 -10.22294
 Alpha  occ. eigenvalues --  -10.22292 -10.22285 -10.22134 -10.22027 -10.22002
 Alpha  occ. eigenvalues --  -10.22001 -10.21964 -10.21928 -10.21826 -10.21739
 Alpha  occ. eigenvalues --  -10.21699 -10.21649 -10.21615 -10.21607 -10.21595
 Alpha  occ. eigenvalues --  -10.21181 -10.21175 -10.21025 -10.21005 -10.20732
 Alpha  occ. eigenvalues --  -10.20654 -10.20650 -10.20571 -10.20241 -10.20235
 Alpha  occ. eigenvalues --   -0.88290  -0.88226  -0.86863  -0.86358  -0.85363
 Alpha  occ. eigenvalues --   -0.84720  -0.81954  -0.81477  -0.81377  -0.80639
 Alpha  occ. eigenvalues --   -0.79911  -0.78248  -0.77247  -0.74879  -0.74666
 Alpha  occ. eigenvalues --   -0.72769  -0.71346  -0.71333  -0.70488  -0.70389
 Alpha  occ. eigenvalues --   -0.70340  -0.70117  -0.69450  -0.69405  -0.69029
 Alpha  occ. eigenvalues --   -0.65324  -0.64434  -0.62066  -0.61442  -0.59347
 Alpha  occ. eigenvalues --   -0.58857  -0.58004  -0.57352  -0.56051  -0.55350
 Alpha  occ. eigenvalues --   -0.54882  -0.54321  -0.52777  -0.52113  -0.51104
 Alpha  occ. eigenvalues --   -0.50437  -0.49699  -0.49329  -0.48850  -0.48359
 Alpha  occ. eigenvalues --   -0.47576  -0.46953  -0.46710  -0.46387  -0.46020
 Alpha  occ. eigenvalues --   -0.45426  -0.44723  -0.44171  -0.43924  -0.43811
 Alpha  occ. eigenvalues --   -0.43637  -0.43613  -0.43560  -0.43300  -0.43279
 Alpha  occ. eigenvalues --   -0.43098  -0.42976  -0.41641  -0.41398  -0.41147
 Alpha  occ. eigenvalues --   -0.40991  -0.40897  -0.40697  -0.40465  -0.40154
 Alpha  occ. eigenvalues --   -0.39996  -0.39809  -0.39118  -0.38793  -0.38578
 Alpha  occ. eigenvalues --   -0.38411  -0.37962  -0.37853  -0.37468  -0.37283
 Alpha  occ. eigenvalues --   -0.37059  -0.36537  -0.36215  -0.36081  -0.35885
 Alpha  occ. eigenvalues --   -0.35684  -0.35670  -0.35393  -0.35221  -0.35048
 Alpha  occ. eigenvalues --   -0.34830  -0.34637  -0.33949  -0.33379  -0.32869
 Alpha  occ. eigenvalues --   -0.32819  -0.32293  -0.32094  -0.31281  -0.30719
 Alpha  occ. eigenvalues --   -0.30320  -0.29916  -0.28438  -0.26050  -0.24579
 Alpha  occ. eigenvalues --   -0.22840  -0.20508  -0.18012
 Alpha virt. eigenvalues --   -0.08292  -0.05288  -0.01644   0.00844   0.02795
 Alpha virt. eigenvalues --    0.03598   0.03743   0.04339   0.04411   0.04677
 Alpha virt. eigenvalues --    0.05276   0.05527   0.05781   0.05917   0.06194

 Mulliken charges:
               1
     1  C    0.145614
     2  C    0.065521
     3  C   -0.200456
     4  C   -0.193476
     5  C   -0.183832
     6  C   -0.182256
     7  C    0.067103
     8  C    0.100655
     9  C   -0.181573
    10  C   -0.161976
    11  C   -0.031858
    12  C   -0.057497
    13  C   -0.404072
    14  C   -0.409057
    15  C   -0.395894
    16  C   -0.350314
    17  C   -0.282994
    18  C   -0.252445
    19  C   -0.419575
    20  C   -0.413086
    21  C   -0.230926
    22  C   -0.247381
    23  C    0.181797
    24  C    0.189246
    25  C   -0.399321
    26  C   -0.401907
    27  C   -0.183829
    28  C   -0.194534
    29  C   -0.048032
    30  C   -0.039674
    31  C   -0.175692
    32  C   -0.212258
    33  C    0.137774
    34  C    0.132671
    35  C   -0.409591
    36  C   -0.407405
    37  C   -0.149333
    38  C   -0.073216
    39  C   -0.126967
    40  C   -0.167166
    41  H    0.095909
    42  H    0.106231
    43  H    0.093553
    44  H    0.105489
    45  H    0.107291
    46  H    0.094599
    47  H    0.107238
    48  H    0.097005
    49  H    0.104881
    50  H    0.113774
    51  H    0.099278
    52  H    0.106961
    53  H    0.117561
    54  H    0.118084
    55  H    0.134894
    56  H    0.129126
    57  H    0.121442
    58  H    0.126505
    59  H    0.122113
    60  H    0.119977
    61  H    0.118215
    62  H    0.122688
    63  H    0.121060
    64  H    0.120697
    65  H    0.130803
    66  H    0.122629
    67  H    0.157477
    68  H    0.125181
    69  H    0.130284
    70  H    0.162642
    71  H    0.127480
    72  H    0.119451
    73  H    0.114260
    74  H    0.122791
    75  H    0.138904
    76  H    0.130516
    77  H    0.135694
    78  H    0.138130
    79  H    0.135535
    80  H    0.129503
    81  H    0.090225
    82  H    0.089653
    83  H    0.097425
    84  H    0.097849
    85  H    0.091027
    86  H    0.089959
    87  H    0.135880
    88  H    0.128226
    89  H    0.135918
    90  H    0.138550
    91  H    0.138763
    92  H    0.132042
    93  H    0.093219
    94  H    0.099254
    95  H    0.100118
    96  H    0.083252
 Sum of Mulliken charges =   0.00000

 Dipole moment (field-independent basis, Debye):
    X=              0.2276    Y=              0.1126    Z=             -0.0383  Tot=              0.2568
 Quadrupole moment (field-independent basis, Debye-Ang):
   XX=           -216.7874   YY=           -233.5202   ZZ=           -257.9906
   XY=             -2.7032   XZ=              1.2829   YZ=              3.8437

 Normal termination of Gaussian 09 at Fri Jun 28 03:08:04 2019.

 --------------------------------------------------------------------
 #N Geom=AllCheck Guess=TCheck SCRF=Check GenChk RPBE1PBE/ChkBas Freq
 --------------------------------------------------------------------

 Structure from the checkpoint file:  "b-carotene-s0-geom-freq-TZVP.chk"
 ---------------------------
 b-caroten-s0-geom-freq-TZVP
 ---------------------------
 Charge =  0 Multiplicity = 1

                         Standard orientation:
 ---------------------------------------------------------------------
 Center     Atomic      Atomic             Coordinates (Angstroms)
 Number     Number       Type             X           Y           Z
 ---------------------------------------------------------------------
      1          6           0       12.019549    0.637081   -0.843838
      2          6           0      -12.111732   -0.025710    0.625691
      3          6           0       13.315329   -0.180003   -0.844422
      4          6           0      -13.016241    1.151492    1.000377
      5          6           0       13.066819   -1.671346   -0.918329
      6          6           0      -13.302599    2.066323   -0.170379
      7          6           0       10.974782    0.015245    0.089871
      8          6           0      -10.913369    0.448316   -0.205888
      9          6           0       12.287376   -2.105452    0.305364
     10          6           0      -12.003995    2.648698   -0.692290
     11          6           0       11.129796   -1.207507    0.636552
     12          6           0      -10.886452    1.650096   -0.817991
     13          6           0       11.445372    0.716114   -2.263235
     14          6           0       12.380315    2.057351   -0.392569
     15          6           0      -12.912404   -1.065901   -0.168285
     16          6           0      -11.632767   -0.670408    1.929710
     17          6           0        9.797284    0.848586    0.346929
     18          6           0       -9.832801   -0.532860   -0.318989
     19          6           0       10.211127   -1.801221    1.660464
     20          6           0       -9.769007    2.125652   -1.696101
     21          6           0        8.517274    0.439414    0.294267
     22          6           0       -8.514449   -0.297673   -0.195131
     23          6           0        7.352475    1.262425    0.533209
     24          6           0       -7.461938   -1.282288   -0.311245
     25          6           0        7.558564    2.699323    0.893822
     26          6           0       -7.841681   -2.698322   -0.606577
     27          6           0        6.126693    0.688361    0.414311
     28          6           0       -6.176738   -0.869396   -0.154673
     29          6           0        4.848855    1.301401    0.593991
     30          6           0       -4.984978   -1.651150   -0.245479
     31          6           0        3.683162    0.628675    0.443799
     32          6           0       -3.746726   -1.126874   -0.084000
     33          6           0        2.369453    1.189932    0.595543
     34          6           0       -2.502212   -1.839555   -0.175693
     35          6           0        2.254104    2.644917    0.936435
     36          6           0       -2.545555   -3.305784   -0.472847
     37          6           0        1.230232    0.455843    0.435283
     38          6           0       -1.345746   -1.141592    0.007974
     39          6           0        1.132506   -0.934463    0.129907
     40          6           0       -0.014077   -1.645522   -0.051987
     41          1           0       13.870372    0.037810    0.076611
     42          1           0       13.943131    0.158232   -1.675465
     43          1           0      -12.525428    1.731735    1.791311
     44          1           0      -13.944181    0.759769    1.430632
     45          1           0       14.011245   -2.218902   -0.983755
     46          1           0       12.501757   -1.914979   -1.823827
     47          1           0      -13.987266    2.867015    0.123619
     48          1           0      -13.802636    1.509057   -0.968862
     49          1           0       12.953140   -2.152753    1.179555
     50          1           0       11.908194   -3.127343    0.181185
     51          1           0      -11.666408    3.460843   -0.031252
     52          1           0      -12.162962    3.123279   -1.667007
     53          1           0       11.241481   -0.276167   -2.671334
     54          1           0       12.147271    1.224116   -2.931647
     55          1           0       10.505184    1.272472   -2.271356
     56          1           0       12.668053    2.077587    0.661971
     57          1           0       11.562049    2.764296   -0.541665
     58          1           0       13.229162    2.419274   -0.979713
     59          1           0      -13.317942   -0.644277   -1.089920
     60          1           0      -13.745300   -1.440800    0.434327
     61          1           0      -12.296028   -1.924775   -0.443458
     62          1           0      -11.002299    0.018172    2.497816
     63          1           0      -11.055461   -1.580293    1.752838
     64          1           0      -12.492961   -0.935973    2.551568
     65          1           0        9.984923    1.899432    0.547921
     66          1           0      -10.149847   -1.563058   -0.466112
     67          1           0        9.548770   -1.066588    2.115032
     68          1           0       10.804375   -2.275583    2.450074
     69          1           0        9.590407   -2.594238    1.227750
     70          1           0       -9.107951    1.321204   -2.013340
     71          1           0       -9.157185    2.880026   -1.187016
     72          1           0      -10.178115    2.613867   -2.586254
     73          1           0        8.313429   -0.595699    0.031214
     74          1           0       -8.184953    0.714109    0.025849
     75          1           0        8.155477    2.788381    1.806453
     76          1           0        6.621900    3.228858    1.054354
     77          1           0        8.106545    3.221614    0.103440
     78          1           0       -8.395943   -2.763211   -1.547771
     79          1           0       -8.495954   -3.095200    0.175998
     80          1           0       -6.977840   -3.355462   -0.681207
     81          1           0        6.105940   -0.366592    0.145697
     82          1           0       -6.026572    0.187705    0.058891
     83          1           0        4.815956    2.352558    0.859083
     84          1           0       -5.078286   -2.710440   -0.460301
     85          1           0        3.750489   -0.421634    0.177127
     86          1           0       -3.669688   -0.062561    0.131602
     87          1           0        2.740993    2.869901    1.890701
     88          1           0        1.209303    2.946556    1.012601
     89          1           0        2.733933    3.270771    0.177467
     90          1           0       -3.047827   -3.491586   -1.426938
     91          1           0       -3.112389   -3.838982    0.296275
     92          1           0       -1.555654   -3.753116   -0.525840
     93          1           0        0.295060    0.993306    0.560198
     94          1           0       -1.462106   -0.081673    0.216336
     95          1           0        2.058012   -1.492295    0.036858
     96          1           0        0.109028   -2.701088   -0.269610
 ---------------------------------------------------------------------

 SCF Done:  E(RPBE1PBE) =  -1556.51749127     A.U. after    3 cycles
