 Gaussian 16, Revision A.03,
 Gaussian 16:  ES64L-G16RevA.03 25-Dec-2016

 ----------------------
 #n wB97XD/Def2TZVP Opt
 ----------------------

 -------------
 b-carotene-s0
 -------------
 Symbolic Z-matrix:
 Charge =  0 Multiplicity = 1

 SCF Done:  E(RwB97XD) =  -1557.93206252     A.U. after   14 cycles
 SCF Done:  E(RwB97XD) =  -1557.93756198     A.U. after   12 cycles
 SCF Done:  E(RwB97XD) =  -1557.93793474     A.U. after   11 cycles
 SCF Done:  E(RwB97XD) =  -1557.93808581     A.U. after   11 cycles
 SCF Done:  E(RwB97XD) =  -1557.93814198     A.U. after   11 cycles
 SCF Done:  E(RwB97XD) =  -1557.93815784     A.U. after   10 cycles
 SCF Done:  E(RwB97XD) =  -1557.93816588     A.U. after    9 cycles
 SCF Done:  E(RwB97XD) =  -1557.93816853     A.U. after    9 cycles
 SCF Done:  E(RwB97XD) =  -1557.93816932     A.U. after    7 cycles
 SCF Done:  E(RwB97XD) =  -1557.93816954     A.U. after    6 cycles
 SCF Done:  E(RwB97XD) =  -1557.93816973     A.U. after    6 cycles
 SCF Done:  E(RwB97XD) =  -1557.93816977     A.U. after    6 cycles
 SCF Done:  E(RwB97XD) =  -1557.93816978     A.U. after    6 cycles
 SCF Done:  E(RwB97XD) =  -1557.93816979     A.U. after    6 cycles
 SCF Done:  E(RwB97XD) =  -1557.93816979     A.U. after    5 cycles
 Optimization completed.
    -- Stationary point found.

                         Standard orientation:
 ---------------------------------------------------------------------
 Center     Atomic      Atomic             Coordinates (Angstroms)
 Number     Number       Type             X           Y           Z
 ---------------------------------------------------------------------
      1          6           0       11.985700    0.494667   -0.801123
      2          6           0      -11.987898   -0.026669    0.888241
      3          6           0       13.290846   -0.305281   -0.691205
      4          6           0      -12.844359    1.170432    1.321222
      5          6           0       13.051076   -1.793171   -0.514638
      6          6           0      -13.294370    2.022479    0.149790
      7          6           0       10.968959    0.032269    0.250435
      8          6           0      -10.918867    0.408193   -0.124294
      9          6           0       12.285223   -2.029079    0.774710
     10          6           0      -12.080793    2.577213   -0.576335
     11          6           0       11.125550   -1.087026    0.972688
     12          6           0      -10.979308    1.569038   -0.794641
     13          6           0       11.374042    0.322388   -2.199962
     14          6           0       12.334752    1.977688   -0.606290
     15          6           0      -12.880107   -1.111956    0.264140
     16          6           0      -11.323395   -0.602822    2.145870
     17          6           0        9.788311    0.903464    0.401258
     18          6           0       -9.837920   -0.574451   -0.319074
     19          6           0       10.202568   -1.522691    2.076468
     20          6           0       -9.975833    2.007363   -1.824992
     21          6           0        8.521632    0.493268    0.291599
     22          6           0       -8.528833   -0.319710   -0.242351
     23          6           0        7.333166    1.328698    0.423204
     24          6           0       -7.454488   -1.292778   -0.404355
     25          6           0        7.531124    2.788693    0.705346
     26          6           0       -7.834883   -2.716913   -0.683169
     27          6           0        6.125839    0.745610    0.284225
     28          6           0       -6.181755   -0.862479   -0.294032
     29          6           0        4.827579    1.369282    0.374616
     30          6           0       -4.971595   -1.639026   -0.415749
     31          6           0        3.680497    0.687582    0.218248
     32          6           0       -3.746614   -1.103462   -0.287036
     33          6           0        2.346160    1.256069    0.297440
     34          6           0       -2.483016   -1.813449   -0.395035
     35          6           0        2.227375    2.728272    0.576972
     36          6           0       -2.531507   -3.286983   -0.675859
     37          6           0        1.224867    0.519577    0.131276
     38          6           0       -1.340755   -1.109809   -0.237027
     39          6           0        1.140081   -0.894837   -0.142226
     40          6           0        0.009147   -1.611650   -0.304154
     41          1           0       13.858350    0.062743    0.170679
     42          1           0       13.900885   -0.108698   -1.577129
     43          1           0      -12.255910    1.793008    2.003832
     44          1           0      -13.702970    0.804087    1.890997
     45          1           0       13.998149   -2.336281   -0.498562
     46          1           0       12.479922   -2.184393   -1.360691
     47          1           0      -13.935082    2.837705    0.492200
     48          1           0      -13.894180    1.424096   -0.540883
     49          1           0       12.960217   -1.931480    1.634646
     50          1           0       11.908867   -3.056296    0.815748
     51          1           0      -11.662580    3.420593   -0.011477
     52          1           0      -12.376453    2.993392   -1.543592
     53          1           0       11.164867   -0.725706   -2.419103
     54          1           0       12.056817    0.703575   -2.963700
     55          1           0       10.433103    0.869228   -2.281440
     56          1           0       12.643016    2.178436    0.422267
     57          1           0       11.498518    2.634130   -0.850481
     58          1           0       13.163047    2.247269   -1.265642
     59          1           0      -13.404669   -0.742165   -0.617480
     60          1           0      -13.623193   -1.452346    0.989801
     61          1           0      -12.297067   -1.982933   -0.040067
     62          1           0      -10.615763    0.110086    2.573817
     63          1           0      -10.779674   -1.524840    1.935714
     64          1           0      -12.083637   -0.824611    2.899033
     65          1           0        9.981757    1.957480    0.571503
     66          1           0      -10.156769   -1.600971   -0.476942
     67          1           0        9.533612   -0.732719    2.408929
     68          1           0       10.792354   -1.865456    2.931659
     69          1           0        9.590249   -2.372935    1.760655
     70          1           0       -9.313311    1.205825   -2.141172
     71          1           0       -9.356204    2.823542   -1.439542
     72          1           0      -10.492791    2.398711   -2.705106
     73          1           0        8.338033   -0.556577    0.080314
     74          1           0       -8.212457    0.697472   -0.030062
     75          1           0        8.081960    2.927478    1.638807
     76          1           0        6.593517    3.332160    0.786301
     77          1           0        8.121211    3.254572   -0.087930
     78          1           0       -8.422027   -2.784587   -1.602318
     79          1           0       -8.455717   -3.112437    0.124838
     80          1           0       -6.971833   -3.368851   -0.789156
     81          1           0        6.113407   -0.322179    0.079596
     82          1           0       -6.033885    0.195050   -0.088922
     83          1           0        4.785788    2.432344    0.577528
     84          1           0       -5.062779   -2.698980   -0.619997
     85          1           0        3.758528   -0.374738    0.016278
     86          1           0       -3.672805   -0.038142   -0.082285
     87          1           0        2.691502    2.986390    1.532411
     88          1           0        1.183574    3.036601    0.613576
     89          1           0        2.728592    3.317329   -0.195489
     90          1           0       -3.047599   -3.479348   -1.619647
     91          1           0       -3.087148   -3.807112    0.108222
     92          1           0       -1.544618   -3.736695   -0.738507
     93          1           0        0.283906    1.051947    0.212805
     94          1           0       -1.457003   -0.049910   -0.037937
     95          1           0        2.070096   -1.443188   -0.227645
     96          1           0        0.135093   -2.668695   -0.504458
 ---------------------------------------------------------------------

 The electronic state is 1-A.
 Alpha  occ. eigenvalues --  -10.29924 -10.29917 -10.29796 -10.29569 -10.29463
 Alpha  occ. eigenvalues --  -10.29415 -10.28878 -10.28742 -10.28650 -10.28629
 Alpha  occ. eigenvalues --  -10.28591 -10.28504 -10.28439 -10.28431 -10.28419
 Alpha  occ. eigenvalues --  -10.28404 -10.28395 -10.28229 -10.28146 -10.28018
 Alpha  occ. eigenvalues --  -10.28002 -10.27966 -10.27940 -10.27926 -10.27864
 Alpha  occ. eigenvalues --  -10.27864 -10.27831 -10.27830 -10.27676 -10.27630
 Alpha  occ. eigenvalues --  -10.27254 -10.27245 -10.27086 -10.27065 -10.26816
 Alpha  occ. eigenvalues --  -10.26752 -10.26733 -10.26695 -10.26338 -10.26337
 Alpha  occ. eigenvalues --   -0.95740  -0.95671  -0.94482  -0.93961  -0.92951
 Alpha  occ. eigenvalues --   -0.92308  -0.89599  -0.88925  -0.88834  -0.88237
 Alpha  occ. eigenvalues --   -0.87493  -0.85859  -0.84876  -0.82548  -0.82344
 Alpha  occ. eigenvalues --   -0.80370  -0.79053  -0.79025  -0.78081  -0.78029
 Alpha  occ. eigenvalues --   -0.77983  -0.77667  -0.77087  -0.77010  -0.76821
 Alpha  occ. eigenvalues --   -0.72688  -0.71885  -0.69560  -0.68990  -0.66844
 Alpha  occ. eigenvalues --   -0.66341  -0.65497  -0.64897  -0.63688  -0.63024
 Alpha  occ. eigenvalues --   -0.62456  -0.61877  -0.60293  -0.59558  -0.58482
 Alpha  occ. eigenvalues --   -0.57810  -0.57071  -0.56710  -0.56144  -0.55703
 Alpha  occ. eigenvalues --   -0.54879  -0.54280  -0.54072  -0.53737  -0.53374
 Alpha  occ. eigenvalues --   -0.52724  -0.52145  -0.51497  -0.51162  -0.51117
 Alpha  occ. eigenvalues --   -0.51065  -0.51041  -0.50843  -0.50751  -0.50703
 Alpha  occ. eigenvalues --   -0.50393  -0.50206  -0.48801  -0.48672  -0.48386
 Alpha  occ. eigenvalues --   -0.48140  -0.48125  -0.47979  -0.47675  -0.47382
 Alpha  occ. eigenvalues --   -0.47156  -0.47097  -0.46389  -0.46044  -0.45845
 Alpha  occ. eigenvalues --   -0.45609  -0.45102  -0.45027  -0.44718  -0.44598
 Alpha  occ. eigenvalues --   -0.44201  -0.43521  -0.43240  -0.43148  -0.43034
 Alpha  occ. eigenvalues --   -0.42955  -0.42686  -0.42446  -0.42317  -0.42076
 Alpha  occ. eigenvalues --   -0.41933  -0.41702  -0.41194  -0.40124  -0.39835
 Alpha  occ. eigenvalues --   -0.39755  -0.39321  -0.39047  -0.38192  -0.37487
 Alpha  occ. eigenvalues --   -0.37015  -0.36642  -0.35023  -0.32417  -0.31018
 Alpha  occ. eigenvalues --   -0.29325  -0.26704  -0.23985
 Alpha virt. eigenvalues --   -0.02308   0.00804   0.04877   0.07624   0.09379
 Alpha virt. eigenvalues --    0.10007   0.10227   0.10847   0.10909   0.11188
 Alpha virt. eigenvalues --    0.11806   0.12059   0.12353   0.12452   0.12681

 Mulliken charges:
               1
     1  C    0.230160
     2  C    0.124494
     3  C   -0.205798
     4  C   -0.203811
     5  C   -0.188119
     6  C   -0.186151
     7  C   -0.007126
     8  C    0.034282
     9  C   -0.172832
    10  C   -0.155980
    11  C   -0.038628
    12  C   -0.052753
    13  C   -0.413449
    14  C   -0.429122
    15  C   -0.398728
    16  C   -0.351325
    17  C   -0.280739
    18  C   -0.240235
    19  C   -0.391357
    20  C   -0.390103
    21  C   -0.229739
    22  C   -0.250268
    23  C    0.172795
    24  C    0.177577
    25  C   -0.387013
    26  C   -0.389198
    27  C   -0.170305
    28  C   -0.178943
    29  C   -0.066985
    30  C   -0.054895
    31  C   -0.165327
    32  C   -0.209071
    33  C    0.101453
    34  C    0.111092
    35  C   -0.392786
    36  C   -0.393504
    37  C   -0.129492
    38  C   -0.057501
    39  C   -0.138924
    40  C   -0.178245
    41  H    0.096194
    42  H    0.106144
    43  H    0.094832
    44  H    0.105211
    45  H    0.104227
    46  H    0.094777
    47  H    0.103901
    48  H    0.096749
    49  H    0.105977
    50  H    0.109003
    51  H    0.101092
    52  H    0.102343
    53  H    0.114112
    54  H    0.116022
    55  H    0.134511
    56  H    0.129400
    57  H    0.123412
    58  H    0.124608
    59  H    0.119473
    60  H    0.118191
    61  H    0.112197
    62  H    0.121700
    63  H    0.120646
    64  H    0.119327
    65  H    0.145094
    66  H    0.130391
    67  H    0.146427
    68  H    0.119794
    69  H    0.126264
    70  H    0.152868
    71  H    0.122879
    72  H    0.115254
    73  H    0.120584
    74  H    0.128878
    75  H    0.135367
    76  H    0.120445
    77  H    0.132889
    78  H    0.135046
    79  H    0.132298
    80  H    0.119850
    81  H    0.098213
    82  H    0.097668
    83  H    0.107751
    84  H    0.106113
    85  H    0.101544
    86  H    0.097143
    87  H    0.132036
    88  H    0.119708
    89  H    0.132171
    90  H    0.135322
    91  H    0.135277
    92  H    0.121508
    93  H    0.097431
    94  H    0.109475
    95  H    0.107695
    96  H    0.089166
 Sum of Mulliken charges =  -0.00000

 Dipole moment (field-independent basis, Debye):
    X=              0.2168    Y=              0.0963    Z=              0.0839  Tot=              0.2516
 Quadrupole moment (field-independent basis, Debye-Ang):
   XX=           -220.9136   YY=           -233.5072   ZZ=           -257.6646
   XY=             -1.5955   XZ=              1.3622   YZ=              3.2241

 Normal termination of Gaussian 16 at Mon Nov  4 21:50:23 2019.
