 Gaussian 16, Revision A.03,
 Gaussian 16:  ES64L-G16RevA.03 25-Dec-2016

 --------------------------------------------------------
 # wB97XD/Def2TZVP iop(3/107=0118700000,3/108=0118700000)
 --------------------------------------------------------

 -----
 TITLE
 -----
 Symbolic Z-matrix:
 Charge = -1 Multiplicity = 2

                         Standard orientation:
 ---------------------------------------------------------------------
 Center     Atomic      Atomic             Coordinates (Angstroms)
 Number     Number       Type             X           Y           Z
 ---------------------------------------------------------------------
      1          6           0       12.018508    0.508675   -0.796603
      2          6           0      -12.017317   -0.018752    0.877864
      3          6           0       13.319524   -0.307006   -0.698088
      4          6           0      -12.876042    1.184754    1.302414
      5          6           0       13.067678   -1.798848   -0.553256
      6          6           0      -13.313811    2.039896    0.125286
      7          6           0       10.985849    0.027193    0.237368
      8          6           0      -10.934486    0.412058   -0.128361
      9          6           0       12.291397   -2.056133    0.728762
     10          6           0      -12.090978    2.587535   -0.596354
     11          6           0       11.134931   -1.110205    0.941262
     12          6           0      -10.989656    1.574195   -0.805667
     13          6           0       11.414881    0.377882   -2.207929
     14          6           0       12.382349    1.986543   -0.559983
     15          6           0      -12.909861   -1.104393    0.244561
     16          6           0      -11.365673   -0.596282    2.146501
     17          6           0        9.808065    0.899463    0.393914
     18          6           0       -9.856470   -0.574333   -0.313950
     19          6           0       10.207981   -1.559874    2.038924
     20          6           0       -9.982518    2.003385   -1.839151
     21          6           0        8.532474    0.495883    0.295952
     22          6           0       -8.540058   -0.327016   -0.243530
     23          6           0        7.350993    1.334582    0.433269
     24          6           0       -7.472251   -1.303273   -0.400700
     25          6           0        7.550445    2.796257    0.718041
     26          6           0       -7.853148   -2.729965   -0.678217
     27          6           0        6.134636    0.753212    0.296412
     28          6           0       -6.191359   -0.875292   -0.288354
     29          6           0        4.841319    1.375781    0.390621
     30          6           0       -4.985676   -1.650804   -0.405180
     31          6           0        3.685580    0.694765    0.235828
     32          6           0       -3.752542   -1.116740   -0.274821
     33          6           0        2.355364    1.260245    0.317664
     34          6           0       -2.493038   -1.825109   -0.378578
     35          6           0        2.228873    2.734381    0.597950
     36          6           0       -2.534370   -3.301882   -0.657073
     37          6           0        1.227802    0.518382    0.152396
     38          6           0       -1.344549   -1.117044   -0.218905
     39          6           0        1.139092   -0.890687   -0.119039
     40          6           0        0.002152   -1.612236   -0.282140
     41          1           0       13.887511    0.038040    0.172476
     42          1           0       13.935119   -0.097590   -1.576932
     43          1           0      -12.293129    1.805347    1.990977
     44          1           0      -13.741461    0.822445    1.864080
     45          1           0       14.010860   -2.348917   -0.542864
     46          1           0       12.499361   -2.169237   -1.410330
     47          1           0      -13.951377    2.859520    0.463246
     48          1           0      -13.914078    1.445442   -0.568101
     49          1           0       12.962833   -1.983440    1.594118
     50          1           0       11.908806   -3.081840    0.745792
     51          1           0      -11.673693    3.431997   -0.032153
     52          1           0      -12.379794    3.002908   -1.566067
     53          1           0       11.195385   -0.661761   -2.454604
     54          1           0       12.107203    0.769206   -2.957519
     55          1           0       10.480943    0.936926   -2.283710
     56          1           0       12.685898    2.157669    0.474976
     57          1           0       11.555842    2.658933   -0.792336
     58          1           0       13.217661    2.265124   -1.206278
     59          1           0      -13.422635   -0.734213   -0.643581
     60          1           0      -13.663033   -1.440313    0.961552
     61          1           0      -12.328237   -1.978735   -0.051641
     62          1           0      -10.663747    0.116398    2.583368
     63          1           0      -10.819141   -1.517829    1.943110
     64          1           0      -12.133497   -0.819130    2.891357
     65          1           0       10.005747    1.953958    0.553966
     66          1           0      -10.179583   -1.601335   -0.457919
     67          1           0        9.541361   -0.772752    2.382351
     68          1           0       10.795365   -1.915772    2.890509
     69          1           0        9.593066   -2.404502    1.712970
     70          1           0       -9.318081    1.199319   -2.144396
     71          1           0       -9.364873    2.825702   -1.463539
     72          1           0      -10.497297    2.383103   -2.725826
     73          1           0        8.341890   -0.552359    0.085890
     74          1           0       -8.218445    0.689342   -0.037861
     75          1           0        8.107347    2.934572    1.647950
     76          1           0        6.612951    3.338395    0.807354
     77          1           0        8.133159    3.266286   -0.078217
     78          1           0       -8.440652   -2.800074   -1.596949
     79          1           0       -8.472235   -3.126827    0.130436
     80          1           0       -6.989853   -3.381356   -0.784533
     81          1           0        6.121454   -0.314011    0.090232
     82          1           0       -6.043696    0.182437   -0.085511
     83          1           0        4.800959    2.438457    0.594871
     84          1           0       -5.077779   -2.710876   -0.607346
     85          1           0        3.762047   -0.367176    0.032146
     86          1           0       -3.678789   -0.051350   -0.072101
     87          1           0        2.691636    2.995963    1.553144
     88          1           0        1.183960    3.038293    0.635714
     89          1           0        2.725596    3.327313   -0.174486
     90          1           0       -3.045799   -3.499984   -1.602181
     91          1           0       -3.088639   -3.824486    0.126298
     92          1           0       -1.545101   -3.746733   -0.715966
     93          1           0        0.288173    1.052525    0.235636
     94          1           0       -1.464264   -0.057179   -0.022124
     95          1           0        2.067437   -1.441993   -0.203492
     96          1           0        0.132809   -2.669018   -0.480606
 ---------------------------------------------------------------------

 SCF Done:  E(UwB97XD) =  -1558.11390186     A.U. after   20 cycles

 Alpha virt. eigenvalues --    0.32912   0.33202   0.33394   0.33574   0.33624
 Alpha virt. eigenvalues --    0.33920   0.34011   0.34414   0.34683   0.34957
 Alpha virt. eigenvalues --    0.35197   0.35452   0.35676   0.36050   0.36133

  Beta  occ. eigenvalues --  -10.19674 -10.19639 -10.18092 -10.18028 -10.18004
  Beta  occ. eigenvalues --  -10.17981 -10.17775 -10.17742 -10.17636 -10.17563
  Beta  occ. eigenvalues --  -10.17376 -10.17282 -10.17280 -10.17134 -10.16623
  Beta  occ. eigenvalues --  -10.16580 -10.16492 -10.16489 -10.15935 -10.15921
  Beta  occ. eigenvalues --  -10.15591 -10.15579 -10.15333 -10.15278 -10.15186
  Beta  occ. eigenvalues --  -10.15182 -10.15045 -10.14938 -10.14386 -10.14321
  Beta  occ. eigenvalues --  -10.14168 -10.14103 -10.13991 -10.13883 -10.13405
  Beta  occ. eigenvalues --  -10.13305 -10.13236 -10.13108 -10.12794 -10.12715
  Beta  occ. eigenvalues --   -0.84786  -0.84751  -0.79797  -0.79762  -0.78359
  Beta  occ. eigenvalues --   -0.78312  -0.78264  -0.77655  -0.76391  -0.76128
  Beta  occ. eigenvalues --   -0.73816  -0.72441  -0.71407  -0.69991  -0.69410
  Beta  occ. eigenvalues --   -0.68096  -0.67966  -0.67052  -0.67027  -0.66625
  Beta  occ. eigenvalues --   -0.66590  -0.65626  -0.65187  -0.65092  -0.62625
  Beta  occ. eigenvalues --   -0.60232  -0.59945  -0.57399  -0.56767  -0.55560
  Beta  occ. eigenvalues --   -0.55379  -0.53360  -0.52485  -0.49845  -0.49154
  Beta  occ. eigenvalues --   -0.49140  -0.48433  -0.48167  -0.47922  -0.46872
  Beta  occ. eigenvalues --   -0.46445  -0.45320  -0.44437  -0.44128  -0.44051
  Beta  occ. eigenvalues --   -0.43772  -0.43376  -0.42697  -0.42354  -0.41730
  Beta  occ. eigenvalues --   -0.41573  -0.41273  -0.41129  -0.40902  -0.40022
  Beta  occ. eigenvalues --   -0.39527  -0.39079  -0.38680  -0.38592  -0.38381
  Beta  occ. eigenvalues --   -0.38308  -0.38290  -0.38047  -0.37763  -0.37332
  Beta  occ. eigenvalues --   -0.37311  -0.37150  -0.37033  -0.36697  -0.35946
  Beta  occ. eigenvalues --   -0.35782  -0.35688  -0.34879  -0.34290  -0.34063
  Beta  occ. eigenvalues --   -0.33981  -0.33886  -0.33773  -0.33626  -0.33590
  Beta  occ. eigenvalues --   -0.32987  -0.32895  -0.32764  -0.32529  -0.31402
  Beta  occ. eigenvalues --   -0.30919  -0.30867  -0.30766  -0.30509  -0.30449
  Beta  occ. eigenvalues --   -0.29708  -0.29644  -0.29537  -0.28657  -0.28518
  Beta  occ. eigenvalues --   -0.28296  -0.27464  -0.27359  -0.26987  -0.25955
  Beta  occ. eigenvalues --   -0.25433  -0.24568  -0.22413  -0.21121  -0.19909
  Beta  occ. eigenvalues --   -0.17346  -0.14337  -0.10668
  Beta virt. eigenvalues --    0.07226   0.09317   0.12875   0.14569   0.15515
  Beta virt. eigenvalues --    0.15780   0.16416   0.17559   0.17584   0.17922
  Beta virt. eigenvalues --    0.18549   0.18599   0.19245   0.19396   0.19633

 Mulliken charges and spin densities:
               1          2
     1  C    0.205461   0.004396
     2  C    0.097051   0.004216
     3  C   -0.169673   0.000217
     4  C   -0.167633  -0.000024
     5  C   -0.150794   0.000289
     6  C   -0.148777   0.000253
     7  C    0.015099  -0.020491
     8  C    0.055164  -0.021301
     9  C   -0.149996  -0.001741
    10  C   -0.132333  -0.001575
    11  C   -0.039498   0.028310
    12  C   -0.056287   0.030047
    13  C   -0.393376   0.000282
    14  C   -0.408115  -0.000324
    15  C   -0.378492  -0.000642
    16  C   -0.326674  -0.000002
    17  C   -0.345765   0.111842
    18  C   -0.301295   0.106729
    19  C   -0.378552  -0.001144
    20  C   -0.376177  -0.001503
    21  C   -0.206302  -0.038283
    22  C   -0.228899  -0.038251
    23  C    0.125939   0.128148
    24  C    0.133206   0.124822
    25  C   -0.372840  -0.005211
    26  C   -0.374955  -0.005093
    27  C   -0.136866  -0.046745
    28  C   -0.145529  -0.048002
    29  C   -0.128499   0.134467
    30  C   -0.121583   0.134972
    31  C   -0.142053  -0.012227
    32  C   -0.187963  -0.012994
    33  C    0.056938   0.121099
    34  C    0.078867   0.102449
    35  C   -0.374241  -0.006974
    36  C   -0.383206  -0.002751
    37  C   -0.133578   0.021973
    38  C   -0.052469   0.024973
    39  C   -0.164093   0.084393
    40  C   -0.217165   0.074068
    41  H    0.078208  -0.000018
    42  H    0.083308   0.000114
    43  H    0.081028   0.000041
    44  H    0.081779   0.000319
    45  H    0.075097   0.000014
    46  H    0.082170   0.000021
    47  H    0.075824   0.000004
    48  H    0.080244   0.000045
    49  H    0.081915   0.001527
    50  H    0.088728   0.001529
    51  H    0.080493   0.002167
    52  H    0.079505   0.000575
    53  H    0.104631  -0.000014
    54  H    0.095442  -0.000181
    55  H    0.143308  -0.000061
    56  H    0.117921  -0.000025
    57  H    0.125317   0.000560
    58  H    0.104822  -0.000064
    59  H    0.107450   0.000051
    60  H    0.099173   0.000024
    61  H    0.112621   0.000201
    62  H    0.114712  -0.000034
    63  H    0.126075   0.000298
    64  H    0.098075   0.000236
    65  H    0.131893  -0.005038
    66  H    0.118687  -0.004842
    67  H    0.154867   0.000145
    68  H    0.095946   0.000922
    69  H    0.113573   0.001075
    70  H    0.161586   0.000168
    71  H    0.108059   0.001147
    72  H    0.091867   0.000935
    73  H    0.102961   0.000897
    74  H    0.111630   0.000948
    75  H    0.106934   0.005189
    76  H    0.111931   0.000101
    77  H    0.104518   0.005113
    78  H    0.106980   0.005039
    79  H    0.104066   0.004999
    80  H    0.111675   0.000102
    81  H    0.070342   0.001769
    82  H    0.070004   0.001905
    83  H    0.089801  -0.005918
    84  H    0.088705  -0.005836
    85  H    0.081860   0.000779
    86  H    0.067307  -0.000334
    87  H    0.104837   0.005354
    88  H    0.096516  -0.000167
    89  H    0.104876   0.005375
    90  H    0.108249   0.003703
    91  H    0.108143   0.003741
    92  H    0.104956  -0.000174
    93  H    0.071533  -0.000403
    94  H    0.083895   0.000671
    95  H    0.068052  -0.003088
    96  H    0.051862  -0.004272
 Sum of Mulliken charges =  -1.00000   1.00000

 Dipole moment (field-independent basis, Debye):
    X=             -0.1082    Y=              0.8624    Z=              0.1306  Tot=              0.8789
 Quadrupole moment (field-independent basis, Debye-Ang):
   XX=           -486.2732   YY=           -255.3221   ZZ=           -265.0087
   XY=            -18.2200   XZ=             -7.4957   YZ=              1.3148

 Normal termination of Gaussian 16 at Fri Nov 15 13:22:43 2019.
