 Gaussian 16, Revision A.03,
 Gaussian 16:  ES64L-G16RevA.03 25-Dec-2016

 --------------------------------------------------------
 # wB97XD/Def2TZVP iop(3/107=0125000000,3/108=0125000000)
 --------------------------------------------------------

 -----
 TITLE
 -----
 Symbolic Z-matrix:
 Charge = -1 Multiplicity = 2

                         Standard orientation:
 ---------------------------------------------------------------------
 Center     Atomic      Atomic             Coordinates (Angstroms)
 Number     Number       Type             X           Y           Z
 ---------------------------------------------------------------------
      1          6           0       12.017543    0.508895   -0.794146
      2          6           0      -12.015951   -0.020514    0.877949
      3          6           0       13.318692   -0.305691   -0.694086
      4          6           0      -12.874996    1.181801    1.303907
      5          6           0       13.067491   -1.797460   -0.549662
      6          6           0      -13.312803    2.038011    0.127855
      7          6           0       10.984575    0.027235    0.238770
      8          6           0      -10.933499    0.411901   -0.127333
      9          6           0       12.290282   -2.055107    0.731450
     10          6           0      -12.090083    2.587432   -0.592118
     11          6           0       11.133227   -1.109921    0.942572
     12          6           0      -10.988520    1.574909   -0.802584
     13          6           0       11.415466    0.377135   -2.205622
     14          6           0       12.379893    1.986761   -0.557871
     15          6           0      -12.907829   -1.105445    0.243446
     16          6           0      -11.364208   -0.599326    2.145484
     17          6           0        9.806368    0.899079    0.394358
     18          6           0       -9.855081   -0.573834   -0.313927
     19          6           0       10.204933   -1.560312    2.038503
     20          6           0       -9.980722    2.006229   -1.834232
     21          6           0        8.531542    0.494747    0.295012
     22          6           0       -8.539263   -0.325665   -0.242908
     23          6           0        7.349488    1.333141    0.431535
     24          6           0       -7.470906   -1.301526   -0.400747
     25          6           0        7.548747    2.794658    0.715974
     26          6           0       -7.851707   -2.727947   -0.678479
     27          6           0        6.133861    0.751613    0.294433
     28          6           0       -6.190657   -0.873317   -0.288746
     29          6           0        4.840217    1.374406    0.388173
     30          6           0       -4.984689   -1.648951   -0.406364
     31          6           0        3.685116    0.693421    0.233234
     32          6           0       -3.752165   -1.114822   -0.276320
     33          6           0        2.354703    1.259431    0.314788
     34          6           0       -2.492469   -1.823492   -0.380837
     35          6           0        2.229184    2.733367    0.595092
     36          6           0       -2.534739   -3.299890   -0.659759
     37          6           0        1.227532    0.518214    0.149313
     38          6           0       -1.344306   -1.116052   -0.221427
     39          6           0        1.139095   -0.891240   -0.122479
     40          6           0        0.002486   -1.612188   -0.285385
     41          1           0       13.885293    0.039708    0.177354
     42          1           0       13.935193   -0.095734   -1.572253
     43          1           0      -12.292235    1.801838    1.993239
     44          1           0      -13.740314    0.818290    1.865080
     45          1           0       14.010918   -2.347153   -0.538513
     46          1           0       12.499945   -2.167915   -1.407306
     47          1           0      -13.951278    2.856698    0.466469
     48          1           0      -13.912062    1.443820   -0.566736
     49          1           0       12.960809   -1.981664    1.597498
     50          1           0       11.908192   -3.081046    0.748317
     51          1           0      -11.673357    3.431015   -0.026111
     52          1           0      -12.378499    3.004326   -1.561346
     53          1           0       11.197440   -0.662901   -2.452247
     54          1           0       12.108129    0.769215   -2.954597
     55          1           0       10.480877    0.935121   -2.282255
     56          1           0       12.682112    2.158521    0.477450
     57          1           0       11.553024    2.658374   -0.791540
     58          1           0       13.215797    2.265562   -1.203415
     59          1           0      -13.421130   -0.734169   -0.644013
     60          1           0      -13.660544   -1.442822    0.960335
     61          1           0      -12.325689   -1.979033   -0.054234
     62          1           0      -10.662180    0.112993    2.582959
     63          1           0      -10.817640   -1.520670    1.940856
     64          1           0      -12.132043   -0.822997    2.890174
     65          1           0       10.003398    1.953652    0.555260
     66          1           0      -10.177598   -1.600910   -0.459301
     67          1           0        9.538486   -0.773091    2.382270
     68          1           0       10.791222   -1.917975    2.890139
     69          1           0        9.589669   -2.403947    1.710510
     70          1           0       -9.317102    1.202309   -2.141893
     71          1           0       -9.362155    2.826490   -1.455535
     72          1           0      -10.494828    2.389609   -2.719748
     73          1           0        8.341637   -0.553676    0.084723
     74          1           0       -8.218188    0.690784   -0.036352
     75          1           0        8.104449    2.933092    1.646641
     76          1           0        6.611186    3.337053    0.803698
     77          1           0        8.132853    3.264119   -0.079662
     78          1           0       -8.438777   -2.797844   -1.597565
     79          1           0       -8.471437   -3.124593    0.129851
     80          1           0       -6.988377   -3.379474   -0.784257
     81          1           0        6.120743   -0.315732    0.088502
     82          1           0       -6.042965    0.184420   -0.085574
     83          1           0        4.799783    2.437192    0.592252
     84          1           0       -5.076777   -2.709040   -0.608873
     85          1           0        3.761606   -0.368638    0.029802
     86          1           0       -3.678294   -0.049426   -0.073257
     87          1           0        2.692315    2.994526    1.550271
     88          1           0        1.184375    3.037817    0.632916
     89          1           0        2.726337    3.325922   -0.177421
     90          1           0       -3.046832   -3.497244   -1.604721
     91          1           0       -3.089150   -3.822298    0.123711
     92          1           0       -1.545725   -3.745354   -0.719216
     93          1           0        0.287811    1.052356    0.232447
     94          1           0       -1.463508   -0.056147   -0.024206
     95          1           0        2.067557   -1.442389   -0.207268
     96          1           0        0.132431   -2.669039   -0.484212
 ---------------------------------------------------------------------

 SCF Done:  E(UwB97XD) =  -1558.09125926     A.U. after   20 cycles

 Alpha virt. eigenvalues --    0.33001   0.33285   0.33495   0.33658   0.33706
 Alpha virt. eigenvalues --    0.34006   0.34089   0.34513   0.34788   0.35050
 Alpha virt. eigenvalues --    0.35299   0.35541   0.35779   0.36159   0.36184

  Beta  occ. eigenvalues --  -10.19961 -10.19926 -10.18386 -10.18325 -10.18300
  Beta  occ. eigenvalues --  -10.18277 -10.18070 -10.18038 -10.17938 -10.17866
  Beta  occ. eigenvalues --  -10.17673 -10.17579 -10.17576 -10.17429 -10.16919
  Beta  occ. eigenvalues --  -10.16876 -10.16790 -10.16787 -10.16246 -10.16231
  Beta  occ. eigenvalues --  -10.15880 -10.15869 -10.15620 -10.15568 -10.15486
  Beta  occ. eigenvalues --  -10.15480 -10.15350 -10.15243 -10.14649 -10.14585
  Beta  occ. eigenvalues --  -10.14450 -10.14351 -10.14273 -10.14128 -10.13671
  Beta  occ. eigenvalues --  -10.13566 -10.13501 -10.13368 -10.13040 -10.12960
  Beta  occ. eigenvalues --   -0.85138  -0.85104  -0.80131  -0.80098  -0.78687
  Beta  occ. eigenvalues --   -0.78655  -0.78589  -0.77971  -0.76724  -0.76459
  Beta  occ. eigenvalues --   -0.74126  -0.72764  -0.71725  -0.70311  -0.69720
  Beta  occ. eigenvalues --   -0.68420  -0.68289  -0.67377  -0.67352  -0.66951
  Beta  occ. eigenvalues --   -0.66916  -0.65913  -0.65501  -0.65412  -0.62925
  Beta  occ. eigenvalues --   -0.60547  -0.60262  -0.57696  -0.57072  -0.55875
  Beta  occ. eigenvalues --   -0.55695  -0.53655  -0.52786  -0.50133  -0.49456
  Beta  occ. eigenvalues --   -0.49441  -0.48730  -0.48478  -0.48238  -0.47180
  Beta  occ. eigenvalues --   -0.46757  -0.45614  -0.44740  -0.44436  -0.44359
  Beta  occ. eigenvalues --   -0.44074  -0.43673  -0.42993  -0.42653  -0.42030
  Beta  occ. eigenvalues --   -0.41870  -0.41569  -0.41431  -0.41194  -0.40307
  Beta  occ. eigenvalues --   -0.39816  -0.39371  -0.38975  -0.38884  -0.38669
  Beta  occ. eigenvalues --   -0.38598  -0.38582  -0.38333  -0.38053  -0.37599
  Beta  occ. eigenvalues --   -0.37590  -0.37416  -0.37312  -0.36981  -0.36219
  Beta  occ. eigenvalues --   -0.36055  -0.35967  -0.35153  -0.34563  -0.34344
  Beta  occ. eigenvalues --   -0.34256  -0.34167  -0.34048  -0.33902  -0.33867
  Beta  occ. eigenvalues --   -0.33265  -0.33174  -0.33033  -0.32805  -0.31671
  Beta  occ. eigenvalues --   -0.31191  -0.31125  -0.31039  -0.30770  -0.30716
  Beta  occ. eigenvalues --   -0.29988  -0.29922  -0.29798  -0.28909  -0.28794
  Beta  occ. eigenvalues --   -0.28581  -0.27733  -0.27627  -0.27258  -0.26181
  Beta  occ. eigenvalues --   -0.25709  -0.24846  -0.22675  -0.21384  -0.20162
  Beta  occ. eigenvalues --   -0.17579  -0.14554  -0.10859
  Beta virt. eigenvalues --    0.07366   0.09435   0.13016   0.14691   0.15558
  Beta virt. eigenvalues --    0.15812   0.16531   0.17574   0.17598   0.18041
  Beta virt. eigenvalues --    0.18571   0.18622   0.19271   0.19433   0.19667

 Mulliken charges and spin densities:
               1          2
     1  C    0.209295   0.004355
     2  C    0.101017   0.004226
     3  C   -0.172798   0.000216
     4  C   -0.170903  -0.000022
     5  C   -0.153706   0.000279
     6  C   -0.151457   0.000244
     7  C    0.016085  -0.020511
     8  C    0.055974  -0.021347
     9  C   -0.152007  -0.001697
    10  C   -0.134377  -0.001542
    11  C   -0.040374   0.028129
    12  C   -0.057273   0.029896
    13  C   -0.396023   0.000289
    14  C   -0.410419  -0.000308
    15  C   -0.381284  -0.000644
    16  C   -0.329008  -0.000025
    17  C   -0.344036   0.111498
    18  C   -0.299296   0.106482
    19  C   -0.380609  -0.001145
    20  C   -0.377997  -0.001503
    21  C   -0.207802  -0.038642
    22  C   -0.230365  -0.038599
    23  C    0.127824   0.128859
    24  C    0.134960   0.125499
    25  C   -0.374605  -0.005208
    26  C   -0.376726  -0.005085
    27  C   -0.138719  -0.048148
    28  C   -0.147378  -0.049326
    29  C   -0.127423   0.135815
    30  C   -0.120451   0.136295
    31  C   -0.143519  -0.013413
    32  C   -0.189659  -0.014231
    33  C    0.059155   0.122586
    34  C    0.080198   0.103872
    35  C   -0.376289  -0.007084
    36  C   -0.384769  -0.002829
    37  C   -0.134716   0.021088
    38  C   -0.053881   0.024104
    39  C   -0.164241   0.084864
    40  C   -0.216777   0.074735
    41  H    0.079069  -0.000018
    42  H    0.084356   0.000113
    43  H    0.081927   0.000040
    44  H    0.082837   0.000317
    45  H    0.076562   0.000015
    46  H    0.082947   0.000023
    47  H    0.077272   0.000005
    48  H    0.080986   0.000046
    49  H    0.082872   0.001508
    50  H    0.089844   0.001510
    51  H    0.081494   0.002144
    52  H    0.080567   0.000570
    53  H    0.105158  -0.000015
    54  H    0.096133  -0.000182
    55  H    0.143645  -0.000063
    56  H    0.118473  -0.000027
    57  H    0.125786   0.000560
    58  H    0.105430  -0.000064
    59  H    0.107935   0.000051
    60  H    0.099859   0.000021
    61  H    0.113310   0.000199
    62  H    0.115323  -0.000033
    63  H    0.126241   0.000306
    64  H    0.098710   0.000234
    65  H    0.131261  -0.004939
    66  H    0.117911  -0.004765
    67  H    0.155058   0.000151
    68  H    0.096703   0.000904
    69  H    0.114480   0.001063
    70  H    0.161726   0.000174
    71  H    0.108996   0.001137
    72  H    0.092582   0.000919
    73  H    0.103193   0.000923
    74  H    0.111849   0.000971
    75  H    0.107502   0.005204
    76  H    0.112827   0.000112
    77  H    0.105007   0.005111
    78  H    0.107551   0.005052
    79  H    0.104579   0.004996
    80  H    0.112555   0.000113
    81  H    0.071085   0.001816
    82  H    0.070657   0.001941
    83  H    0.088788  -0.005849
    84  H    0.087788  -0.005776
    85  H    0.081694   0.000789
    86  H    0.067842  -0.000264
    87  H    0.105190   0.005398
    88  H    0.097245  -0.000166
    89  H    0.105228   0.005425
    90  H    0.108655   0.003739
    91  H    0.108548   0.003777
    92  H    0.105570  -0.000148
    93  H    0.071474  -0.000379
    94  H    0.083805   0.000654
    95  H    0.068349  -0.003129
    96  H    0.051941  -0.004239
 Sum of Mulliken charges =  -1.00000   1.00000

 Dipole moment (field-independent basis, Debye):
    X=             -0.1067    Y=              0.8702    Z=              0.1393  Tot=              0.8877
 Quadrupole moment (field-independent basis, Debye-Ang):
   XX=           -485.3089   YY=           -255.5491   ZZ=           -265.2116
   XY=            -18.3158   XZ=             -7.4536   YZ=              1.3013

 Normal termination of Gaussian 16 at Thu Nov 14 08:29:46 2019.
