 Gaussian 16, Revision A.03,
 Gaussian 16:  ES64L-G16RevA.03 25-Dec-2016

 --------------------------------------------------------
 # wB97XD/Def2TZVP iop(3/107=0106300000,3/108=0106300000)
 --------------------------------------------------------

 -----
 TITLE
 -----
 Symbolic Z-matrix:
 Charge = -1 Multiplicity = 2

                         Standard orientation:
 ---------------------------------------------------------------------
 Center     Atomic      Atomic             Coordinates (Angstroms)
 Number     Number       Type             X           Y           Z
 ---------------------------------------------------------------------
      1          6           0       12.020006    0.506588   -0.801837
      2          6           0      -12.019908   -0.015205    0.878373
      3          6           0       13.320985   -0.310780   -0.704938
      4          6           0      -12.877739    1.190766    1.300439
      5          6           0       13.068422   -1.802556   -0.555884
      6          6           0      -13.315024    2.044440    0.121483
      7          6           0       10.988235    0.027299    0.235394
      8          6           0      -10.936260    0.412387   -0.129756
      9          6           0       12.294026   -2.056608    0.728464
     10          6           0      -12.091702    2.588421   -0.603072
     11          6           0       11.138377   -1.109143    0.941602
     12          6           0      -10.991304    1.573066   -0.810634
     13          6           0       11.413037    0.374729   -2.212531
     14          6           0       12.386548    1.985040   -0.567634
     15          6           0      -12.914132   -1.102023    0.247438
     16          6           0      -11.368478   -0.590450    2.149128
     17          6           0        9.811331    0.900805    0.392729
     18          6           0       -9.859275   -0.575557   -0.313800
     19          6           0       10.213882   -1.555497    2.043349
     20          6           0       -9.985232    1.998078   -1.847570
     21          6           0        8.534234    0.498904    0.297342
     22          6           0       -8.541649   -0.330399   -0.244136
     23          6           0        7.353877    1.338416    0.435245
     24          6           0       -7.475091   -1.307544   -0.400544
     25          6           0        7.553701    2.800658    0.719571
     26          6           0       -7.856367   -2.734593   -0.678495
     27          6           0        6.136094    0.757213    0.299303
     28          6           0       -6.192858   -0.880204   -0.287417
     29          6           0        4.843346    1.379243    0.393838
     30          6           0       -4.987739   -1.655345   -0.403374
     31          6           0        3.686403    0.697976    0.239656
     32          6           0       -3.753377   -1.121409   -0.272429
     33          6           0        2.356515    1.262219    0.321539
     34          6           0       -2.494183   -1.828900   -0.375375
     35          6           0        2.227645    2.736817    0.601514
     36          6           0       -2.533408   -3.306335   -0.653706
     37          6           0        1.228267    0.518920    0.156475
     38          6           0       -1.345138   -1.119403   -0.215132
     39          6           0        1.139052   -0.889340   -0.114265
     40          6           0        0.001487   -1.612276   -0.277467
     41          1           0       13.891829    0.035617    0.162961
     42          1           0       13.934496   -0.104272   -1.585741
     43          1           0      -12.294446    1.812040    1.987745
     44          1           0      -13.743541    0.830894    1.862800
     45          1           0       14.011355   -2.352943   -0.545669
     46          1           0       12.498801   -2.175007   -1.410980
     47          1           0      -13.950508    2.866024    0.458418
     48          1           0      -13.917385    1.449999   -0.569833
     49          1           0       12.967196   -1.983167    1.592271
     50          1           0       11.910873   -3.081957    0.748004
     51          1           0      -11.673024    3.434086   -0.041912
     52          1           0      -12.381141    3.001400   -1.573500
     53          1           0       11.190636   -0.664637   -2.457075
     54          1           0       12.104539    0.763008   -2.964253
     55          1           0       10.480399    0.935696   -2.287635
     56          1           0       12.693124    2.157029    0.466126
     57          1           0       11.560479    2.658257   -0.798373
     58          1           0       13.220333    2.262099   -1.216313
     59          1           0      -13.425586   -0.733945   -0.642156
     60          1           0      -13.668429   -1.434654    0.964563
     61          1           0      -12.333877   -1.978126   -0.045608
     62          1           0      -10.666395    0.122669    2.584627
     63          1           0      -10.822474   -1.512624    1.948117
     64          1           0      -12.136243   -0.811297    2.894442
     65          1           0       10.010522    1.955160    0.550598
     66          1           0      -10.183856   -1.602172   -0.455774
     67          1           0        9.547362   -0.767728    2.385028
     68          1           0       10.803173   -1.907117    2.895286
     69          1           0        9.599155   -2.402067    1.722443
     70          1           0       -9.320681    1.193089   -2.149589
     71          1           0       -9.367817    2.822734   -1.477037
     72          1           0      -10.501094    2.372794   -2.735659
     73          1           0        8.342296   -0.549123    0.088519
     74          1           0       -8.218794    0.685535   -0.039394
     75          1           0        8.111369    2.939441    1.648831
     76          1           0        6.616390    3.342694    0.809822
     77          1           0        8.135170    3.270836   -0.077353
     78          1           0       -8.443481   -2.804643   -1.597362
     79          1           0       -8.475408   -3.131846    0.129840
     80          1           0       -6.993268   -3.386030   -0.784801
     81          1           0        6.122979   -0.309937    0.093570
     82          1           0       -6.045297    0.177380   -0.084589
     83          1           0        4.802891    2.441787    0.597770
     84          1           0       -5.079780   -2.715259   -0.605395
     85          1           0        3.763025   -0.363851    0.036262
     86          1           0       -3.680028   -0.056137   -0.069823
     87          1           0        2.689665    2.999572    1.556635
     88          1           0        1.182430    3.039290    0.639185
     89          1           0        2.723199    3.330483   -0.170971
     90          1           0       -3.043628   -3.505559   -1.599106
     91          1           0       -3.087123   -3.829768    0.129350
     92          1           0       -1.543590   -3.749763   -0.711877
     93          1           0        0.288836    1.053093    0.239715
     94          1           0       -1.466233   -0.059788   -0.018652
     95          1           0        2.067118   -1.440961   -0.198447
     96          1           0        0.133859   -2.668837   -0.475363
 ---------------------------------------------------------------------

 SCF Done:  E(UwB97XD) =  -1558.16658167     A.U. after   20 cycles

 Alpha virt. eigenvalues --    0.32732   0.33032   0.33186   0.33404   0.33458
 Alpha virt. eigenvalues --    0.33747   0.33850   0.34217   0.34470   0.34773
 Alpha virt. eigenvalues --    0.34993   0.35269   0.35470   0.35831   0.36036

  Beta  occ. eigenvalues --  -10.19105 -10.19072 -10.17507 -10.17441 -10.17420
  Beta  occ. eigenvalues --  -10.17396 -10.17191 -10.17158 -10.17036 -10.16965
  Beta  occ. eigenvalues --  -10.16786 -10.16695 -10.16694 -10.16550 -10.16039
  Beta  occ. eigenvalues --  -10.15994 -10.15904 -10.15902 -10.15318 -10.15304
  Beta  occ. eigenvalues --  -10.15019 -10.15006 -10.14767 -10.14706 -10.14589
  Beta  occ. eigenvalues --  -10.14588 -10.14440 -10.14335 -10.13865 -10.13799
  Beta  occ. eigenvalues --  -10.13632 -10.13586 -10.13436 -10.13391 -10.12877
  Beta  occ. eigenvalues --  -10.12783 -10.12707 -10.12592 -10.12305 -10.12228
  Beta  occ. eigenvalues --   -0.84089  -0.84055  -0.79136  -0.79097  -0.77724
  Beta  occ. eigenvalues --   -0.77636  -0.77608  -0.77029  -0.75734  -0.75476
  Beta  occ. eigenvalues --   -0.73203  -0.71804  -0.70776  -0.69357  -0.68795
  Beta  occ. eigenvalues --   -0.67458  -0.67328  -0.66409  -0.66386  -0.65981
  Beta  occ. eigenvalues --   -0.65946  -0.65058  -0.64563  -0.64459  -0.62027
  Beta  occ. eigenvalues --   -0.59610  -0.59315  -0.56810  -0.56161  -0.54934
  Beta  occ. eigenvalues --   -0.54753  -0.52770  -0.51887  -0.49271  -0.48553
  Beta  occ. eigenvalues --   -0.48540  -0.47842  -0.47543  -0.47293  -0.46259
  Beta  occ. eigenvalues --   -0.45822  -0.44731  -0.43830  -0.43513  -0.43434
  Beta  occ. eigenvalues --   -0.43169  -0.42781  -0.42105  -0.41757  -0.41130
  Beta  occ. eigenvalues --   -0.40978  -0.40682  -0.40525  -0.40317  -0.39450
  Beta  occ. eigenvalues --   -0.38948  -0.38494  -0.38092  -0.38006  -0.37807
  Beta  occ. eigenvalues --   -0.37726  -0.37706  -0.37475  -0.37182  -0.36799
  Beta  occ. eigenvalues --   -0.36747  -0.36617  -0.36474  -0.36126  -0.35398
  Beta  occ. eigenvalues --   -0.35231  -0.35129  -0.34330  -0.33743  -0.33496
  Beta  occ. eigenvalues --   -0.33430  -0.33322  -0.33219  -0.33070  -0.33034
  Beta  occ. eigenvalues --   -0.32426  -0.32334  -0.32220  -0.31974  -0.30859
  Beta  occ. eigenvalues --   -0.30377  -0.30338  -0.30217  -0.29982  -0.29906
  Beta  occ. eigenvalues --   -0.29146  -0.29084  -0.29006  -0.28148  -0.27959
  Beta  occ. eigenvalues --   -0.27721  -0.26921  -0.26818  -0.26439  -0.25497
  Beta  occ. eigenvalues --   -0.24871  -0.24002  -0.21876  -0.20584  -0.19392
  Beta  occ. eigenvalues --   -0.16867  -0.13892  -0.10272
  Beta virt. eigenvalues --    0.06941   0.09075   0.12586   0.14309   0.15408
  Beta virt. eigenvalues --    0.15720   0.16189   0.17525   0.17550   0.17671
  Beta virt. eigenvalues --    0.18505   0.18552   0.19187   0.19320   0.19562

 Mulliken charges and spin densities:
               1          2
     1  C    0.197708   0.004471
     2  C    0.088792   0.004201
     3  C   -0.162893   0.000219
     4  C   -0.160586  -0.000029
     5  C   -0.144544   0.000309
     6  C   -0.142909   0.000274
     7  C    0.012468  -0.020423
     8  C    0.053148  -0.021242
     9  C   -0.145573  -0.001831
    10  C   -0.127746  -0.001648
    11  C   -0.037634   0.028590
    12  C   -0.054302   0.030364
    13  C   -0.387492   0.000271
    14  C   -0.403109  -0.000350
    15  C   -0.372203  -0.000638
    16  C   -0.321543   0.000047
    17  C   -0.349439   0.112594
    18  C   -0.305647   0.107339
    19  C   -0.373788  -0.001136
    20  C   -0.371947  -0.001506
    21  C   -0.202640  -0.037664
    22  C   -0.225144  -0.037653
    23  C    0.121761   0.126868
    24  C    0.129211   0.123612
    25  C   -0.368833  -0.005236
    26  C   -0.370944  -0.005129
    27  C   -0.132843  -0.044097
    28  C   -0.141463  -0.045464
    29  C   -0.130839   0.131940
    30  C   -0.124090   0.132438
    31  C   -0.138979  -0.010069
    32  C   -0.184265  -0.010630
    33  C    0.052203   0.118296
    34  C    0.075941   0.099725
    35  C   -0.369618  -0.006765
    36  C   -0.379656  -0.002610
    37  C   -0.131084   0.023600
    38  C   -0.049579   0.026659
    39  C   -0.163780   0.083546
    40  C   -0.217945   0.072741
    41  H    0.076316  -0.000020
    42  H    0.081018   0.000116
    43  H    0.079061   0.000043
    44  H    0.079466   0.000325
    45  H    0.071927   0.000012
    46  H    0.080475   0.000015
    47  H    0.072674   0.000002
    48  H    0.078593   0.000042
    49  H    0.079827   0.001560
    50  H    0.086319   0.001565
    51  H    0.078273   0.002213
    52  H    0.077175   0.000585
    53  H    0.103430  -0.000014
    54  H    0.093898  -0.000180
    55  H    0.142521  -0.000059
    56  H    0.116641  -0.000021
    57  H    0.124338   0.000558
    58  H    0.103447  -0.000065
    59  H    0.106349   0.000053
    60  H    0.097634   0.000030
    61  H    0.111022   0.000208
    62  H    0.113322  -0.000036
    63  H    0.125667   0.000277
    64  H    0.096649   0.000240
    65  H    0.133305  -0.005250
    66  H    0.120410  -0.005013
    67  H    0.154355   0.000133
    68  H    0.094295   0.000953
    69  H    0.111554   0.001098
    70  H    0.161178   0.000159
    71  H    0.106008   0.001168
    72  H    0.090245   0.000966
    73  H    0.102363   0.000846
    74  H    0.111007   0.000904
    75  H    0.105654   0.005170
    76  H    0.109935   0.000082
    77  H    0.103368   0.005112
    78  H    0.105699   0.005021
    79  H    0.102846   0.005002
    80  H    0.109714   0.000084
    81  H    0.068746   0.001678
    82  H    0.068591   0.001834
    83  H    0.092010  -0.006067
    84  H    0.090707  -0.005964
    85  H    0.082198   0.000765
    86  H    0.066117  -0.000471
    87  H    0.103973   0.005263
    88  H    0.094855  -0.000168
    89  H    0.104003   0.005283
    90  H    0.107271   0.003636
    91  H    0.107171   0.003672
    92  H    0.103563  -0.000223
    93  H    0.071650  -0.000454
    94  H    0.084018   0.000702
    95  H    0.067328  -0.003016
    96  H    0.051652  -0.004340
 Sum of Mulliken charges =  -1.00000   1.00000

 Dipole moment (field-independent basis, Debye):
    X=             -0.1032    Y=              0.8477    Z=              0.1182  Tot=              0.8621
 Quadrupole moment (field-independent basis, Debye-Ang):
   XX=           -488.0882   YY=           -254.8622   ZZ=           -264.5782
   XY=            -18.0394   XZ=             -7.5641   YZ=              1.3400

 Normal termination of Gaussian 16 at Fri Nov 15 19:21:58 2019.
