 Gaussian 16, Revision A.03,
 Gaussian 16:  ES64L-G16RevA.03 25-Dec-2016

 --------------------------------------------------------
 # wB97XD/Def2TZVP iop(3/107=0100000000,3/108=0100000000)
 --------------------------------------------------------

 -----
 TITLE
 -----
 Symbolic Z-matrix:
 Charge = -1 Multiplicity = 2

                         Standard orientation:
 ---------------------------------------------------------------------
 Center     Atomic      Atomic             Coordinates (Angstroms)
 Number     Number       Type             X           Y           Z
 ---------------------------------------------------------------------
      1          6           0       12.020219    0.505528   -0.805665
      2          6           0      -12.020787   -0.012661    0.878931
      3          6           0       13.321296   -0.312640   -0.710149
      4          6           0      -12.877855    1.194933    1.299440
      5          6           0       13.068517   -1.804368   -0.558482
      6          6           0      -13.315392    2.047257    0.119272
      7          6           0       10.989536    0.027576    0.234039
      8          6           0      -10.937114    0.412601   -0.130961
      9          6           0       12.295840   -2.056542    0.727581
     10          6           0      -12.092106    2.588754   -0.607750
     11          6           0       11.140798   -1.108145    0.941698
     12          6           0      -10.992465    1.572011   -0.814499
     13          6           0       11.410704    0.372721   -2.215658
     14          6           0       12.388212    1.984394   -0.573257
     15          6           0      -12.916291   -1.100281    0.250069
     16          6           0      -11.368992   -0.586205    2.150800
     17          6           0        9.813047    0.901668    0.392099
     18          6           0       -9.860756   -0.576333   -0.314040
     19          6           0       10.218579   -1.552415    2.046577
     20          6           0       -9.987848    1.993950   -1.854479
     21          6           0        8.535161    0.500577    0.298526
     22          6           0       -8.542495   -0.332386   -0.244811
     23          6           0        7.355343    1.340502    0.436902
     24          6           0       -7.476585   -1.310098   -0.400633
     25          6           0        7.555370    2.803116    0.720761
     26          6           0       -7.858104   -2.737365   -0.678749
     27          6           0        6.136840    0.759327    0.301682
     28          6           0       -6.193670   -0.883132   -0.286972
     29          6           0        4.844326    1.381052    0.396448
     30          6           0       -4.988806   -1.658140   -0.402223
     31          6           0        3.686797    0.699590    0.242706
     32          6           0       -3.753835   -1.124289   -0.270753
     33          6           0        2.356989    1.263125    0.324575
     34          6           0       -2.494727   -1.831325   -0.373024
     35          6           0        2.226832    2.738022    0.604212
     36          6           0       -2.532778   -3.309128   -0.651319
     37          6           0        1.228446    0.519011    0.159678
     38          6           0       -1.345468   -1.121040   -0.212287
     39          6           0        1.139005   -0.888907   -0.110557
     40          6           0        0.001199   -1.612633   -0.273892
     41          1           0       13.894105    0.034654    0.155950
     42          1           0       13.933236   -0.107802   -1.592326
     43          1           0      -12.294027    1.816873    1.985506
     44          1           0      -13.743628    0.836733    1.862751
     45          1           0       14.011369   -2.354835   -0.548770
     46          1           0       12.497812   -2.178122   -1.412167
     47          1           0      -13.949473    2.870131    0.455593
     48          1           0      -13.919336    1.452576   -0.570312
     49          1           0       12.970436   -1.982791    1.590166
     50          1           0       11.912278   -3.081648    0.748712
     51          1           0      -11.672179    3.435150   -0.048747
     52          1           0      -12.382305    3.000178   -1.578536
     53          1           0       11.186699   -0.666563   -2.458701
     54          1           0       12.101304    0.759233   -2.969002
     55          1           0       10.478679    0.934613   -2.290061
     56          1           0       12.696886    2.157113    0.459664
     57          1           0       11.562246    2.657966   -0.802881
     58          1           0       13.220842    2.260578   -1.223654
     59          1           0      -13.427384   -0.733640   -0.640223
     60          1           0      -13.670928   -1.430805    0.967686
     61          1           0      -12.337000   -1.977499   -0.041193
     62          1           0      -10.666631    0.127270    2.585036
     63          1           0      -10.823384   -1.508813    1.951243
     64          1           0      -12.136428   -0.805672    2.896747
     65          1           0       10.013005    1.955991    0.548452
     66          1           0      -10.186186   -1.602733   -0.454753
     67          1           0        9.551815   -0.764494    2.387124
     68          1           0       10.809694   -1.900594    2.898615
     69          1           0        9.604362   -2.400731    1.729521
     70          1           0       -9.322000    1.188913   -2.153117
     71          1           0       -9.371915    2.821785   -1.488775
     72          1           0      -10.505172    2.363020   -2.744052
     73          1           0        8.342455   -0.547350    0.090556
     74          1           0       -8.218902    0.683340   -0.040814
     75          1           0        8.113957    2.942295    1.649337
     76          1           0        6.618155    3.345006    0.812016
     77          1           0        8.135649    3.273378   -0.076892
     78          1           0       -8.445375   -2.807375   -1.597443
     79          1           0       -8.476749   -3.134917    0.129653
     80          1           0       -6.995121   -3.388770   -0.785465
     81          1           0        6.123703   -0.307797    0.096294
     82          1           0       -6.046084    0.174374   -0.084238
     83          1           0        4.803854    2.443539    0.600100
     84          1           0       -5.080847   -2.717959   -0.604164
     85          1           0        3.763492   -0.362181    0.039538
     86          1           0       -3.680670   -0.059085   -0.068239
     87          1           0        2.688485    3.001536    1.559236
     88          1           0        1.181464    3.039745    0.641849
     89          1           0        2.721707    3.331992   -0.168394
     90          1           0       -3.042168   -3.508925   -1.596973
     91          1           0       -3.086327   -3.833040    0.131443
     92          1           0       -1.542656   -3.751791   -0.708943
     93          1           0        0.289076    1.053126    0.242806
     94          1           0       -1.467269   -0.061554   -0.016014
     95          1           0        2.066975   -1.440623   -0.194410
     96          1           0        0.134536   -2.669088   -0.471362
 ---------------------------------------------------------------------

 SCF Done:  E(UwB97XD) =  -1558.19782993     A.U. after   19 cycles

 Alpha virt. eigenvalues --    0.32637   0.32943   0.33076   0.33314   0.33371
 Alpha virt. eigenvalues --    0.33657   0.33761   0.34114   0.34356   0.34683
 Alpha virt. eigenvalues --    0.34886   0.35174   0.35362   0.35717   0.35989

  Beta  occ. eigenvalues --  -10.18816 -10.18783 -10.17210 -10.17142 -10.17122
  Beta  occ. eigenvalues --  -10.17097 -10.16893 -10.16860 -10.16731 -10.16660
  Beta  occ. eigenvalues --  -10.16486 -10.16397 -10.16395 -10.16253 -10.15741
  Beta  occ. eigenvalues --  -10.15696 -10.15605 -10.15603 -10.15003 -10.14988
  Beta  occ. eigenvalues --  -10.14728 -10.14715 -10.14478 -10.14415 -10.14283
  Beta  occ. eigenvalues --  -10.14282 -10.14130 -10.14026 -10.13599 -10.13532
  Beta  occ. eigenvalues --  -10.13377 -10.13302 -10.13166 -10.13125 -10.12606
  Beta  occ. eigenvalues --  -10.12515 -10.12437 -10.12326 -10.12053 -10.11977
  Beta  occ. eigenvalues --   -0.83733  -0.83700  -0.78798  -0.78758  -0.77404
  Beta  occ. eigenvalues --   -0.77291  -0.77268  -0.76709  -0.75399  -0.75142
  Beta  occ. eigenvalues --   -0.72889  -0.71478  -0.70455  -0.69033  -0.68480
  Beta  occ. eigenvalues --   -0.67133  -0.67003  -0.66082  -0.66060  -0.65653
  Beta  occ. eigenvalues --   -0.65618  -0.64767  -0.64245  -0.64136  -0.61721
  Beta  occ. eigenvalues --   -0.59292  -0.58993  -0.56508  -0.55851  -0.54613
  Beta  occ. eigenvalues --   -0.54432  -0.52467  -0.51580  -0.48975  -0.48245
  Beta  occ. eigenvalues --   -0.48232  -0.47538  -0.47222  -0.46970  -0.45943
  Beta  occ. eigenvalues --   -0.45501  -0.44428  -0.43518  -0.43196  -0.43116
  Beta  occ. eigenvalues --   -0.42858  -0.42474  -0.41799  -0.41449  -0.40820
  Beta  occ. eigenvalues --   -0.40672  -0.40378  -0.40215  -0.40015  -0.39155
  Beta  occ. eigenvalues --   -0.38648  -0.38192  -0.37788  -0.37705  -0.37511
  Beta  occ. eigenvalues --   -0.37426  -0.37405  -0.37179  -0.36882  -0.36523
  Beta  occ. eigenvalues --   -0.36455  -0.36341  -0.36184  -0.35831  -0.35115
  Beta  occ. eigenvalues --   -0.34947  -0.34840  -0.34045  -0.33460  -0.33203
  Beta  occ. eigenvalues --   -0.33144  -0.33029  -0.32932  -0.32783  -0.32746
  Beta  occ. eigenvalues --   -0.32136  -0.32043  -0.31938  -0.31686  -0.30577
  Beta  occ. eigenvalues --   -0.30100  -0.30059  -0.29932  -0.29708  -0.29623
  Beta  occ. eigenvalues --   -0.28855  -0.28795  -0.28727  -0.27882  -0.27669
  Beta  occ. eigenvalues --   -0.27423  -0.26638  -0.26536  -0.26153  -0.25256
  Beta  occ. eigenvalues --   -0.24577  -0.23706  -0.21594  -0.20302  -0.19120
  Beta  occ. eigenvalues --   -0.16613  -0.13656  -0.10063
  Beta virt. eigenvalues --    0.06792   0.08946   0.12431   0.14165   0.15338
  Beta virt. eigenvalues --    0.15689   0.16078   0.17479   0.17520   0.17568
  Beta virt. eigenvalues --    0.18480   0.18526   0.19151   0.19278   0.19522

 Mulliken charges and spin densities:
               1          2
     1  C    0.193493   0.004511
     2  C    0.084448   0.004195
     3  C   -0.159073   0.000220
     4  C   -0.156679  -0.000032
     5  C   -0.141064   0.000319
     6  C   -0.139638   0.000285
     7  C    0.010835  -0.020384
     8  C    0.051735  -0.021193
     9  C   -0.142987  -0.001880
    10  C   -0.125249  -0.001685
    11  C   -0.036722   0.028722
    12  C   -0.053069   0.030482
    13  C   -0.384095   0.000266
    14  C   -0.400228  -0.000362
    15  C   -0.368595  -0.000636
    16  C   -0.318606   0.000075
    17  C   -0.351272   0.113008
    18  C   -0.307892   0.107686
    19  C   -0.370855  -0.001129
    20  C   -0.369349  -0.001502
    21  C   -0.200558  -0.037384
    22  C   -0.223138  -0.037389
    23  C    0.119433   0.126259
    24  C    0.126996   0.123043
    25  C   -0.366505  -0.005257
    26  C   -0.368608  -0.005156
    27  C   -0.130628  -0.042782
    28  C   -0.139210  -0.044205
    29  C   -0.132126   0.130696
    30  C   -0.125456   0.131182
    31  C   -0.137345  -0.009016
    32  C   -0.182228  -0.009469
    33  C    0.049591   0.116903
    34  C    0.074287   0.098383
    35  C   -0.366943  -0.006660
    36  C   -0.377575  -0.002545
    37  C   -0.129723   0.024419
    38  C   -0.048042   0.027495
    39  C   -0.163519   0.083134
    40  C   -0.218371   0.072085
    41  H    0.075246  -0.000020
    42  H    0.079724   0.000118
    43  H    0.077960   0.000045
    44  H    0.078163   0.000328
    45  H    0.070154   0.000011
    46  H    0.079521   0.000012
    47  H    0.070913   0.000001
    48  H    0.077658   0.000040
    49  H    0.078637   0.001576
    50  H    0.084931   0.001583
    51  H    0.077041   0.002233
    52  H    0.075890   0.000588
    53  H    0.102724  -0.000013
    54  H    0.093007  -0.000179
    55  H    0.142049  -0.000059
    56  H    0.115890  -0.000019
    57  H    0.123767   0.000554
    58  H    0.102645  -0.000065
    59  H    0.105702   0.000053
    60  H    0.096747   0.000034
    61  H    0.110081   0.000212
    62  H    0.112502  -0.000037
    63  H    0.125427   0.000264
    64  H    0.095822   0.000242
    65  H    0.134062  -0.005367
    66  H    0.121371  -0.005108
    67  H    0.154022   0.000124
    68  H    0.093322   0.000972
    69  H    0.110354   0.001108
    70  H    0.160909   0.000151
    71  H    0.104757   0.001175
    72  H    0.089361   0.000984
    73  H    0.102009   0.000820
    74  H    0.110661   0.000881
    75  H    0.104906   0.005157
    76  H    0.108789   0.000073
    77  H    0.102698   0.005114
    78  H    0.104947   0.005010
    79  H    0.102142   0.005007
    80  H    0.108587   0.000076
    81  H    0.067857   0.001631
    82  H    0.067803   0.001797
    83  H    0.093237  -0.006148
    84  H    0.091821  -0.006034
    85  H    0.082371   0.000758
    86  H    0.065440  -0.000539
    87  H    0.103437   0.005216
    88  H    0.093891  -0.000169
    89  H    0.103464   0.005236
    90  H    0.106674   0.003604
    91  H    0.106575   0.003638
    92  H    0.102752  -0.000247
    93  H    0.071693  -0.000484
    94  H    0.084045   0.000718
    95  H    0.066869  -0.002982
    96  H    0.051503  -0.004376
 Sum of Mulliken charges =  -1.00000   1.00000

 Dipole moment (field-independent basis, Debye):
    X=             -0.1026    Y=              0.8415    Z=              0.1092  Tot=              0.8548
 Quadrupole moment (field-independent basis, Debye-Ang):
   XX=           -488.9487   YY=           -254.6208   ZZ=           -264.3466
   XY=            -17.9475   XZ=             -7.6068   YZ=              1.3498

 Normal termination of Gaussian 16 at Tue Nov 12 07:58:19 2019.
