 Gaussian 16, Revision A.03,
 Gaussian 16:  ES64L-G16RevA.03 25-Dec-2016

 --------------------------------------------------------
 # wB97XD/Def2TZVP iop(3/107=0050000000,3/108=0050000000)
 --------------------------------------------------------

 -----
 TITLE
 -----
 Symbolic Z-matrix:
 Charge = -1 Multiplicity = 2

                         Standard orientation:
 ---------------------------------------------------------------------
 Center     Atomic      Atomic             Coordinates (Angstroms)
 Number     Number       Type             X           Y           Z
 ---------------------------------------------------------------------
      1          6           0      -12.003693   -0.492534   -0.864118
      2          6           0       12.013705   -0.041093    0.895638
      3          6           0      -13.309076    0.328647   -0.787403
      4          6           0       12.852821   -1.277887    1.281351
      5          6           0      -13.062021    1.818300   -0.588031
      6          6           0       13.300204   -2.093119    0.075677
      7          6           0      -10.998345   -0.037090    0.217275
      8          6           0       10.939318   -0.414588   -0.151984
      9          6           0      -12.320826    2.038690    0.725125
     10          6           0       12.082711   -2.585720   -0.699397
     11          6           0      -11.170119    1.082526    0.948220
     12          6           0       10.997921   -1.544956   -0.885001
     13          6           0      -11.353390   -0.331956   -2.257900
     14          6           0      -12.382956   -1.979146   -0.671841
     15          6           0       12.933695    1.064180    0.323858
     16          6           0       11.346753    0.488809    2.183859
     17          6           0       -9.825613   -0.918044    0.390400
     18          6           0        9.873876    0.593313   -0.316502
     19          6           0      -10.279385    1.498056    2.093862
     20          6           0       10.013414   -1.909167   -1.969677
     21          6           0       -8.541888   -0.525583    0.308085
     22          6           0        8.550232    0.365241   -0.250413
     23          6           0       -7.364238   -1.367125    0.459227
     24          6           0        7.490660    1.352293   -0.392896
     25          6           0       -7.564585   -2.831141    0.752613
     26          6           0        7.877462    2.783154   -0.662487
     27          6           0       -6.141305   -0.785277    0.326353
     28          6           0        6.202203    0.929452   -0.277135
     29          6           0       -4.847769   -1.400376    0.429791
     30          6           0        4.997986    1.704254   -0.381477
     31          6           0       -3.687493   -0.715368    0.277287
     32          6           0        3.758928    1.169476   -0.248733
     33          6           0       -2.355282   -1.267805    0.364785
     34          6           0        2.497619    1.870586   -0.341872
     35          6           0       -2.208724   -2.744235    0.648348
     36          6           0        2.521827    3.353396   -0.613562
     37          6           0       -1.226938   -0.513720    0.201242
     38          6           0        1.349391    1.149532   -0.179266
     39          6           0       -1.138021    0.892065   -0.067716
     40          6           0       -0.000674    1.625248   -0.233038
     41          1           0      -13.909892   -0.039785    0.049143
     42          1           0      -13.894250    0.150010   -1.692245
     43          1           0       12.253525   -1.917996    1.934958
     44          1           0       13.714434   -0.954119    1.869915
     45          1           0      -14.006496    2.365873   -0.585980
     46          1           0      -12.473660    2.217752   -1.416611
     47          1           0       13.911819   -2.939756    0.393852
     48          1           0       13.930513   -1.485873   -0.577009
     49          1           0      -13.017631    1.947187    1.567331
     50          1           0      -11.938603    3.062574    0.778716
     51          1           0       11.640775   -3.449149   -0.186422
     52          1           0       12.388818   -2.959998   -1.679656
     53          1           0      -11.112970    0.709484   -2.470643
     54          1           0      -12.025749   -0.692585   -3.039139
     55          1           0      -10.425979   -0.900886   -2.322498
     56          1           0      -12.724786   -2.172175    0.346226
     57          1           0      -11.552280   -2.650200   -0.887535
     58          1           0      -13.194406   -2.242203   -1.352684
     59          1           0       13.446651    0.733038   -0.578298
     60          1           0       13.687680    1.349549    1.060309
     61          1           0       12.371911    1.963098    0.070054
     62          1           0       10.632623   -0.233679    2.580558
     63          1           0       10.812590    1.423039    2.014659
     64          1           0       12.103571    0.671923    2.949319
     65          1           0      -10.034109   -1.969552    0.547602
     66          1           0       10.212843    1.616278   -0.440468
     67          1           0       -9.611287    0.707087    2.421890
     68          1           0      -10.894496    1.805106    2.944300
     69          1           0       -9.669410    2.365314    1.825045
     70          1           0        9.342055   -1.095357   -2.225627
     71          1           0        9.404065   -2.767960   -1.672044
     72          1           0       10.549517   -2.209295   -2.873764
     73          1           0       -8.343445    0.519765    0.097885
     74          1           0        8.217718   -0.649442   -0.061149
     75          1           0       -8.131589   -2.965848    1.676217
     76          1           0       -6.627751   -3.369717    0.858710
     77          1           0       -8.133049   -3.310520   -0.047426
     78          1           0        8.463978    2.858368   -1.580735
     79          1           0        8.495549    3.175671    0.148095
     80          1           0        7.017011    3.437448   -0.765641
     81          1           0       -6.130362    0.279851    0.114675
     82          1           0        6.054010   -0.128638   -0.082214
     83          1           0       -4.804401   -2.460585    0.638622
     84          1           0        5.089271    2.764275   -0.576468
     85          1           0       -3.767853    0.344200    0.068658
     86          1           0        3.689215    0.103629   -0.052661
     87          1           0       -2.665981   -3.011520    1.603973
     88          1           0       -1.160885   -3.035452    0.687281
     89          1           0       -2.695212   -3.346277   -0.122717
     90          1           0        3.023951    3.563627   -1.560297
     91          1           0        3.071832    3.879559    0.169543
     92          1           0        1.528096    3.787221   -0.665103
     93          1           0       -0.286888   -1.044357    0.287179
     94          1           0        1.481443    0.091102    0.011262
     95          1           0       -2.066119    1.442970   -0.149206
     96          1           0       -0.146225    2.680203   -0.427019
 ---------------------------------------------------------------------

 SCF Done:  E(UwB97XD) =  -1558.58125244     A.U. after   19 cycles

 Alpha virt. eigenvalues --    0.31742   0.32087   0.32187   0.32519   0.32562
 Alpha virt. eigenvalues --    0.32832   0.32905   0.33216   0.33336   0.33863
 Alpha virt. eigenvalues --    0.33997   0.34346   0.34451   0.34743   0.35228

  Beta  occ. eigenvalues --  -10.16551 -10.16527 -10.14862 -10.14782 -10.14779
  Beta  occ. eigenvalues --  -10.14752 -10.14538 -10.14510 -10.14321 -10.14265
  Beta  occ. eigenvalues --  -10.14106 -10.14048 -10.14032 -10.13908 -10.13390
  Beta  occ. eigenvalues --  -10.13335 -10.13262 -10.13249 -10.12498 -10.12469
  Beta  occ. eigenvalues --  -10.12421 -10.12397 -10.12163 -10.12086 -10.11825
  Beta  occ. eigenvalues --  -10.11817 -10.11658 -10.11582 -10.11444 -10.11379
  Beta  occ. eigenvalues --  -10.11304 -10.11099 -10.10952 -10.10796 -10.10381
  Beta  occ. eigenvalues --  -10.10301 -10.10218 -10.10136 -10.09959 -10.09888
  Beta  occ. eigenvalues --   -0.80900  -0.80879  -0.76094  -0.76037  -0.74826
  Beta  occ. eigenvalues --   -0.74557  -0.74539  -0.74117  -0.72727  -0.72483
  Beta  occ. eigenvalues --   -0.70347  -0.68873  -0.67878  -0.66452  -0.65954
  Beta  occ. eigenvalues --   -0.64565  -0.64441  -0.63490  -0.63489  -0.63051
  Beta  occ. eigenvalues --   -0.63024  -0.62397  -0.61695  -0.61553  -0.59234
  Beta  occ. eigenvalues --   -0.56745  -0.56418  -0.54070  -0.53346  -0.52044
  Beta  occ. eigenvalues --   -0.51868  -0.50003  -0.49085  -0.46547  -0.45746
  Beta  occ. eigenvalues --   -0.45722  -0.45056  -0.44613  -0.44362  -0.43367
  Beta  occ. eigenvalues --   -0.42873  -0.41945  -0.40958  -0.40616  -0.40537
  Beta  occ. eigenvalues --   -0.40332  -0.39963  -0.39304  -0.38938  -0.38298
  Beta  occ. eigenvalues --   -0.38167  -0.37893  -0.37689  -0.37526  -0.36714
  Beta  occ. eigenvalues --   -0.36190  -0.35728  -0.35309  -0.35240  -0.35106
  Beta  occ. eigenvalues --   -0.34968  -0.34947  -0.34769  -0.34419  -0.34221
  Beta  occ. eigenvalues --   -0.34052  -0.34040  -0.33788  -0.33397  -0.32778
  Beta  occ. eigenvalues --   -0.32599  -0.32493  -0.31676  -0.31098  -0.30783
  Beta  occ. eigenvalues --   -0.30781  -0.30613  -0.30550  -0.30393  -0.30360
  Beta  occ. eigenvalues --   -0.29726  -0.29648  -0.29564  -0.29307  -0.28212
  Beta  occ. eigenvalues --   -0.27807  -0.27692  -0.27566  -0.27373  -0.27237
  Beta  occ. eigenvalues --   -0.26472  -0.26407  -0.26344  -0.25603  -0.25237
  Beta  occ. eigenvalues --   -0.24937  -0.24246  -0.24161  -0.23731  -0.23146
  Beta  occ. eigenvalues --   -0.22081  -0.21160  -0.19143  -0.17899  -0.16793
  Beta  occ. eigenvalues --   -0.14372  -0.11538  -0.08156
  Beta virt. eigenvalues --    0.05484   0.07748   0.11031   0.12771   0.14168
  Beta virt. eigenvalues --    0.15292   0.15360   0.16107   0.17225   0.17247
  Beta virt. eigenvalues --    0.18106   0.18128   0.18406   0.18798   0.18958

 Mulliken charges and spin densities:
               1          2
     1  C    0.157118   0.004808
     2  C    0.046505   0.004261
     3  C   -0.116290   0.000233
     4  C   -0.113364  -0.000052
     5  C   -0.102151   0.000384
     6  C   -0.103057   0.000375
     7  C   -0.013302  -0.019204
     8  C    0.032539  -0.020381
     9  C   -0.113460  -0.002196
    10  C   -0.096727  -0.001936
    11  C   -0.028129   0.027600
    12  C   -0.042029   0.029873
    13  C   -0.345093   0.000246
    14  C   -0.368010  -0.000329
    15  C   -0.327416  -0.000643
    16  C   -0.286043   0.000347
    17  C   -0.367056   0.116931
    18  C   -0.328472   0.111432
    19  C   -0.332660  -0.000907
    20  C   -0.335180  -0.001346
    21  C   -0.171031  -0.036839
    22  C   -0.193618  -0.036789
    23  C    0.094578   0.123696
    24  C    0.101701   0.120419
    25  C   -0.338290  -0.005693
    26  C   -0.340309  -0.005607
    27  C   -0.107574  -0.034540
    28  C   -0.114927  -0.035782
    29  C   -0.143910   0.123204
    30  C   -0.138688   0.123049
    31  C   -0.122641  -0.002839
    32  C   -0.161093  -0.001735
    33  C    0.024948   0.108104
    34  C    0.057757   0.089642
    35  C   -0.335018  -0.005943
    36  C   -0.351867  -0.002230
    37  C   -0.115845   0.029862
    38  C   -0.034416   0.033776
    39  C   -0.158269   0.081265
    40  C   -0.221227   0.067321
    41  H    0.062511  -0.000027
    42  H    0.064923   0.000136
    43  H    0.065066   0.000052
    44  H    0.063342   0.000352
    45  H    0.050628  -0.000001
    46  H    0.068156  -0.000020
    47  H    0.051546  -0.000013
    48  H    0.066432   0.000015
    49  H    0.064876   0.001567
    50  H    0.069628   0.001632
    51  H    0.062843   0.002269
    52  H    0.061744   0.000576
    53  H    0.093892  -0.000011
    54  H    0.082509  -0.000162
    55  H    0.135766  -0.000090
    56  H    0.105893  -0.000011
    57  H    0.118242   0.000462
    58  H    0.092675  -0.000070
    59  H    0.097678   0.000058
    60  H    0.086200   0.000059
    61  H    0.098742   0.000281
    62  H    0.102138  -0.000036
    63  H    0.122314   0.000077
    64  H    0.085847   0.000237
    65  H    0.140008  -0.006500
    66  H    0.130009  -0.006132
    67  H    0.148692   0.000002
    68  H    0.082276   0.001075
    69  H    0.095868   0.001096
    70  H    0.156351   0.000051
    71  H    0.090205   0.001143
    72  H    0.078931   0.001103
    73  H    0.094729   0.000680
    74  H    0.103122   0.000756
    75  H    0.095505   0.005098
    76  H    0.095742   0.000048
    77  H    0.094396   0.005146
    78  H    0.095608   0.004940
    79  H    0.093338   0.005061
    80  H    0.095707   0.000050
    81  H    0.057426   0.001300
    82  H    0.058444   0.001530
    83  H    0.104961  -0.006994
    84  H    0.102489  -0.006747
    85  H    0.083131   0.000763
    86  H    0.056778  -0.001048
    87  H    0.095811   0.004900
    88  H    0.082308  -0.000159
    89  H    0.095854   0.004855
    90  H    0.098465   0.003384
    91  H    0.098302   0.003436
    92  H    0.093180  -0.000399
    93  H    0.070860  -0.000818
    94  H    0.082483   0.000821
    95  H    0.059474  -0.002871
    96  H    0.047978  -0.004741
 Sum of Mulliken charges =  -1.00000   1.00000

 Dipole moment (field-independent basis, Debye):
    X=              0.0606    Y=             -0.8365    Z=              0.0128  Tot=              0.8388
 Quadrupole moment (field-independent basis, Debye-Ang):
   XX=           -493.1728   YY=           -252.8252   ZZ=           -262.2641
   XY=            -17.5769   XZ=              7.8805   YZ=             -1.3795

 Normal termination of Gaussian 16 at Wed Nov 13 21:49:01 2019.
