 Gaussian 16, Revision A.03,
 Gaussian 16:  ES64L-G16RevA.03 25-Dec-2016

 --------------------------------------------------------
 # wB97XD/Def2TZVP iop(3/107=0150000000,3/108=0150000000)
 --------------------------------------------------------

 -----
 TITLE
 -----
 Symbolic Z-matrix:
 Charge = -1 Multiplicity = 2

                         Standard orientation:
 ---------------------------------------------------------------------
 Center     Atomic      Atomic             Coordinates (Angstroms)
 Number     Number       Type             X           Y           Z
 ---------------------------------------------------------------------
      1          6           0       12.009463    0.506654   -0.792231
      2          6           0      -12.008469   -0.025127    0.879694
      3          6           0       13.311672   -0.303191   -0.688217
      4          6           0      -12.867755    1.173990    1.309438
      5          6           0       13.063742   -1.794178   -0.538597
      6          6           0      -13.308402    2.030934    0.136048
      7          6           0       10.979691    0.028373    0.243128
      8          6           0      -10.929245    0.410796   -0.125211
      9          6           0       12.287693   -2.048621    0.742890
     10          6           0      -12.087935    2.584590   -0.582702
     11          6           0       11.129437   -1.105103    0.950121
     12          6           0      -10.985441    1.574782   -0.796193
     13          6           0       11.407442    0.365259   -2.201258
     14          6           0       12.366685    1.985634   -0.564825
     15          6           0      -12.898986   -1.108962    0.244889
     16          6           0      -11.354123   -0.605695    2.143412
     17          6           0        9.800282    0.899292    0.396792
     18          6           0       -9.849365   -0.572930   -0.314889
     19          6           0       10.200686   -1.553925    2.045269
     20          6           0       -9.977267    2.011367   -1.824227
     21          6           0        8.528379    0.492312    0.293275
     22          6           0       -8.535892   -0.321590   -0.242373
     23          6           0        7.343987    1.329464    0.428022
     24          6           0       -7.465260   -1.296183   -0.401880
     25          6           0        7.542640    2.790321    0.711948
     26          6           0       -7.845700   -2.721860   -0.679533
     27          6           0        6.131261    0.747374    0.289915
     28          6           0       -6.187638   -0.867005   -0.290935
     29          6           0        4.836121    1.370816    0.382468
     30          6           0       -4.980292   -1.643141   -0.410230
     31          6           0        3.683672    0.689818    0.226807
     32          6           0       -3.750319   -1.108591   -0.280917
     33          6           0        2.352112    1.257379    0.307612
     34          6           0       -2.489507   -1.818244   -0.386898
     35          6           0        2.229889    2.730640    0.587834
     36          6           0       -2.534758   -3.293515   -0.666488
     37          6           0        1.226723    0.518289    0.141773
     38          6           0       -1.343026   -1.112727   -0.228163
     39          6           0        1.139462   -0.892918   -0.130889
     40          6           0        0.004535   -1.611917   -0.293520
     41          1           0       13.876387    0.047032    0.182848
     42          1           0       13.928202   -0.094605   -1.566926
     43          1           0      -12.284142    1.793771    1.998686
     44          1           0      -13.731467    0.807727    1.871641
     45          1           0       14.008287   -2.342054   -0.525796
     46          1           0       12.496397   -2.168489   -1.394937
     47          1           0      -13.948993    2.847277    0.476530
     48          1           0      -13.906151    1.436118   -0.559610
     49          1           0       12.957998   -1.969832    1.608749
     50          1           0       11.907265   -3.075190    0.763915
     51          1           0      -11.672168    3.427234   -0.014432
     52          1           0      -12.377350    3.003257   -1.550991
     53          1           0       11.193648   -0.677144   -2.442363
     54          1           0       12.098347    0.756665   -2.952473
     55          1           0       10.470339    0.919149   -2.279832
     56          1           0       12.668270    2.164224    0.469754
     57          1           0       11.537159    2.652906   -0.802482
     58          1           0       13.201843    2.263145   -1.212197
     59          1           0      -13.415429   -0.736037   -0.640277
     60          1           0      -13.649055   -1.449770    0.963205
     61          1           0      -12.315504   -1.980562   -0.056758
     62          1           0      -10.651095    0.106250    2.580424
     63          1           0      -10.807680   -1.526637    1.935487
     64          1           0      -12.120612   -0.830859    2.889290
     65          1           0        9.995418    1.953909    0.561238
     66          1           0      -10.169892   -1.600268   -0.464356
     67          1           0        9.533085   -0.766535    2.386877
     68          1           0       10.786529   -1.910115    2.897944
     69          1           0        9.586472   -2.398400    1.717163
     70          1           0       -9.315011    1.208297   -2.137612
     71          1           0       -9.357088    2.827399   -1.438794
     72          1           0      -10.490684    2.402549   -2.706777
     73          1           0        8.340950   -0.556712    0.082158
     74          1           0       -8.216721    0.695370   -0.033915
     75          1           0        8.096612    2.928724    1.643787
     76          1           0        6.604889    3.333089    0.797227
     77          1           0        8.129133    3.258692   -0.082744
     78          1           0       -8.433493   -2.791253   -1.598325
     79          1           0       -8.465364   -3.118123    0.129215
     80          1           0       -6.982246   -3.373397   -0.785825
     81          1           0        6.118263   -0.320217    0.084181
     82          1           0       -6.039803    0.190830   -0.087285
     83          1           0        4.795466    2.433842    0.586323
     84          1           0       -5.072244   -2.703347   -0.613305
     85          1           0        3.760371   -0.372469    0.023700
     86          1           0       -3.676120   -0.043099   -0.077301
     87          1           0        2.693785    2.990342    1.543156
     88          1           0        1.185489    3.037071    0.625385
     89          1           0        2.728882    3.321804   -0.184703
     90          1           0       -3.048795   -3.488847   -1.610957
     91          1           0       -3.089783   -3.814890    0.117408
     92          1           0       -1.546594   -3.741001   -0.727374
     93          1           0        0.286548    1.052074    0.224434
     94          1           0       -1.460510   -0.052609   -0.030208
     95          1           0        2.068524   -1.443222   -0.216006
     96          1           0        0.132277   -2.669020   -0.493115
 ---------------------------------------------------------------------

 SCF Done:  E(UwB97XD) =  -1558.02473179     A.U. after   21 cycles

 Alpha virt. eigenvalues --    0.33338   0.33599   0.33867   0.33975   0.34016
 Alpha virt. eigenvalues --    0.34337   0.34379   0.34888   0.35178   0.35418
 Alpha virt. eigenvalues --    0.35694   0.35882   0.36166   0.36399   0.36574

  Beta  occ. eigenvalues --  -10.21092 -10.21059 -10.19545 -10.19488 -10.19466
  Beta  occ. eigenvalues --  -10.19441 -10.19227 -10.19199 -10.19124 -10.19058
  Beta  occ. eigenvalues --  -10.18838 -10.18746 -10.18736 -10.18590 -10.18080
  Beta  occ. eigenvalues --  -10.18037 -10.17958 -10.17957 -10.17467 -10.17445
  Beta  occ. eigenvalues --  -10.17017 -10.17004 -10.16750 -10.16711 -10.16658
  Beta  occ. eigenvalues --  -10.16631 -10.16543 -10.16441 -10.15676 -10.15616
  Beta  occ. eigenvalues --  -10.15554 -10.15377 -10.15306 -10.15076 -10.14710
  Beta  occ. eigenvalues --  -10.14582 -10.14536 -10.14378 -10.13991 -10.13909
  Beta  occ. eigenvalues --   -0.86524  -0.86494  -0.81449  -0.81421  -0.80014
  Beta  occ. eigenvalues --   -0.80002  -0.79825  -0.79213  -0.78030  -0.77755
  Beta  occ. eigenvalues --   -0.75339  -0.74031  -0.72975  -0.71569  -0.70936
  Beta  occ. eigenvalues --   -0.69692  -0.69562  -0.68653  -0.68630  -0.68230
  Beta  occ. eigenvalues --   -0.68199  -0.67036  -0.66732  -0.66666  -0.64097
  Beta  occ. eigenvalues --   -0.61775  -0.61502  -0.58853  -0.58260  -0.57101
  Beta  occ. eigenvalues --   -0.56923  -0.54800  -0.53951  -0.51244  -0.50626
  Beta  occ. eigenvalues --   -0.50606  -0.49887  -0.49672  -0.49460  -0.48366
  Beta  occ. eigenvalues --   -0.47955  -0.46748  -0.45907  -0.45625  -0.45549
  Beta  occ. eigenvalues --   -0.45236  -0.44815  -0.44133  -0.43804  -0.43182
  Beta  occ. eigenvalues --   -0.43012  -0.42706  -0.42595  -0.42308  -0.41399
  Beta  occ. eigenvalues --   -0.40925  -0.40492  -0.40108  -0.40008  -0.39775
  Beta  occ. eigenvalues --   -0.39712  -0.39703  -0.39429  -0.39161  -0.38668
  Beta  occ. eigenvalues --   -0.38610  -0.38433  -0.38379  -0.38071  -0.37266
  Beta  occ. eigenvalues --   -0.37098  -0.37041  -0.36198  -0.35606  -0.35416
  Beta  occ. eigenvalues --   -0.35307  -0.35237  -0.35099  -0.34952  -0.34922
  Beta  occ. eigenvalues --   -0.34325  -0.34242  -0.34053  -0.33858  -0.32692
  Beta  occ. eigenvalues --   -0.32229  -0.32107  -0.32067  -0.31766  -0.31720
  Beta  occ. eigenvalues --   -0.31059  -0.30981  -0.30780  -0.29888  -0.29816
  Beta  occ. eigenvalues --   -0.29665  -0.28744  -0.28635  -0.28275  -0.27025
  Beta  occ. eigenvalues --   -0.26742  -0.25880  -0.23647  -0.22367  -0.21105
  Beta  occ. eigenvalues --   -0.18440  -0.15357  -0.11566
  Beta virt. eigenvalues --    0.07902   0.09876   0.13538   0.15094   0.15679
  Beta virt. eigenvalues --    0.15968   0.16963   0.17628   0.17646   0.18410
  Beta virt. eigenvalues --    0.18655   0.18739   0.19363   0.19577   0.19788

 Mulliken charges and spin densities:
               1          2
     1  C    0.223926   0.004190
     2  C    0.115392   0.004272
     3  C   -0.183347   0.000211
     4  C   -0.182103  -0.000018
     5  C   -0.163889   0.000242
     6  C   -0.160924   0.000212
     7  C    0.017444  -0.020436
     8  C    0.057509  -0.021538
     9  C   -0.158380  -0.001531
    10  C   -0.141249  -0.001427
    11  C   -0.043824   0.027116
    12  C   -0.060471   0.029246
    13  C   -0.404762   0.000325
    14  C   -0.418338  -0.000231
    15  C   -0.390243  -0.000651
    16  C   -0.336747  -0.000102
    17  C   -0.337154   0.110286
    18  C   -0.291751   0.105788
    19  C   -0.386093  -0.001124
    20  C   -0.383470  -0.001494
    21  C   -0.212831  -0.040233
    22  C   -0.234989  -0.040206
    23  C    0.134133   0.131814
    24  C    0.140566   0.128419
    25  C   -0.380307  -0.005243
    26  C   -0.382438  -0.005102
    27  C   -0.144843  -0.053823
    28  C   -0.153507  -0.054682
    29  C   -0.123966   0.141342
    30  C   -0.116756   0.141662
    31  C   -0.148735  -0.018450
    32  C   -0.195413  -0.019270
    33  C    0.066591   0.128729
    34  C    0.084414   0.109683
    35  C   -0.382863  -0.007535
    36  C   -0.389732  -0.003165
    37  C   -0.138597   0.017435
    38  C   -0.059044   0.020636
    39  C   -0.164617   0.086966
    40  C   -0.215471   0.077423
    41  H    0.081997  -0.000016
    42  H    0.087927   0.000111
    43  H    0.085027   0.000036
    44  H    0.086433   0.000306
    45  H    0.081602   0.000017
    46  H    0.085656   0.000030
    47  H    0.082252   0.000007
    48  H    0.083534   0.000048
    49  H    0.086089   0.001416
    50  H    0.093496   0.001425
    51  H    0.084915   0.002052
    52  H    0.084199   0.000552
    53  H    0.106826  -0.000016
    54  H    0.098407  -0.000181
    55  H    0.144714  -0.000080
    56  H    0.120164  -0.000036
    57  H    0.127522   0.000552
    58  H    0.107362  -0.000063
    59  H    0.109475   0.000049
    60  H    0.102091   0.000011
    61  H    0.115405   0.000191
    62  H    0.117241  -0.000028
    63  H    0.126774   0.000323
    64  H    0.100762   0.000224
    65  H    0.129278  -0.004601
    66  H    0.115429  -0.004510
    67  H    0.155489   0.000158
    68  H    0.099065   0.000841
    69  H    0.117202   0.000997
    70  H    0.162047   0.000187
    71  H    0.111933   0.001094
    72  H    0.094978   0.000864
    73  H    0.103967   0.001027
    74  H    0.112584   0.001063
    75  H    0.109263   0.005250
    76  H    0.115708   0.000161
    77  H    0.106591   0.005119
    78  H    0.109322   0.005094
    79  H    0.106237   0.005006
    80  H    0.115385   0.000159
    81  H    0.073748   0.001993
    82  H    0.072975   0.002079
    83  H    0.085481  -0.005612
    84  H    0.084771  -0.005572
    85  H    0.081133   0.000839
    86  H    0.069669   0.000008
    87  H    0.106131   0.005591
    88  H    0.099532  -0.000158
    89  H    0.106169   0.005623
    90  H    0.109789   0.003886
    91  H    0.109682   0.003926
    92  H    0.107473  -0.000041
    93  H    0.071296  -0.000298
    94  H    0.083329   0.000587
    95  H    0.069186  -0.003312
    96  H    0.052172  -0.004116
 Sum of Mulliken charges =  -1.00000   1.00000

 Dipole moment (field-independent basis, Debye):
    X=             -0.0929    Y=              0.9034    Z=              0.1652  Tot=              0.9230
 Quadrupole moment (field-independent basis, Debye-Ang):
   XX=           -481.1451   YY=           -256.3739   ZZ=           -265.9142
   XY=            -18.6967   XZ=             -7.3167   YZ=              1.2363

 Normal termination of Gaussian 16 at Wed Nov 13 11:53:58 2019.
