 Gaussian 16, Revision A.03,
 Gaussian 16:  ES64L-G16RevA.03 25-Dec-2016

 --------------------------------------------------------
 # wB97XD/Def2TZVP iop(3/107=0112500000,3/108=0112500000)
 --------------------------------------------------------

 -----
 TITLE
 -----
 Symbolic Z-matrix:
 Charge = -1 Multiplicity = 2

                         Standard orientation:
 ---------------------------------------------------------------------
 Center     Atomic      Atomic             Coordinates (Angstroms)
 Number     Number       Type             X           Y           Z
 ---------------------------------------------------------------------
      1          6           0       12.019384    0.507977   -0.799097
      2          6           0      -12.018654   -0.016926    0.877941
      3          6           0       13.320368   -0.308598   -0.701609
      4          6           0      -12.877172    1.187738    1.301006
      5          6           0       13.068087   -1.800450   -0.555184
      6          6           0      -13.314513    2.042014    0.122790
      7          6           0       10.987066    0.027218    0.236219
      8          6           0      -10.935381    0.412269   -0.129184
      9          6           0       12.292745   -2.056511    0.727920
     10          6           0      -12.091297    2.588009   -0.599935
     11          6           0       11.136615   -1.109942    0.940908
     12          6           0      -10.990426    1.573658   -0.808315
     13          6           0       11.414209    0.377165   -2.210200
     14          6           0       12.384598    1.986039   -0.563120
     15          6           0      -12.911830   -1.103360    0.245889
     16          6           0      -11.367130   -0.593061    2.147747
     17          6           0        9.809668    0.899996    0.393275
     18          6           0       -9.857879   -0.574924   -0.313938
     19          6           0       10.210693   -1.558391    2.040264
     20          6           0       -9.983807    2.000701   -1.843520
     21          6           0        8.533333    0.497209    0.296635
     22          6           0       -8.540880   -0.328674   -0.243638
     23          6           0        7.352419    1.336272    0.434398
     24          6           0       -7.473673   -1.305337   -0.400403
     25          6           0        7.552056    2.798193    0.719104
     26          6           0       -7.854724   -2.732175   -0.678303
     27          6           0        6.135349    0.754968    0.298003
     28          6           0       -6.192127   -0.877646   -0.287546
     29          6           0        4.842344    1.377293    0.392501
     30          6           0       -4.986736   -1.652974   -0.403988
     31          6           0        3.685986    0.696186    0.238007
     32          6           0       -3.752995   -1.118981   -0.273291
     33          6           0        2.355966    1.261076    0.319964
     34          6           0       -2.493646   -1.826906   -0.376743
     35          6           0        2.228353    2.735412    0.600267
     36          6           0       -2.533982   -3.303971   -0.655284
     37          6           0        1.228044    0.518546    0.154731
     38          6           0       -1.344887   -1.118122   -0.216759
     39          6           0        1.139046   -0.890079   -0.116531
     40          6           0        0.001746   -1.612228   -0.279690
     41          1           0       13.889759    0.036813    0.167757
     42          1           0       13.934937   -0.100361   -1.581355
     43          1           0      -12.294300    1.808782    1.989027
     44          1           0      -13.742868    0.826561    1.862828
     45          1           0       14.011118   -2.350728   -0.545072
     46          1           0       12.499073   -2.171533   -1.411386
     47          1           0      -13.951282    2.862525    0.460010
     48          1           0      -13.915486    1.447419   -0.569729
     49          1           0       12.965016   -1.983588    1.592537
     50          1           0       11.909944   -3.082069    0.745933
     51          1           0      -11.673440    3.432927   -0.036947
     52          1           0      -12.380205    3.002386   -1.569981
     53          1           0       11.193332   -0.662267   -2.456191
     54          1           0       12.106181    0.767271   -2.960644
     55          1           0       10.480905    0.937166   -2.285494
     56          1           0       12.689408    2.157225    0.471375
     57          1           0       11.558400    2.658954   -0.794660
     58          1           0       13.219324    2.264002   -1.210317
     59          1           0      -13.423927   -0.734385   -0.643055
     60          1           0      -13.665567   -1.437632    0.962946
     61          1           0      -12.330745   -1.978540   -0.048578
     62          1           0      -10.665278    0.120014    2.583884
     63          1           0      -10.820698   -1.514846    1.945640
     64          1           0      -12.134951   -0.814950    2.892792
     65          1           0       10.008053    1.954418    0.552335
     66          1           0      -10.181725   -1.601711   -0.457102
     67          1           0        9.544472   -0.770884    2.383380
     68          1           0       10.798847   -1.913063    2.891767
     69          1           0        9.595463   -2.403444    1.716177
     70          1           0       -9.318986    1.196289   -2.146738
     71          1           0       -9.366648    2.824567   -1.470667
     72          1           0      -10.499142    2.377385   -2.731129
     73          1           0        8.342057   -0.550901    0.087089
     74          1           0       -8.218680    0.687459   -0.038297
     75          1           0        8.109347    2.936624    1.648700
     76          1           0        6.614653    3.340278    0.808961
     77          1           0        8.134131    3.268373   -0.077453
     78          1           0       -8.441731   -2.802170   -1.597303
     79          1           0       -8.474066   -3.129224    0.129977
     80          1           0       -6.991519   -3.383630   -0.784356
     81          1           0        6.122194   -0.312194    0.091939
     82          1           0       -6.044538    0.179989   -0.084602
     83          1           0        4.801997    2.439887    0.596696
     84          1           0       -5.078838   -2.712949   -0.606181
     85          1           0        3.762460   -0.365689    0.034381
     86          1           0       -3.679408   -0.053674   -0.070522
     87          1           0        2.690825    2.997444    1.555422
     88          1           0        1.183300    3.038642    0.638094
     89          1           0        2.724456    3.328759   -0.172179
     90          1           0       -3.044843   -3.502503   -1.600545
     91          1           0       -3.087977   -3.827012    0.127909
     92          1           0       -1.544461   -3.748168   -0.713886
     93          1           0        0.288516    1.052707    0.238054
     94          1           0       -1.465248   -0.058401   -0.020010
     95          1           0        2.067238   -1.441552   -0.200982
     96          1           0        0.133137   -2.668890   -0.478018
 ---------------------------------------------------------------------

 SCF Done:  E(UwB97XD) =  -1558.13883743     A.U. after   20 cycles

 Alpha virt. eigenvalues --    0.32823   0.33118   0.33291   0.33490   0.33542
 Alpha virt. eigenvalues --    0.33834   0.33931   0.34317   0.34578   0.34865
 Alpha virt. eigenvalues --    0.35095   0.35362   0.35574   0.35942   0.36084

  Beta  occ. eigenvalues --  -10.19390 -10.19355 -10.17800 -10.17735 -10.17712
  Beta  occ. eigenvalues --  -10.17688 -10.17484 -10.17450 -10.17337 -10.17264
  Beta  occ. eigenvalues --  -10.17082 -10.16988 -10.16988 -10.16842 -10.16331
  Beta  occ. eigenvalues --  -10.16288 -10.16199 -10.16196 -10.15626 -10.15613
  Beta  occ. eigenvalues --  -10.15305 -10.15293 -10.15050 -10.14993 -10.14888
  Beta  occ. eigenvalues --  -10.14886 -10.14743 -10.14636 -10.14127 -10.14061
  Beta  occ. eigenvalues --  -10.13894 -10.13853 -10.13712 -10.13640 -10.13142
  Beta  occ. eigenvalues --  -10.13045 -10.12972 -10.12851 -10.12551 -10.12472
  Beta  occ. eigenvalues --   -0.84438  -0.84403  -0.79466  -0.79430  -0.78040
  Beta  occ. eigenvalues --   -0.77974  -0.77939  -0.77343  -0.76063  -0.75802
  Beta  occ. eigenvalues --   -0.73510  -0.72123  -0.71092  -0.69674  -0.69103
  Beta  occ. eigenvalues --   -0.67777  -0.67647  -0.66731  -0.66707  -0.66304
  Beta  occ. eigenvalues --   -0.66268  -0.65343  -0.64876  -0.64776  -0.62327
  Beta  occ. eigenvalues --   -0.59922  -0.59630  -0.57106  -0.56465  -0.55248
  Beta  occ. eigenvalues --   -0.55067  -0.53066  -0.52187  -0.49559  -0.48855
  Beta  occ. eigenvalues --   -0.48841  -0.48138  -0.47857  -0.47609  -0.46567
  Beta  occ. eigenvalues --   -0.46135  -0.45027  -0.44135  -0.43822  -0.43744
  Beta  occ. eigenvalues --   -0.43471  -0.43080  -0.42403  -0.42057  -0.41431
  Beta  occ. eigenvalues --   -0.41277  -0.40979  -0.40828  -0.40612  -0.39737
  Beta  occ. eigenvalues --   -0.39239  -0.38788  -0.38388  -0.38301  -0.38096
  Beta  occ. eigenvalues --   -0.38019  -0.37999  -0.37762  -0.37474  -0.37067
  Beta  occ. eigenvalues --   -0.37031  -0.36885  -0.36755  -0.36413  -0.35674
  Beta  occ. eigenvalues --   -0.35508  -0.35410  -0.34606  -0.34019  -0.33782
  Beta  occ. eigenvalues --   -0.33707  -0.33605  -0.33498  -0.33350  -0.33314
  Beta  occ. eigenvalues --   -0.32708  -0.32616  -0.32494  -0.32253  -0.31132
  Beta  occ. eigenvalues --   -0.30649  -0.30606  -0.30494  -0.30248  -0.30180
  Beta  occ. eigenvalues --   -0.29428  -0.29366  -0.29274  -0.28405  -0.28241
  Beta  occ. eigenvalues --   -0.28011  -0.27195  -0.27091  -0.26715  -0.25728
  Beta  occ. eigenvalues --   -0.25154  -0.24288  -0.22147  -0.20856  -0.19654
  Beta  occ. eigenvalues --   -0.17110  -0.14118  -0.10473
  Beta virt. eigenvalues --    0.07085   0.09198   0.12733   0.14443   0.15467
  Beta virt. eigenvalues --    0.15750   0.16302   0.17544   0.17569   0.17798
  Beta virt. eigenvalues --    0.18528   0.18576   0.19217   0.19359   0.19599

 Mulliken charges and spin densities:
               1          2
     1  C    0.201637   0.004434
     2  C    0.093069   0.004209
     3  C   -0.166423   0.000218
     4  C   -0.164243  -0.000026
     5  C   -0.147756   0.000299
     6  C   -0.145899   0.000263
     7  C    0.013897  -0.020466
     8  C    0.054154  -0.021260
     9  C   -0.147901  -0.001786
    10  C   -0.130160  -0.001609
    11  C   -0.038523   0.028470
    12  C   -0.055266   0.030184
    13  C   -0.390545   0.000276
    14  C   -0.405703  -0.000338
    15  C   -0.375486  -0.000640
    16  C   -0.324233   0.000022
    17  C   -0.347611   0.112212
    18  C   -0.303433   0.107020
    19  C   -0.376369  -0.001141
    20  C   -0.374130  -0.001503
    21  C   -0.204513  -0.037959
    22  C   -0.227161  -0.037938
    23  C    0.123913   0.127494
    24  C    0.131302   0.124203
    25  C   -0.370923  -0.005220
    26  C   -0.373030  -0.005108
    27  C   -0.134919  -0.045405
    28  C   -0.143564  -0.046726
    29  C   -0.129637   0.133184
    30  C   -0.122794   0.133698
    31  C   -0.140534  -0.011120
    32  C   -0.186180  -0.011804
    33  C    0.054615   0.119669
    34  C    0.077455   0.101082
    35  C   -0.372034  -0.006867
    36  C   -0.381507  -0.002679
    37  C   -0.132338   0.022808
    38  C   -0.051055   0.025812
    39  C   -0.163983   0.083944
    40  C   -0.217525   0.073414
    41  H    0.077302  -0.000019
    42  H    0.082203   0.000115
    43  H    0.080080   0.000042
    44  H    0.080664   0.000322
    45  H    0.073557   0.000013
    46  H    0.081350   0.000018
    47  H    0.074293   0.000003
    48  H    0.079447   0.000044
    49  H    0.080912   0.001544
    50  H    0.087579   0.001547
    51  H    0.079429   0.002188
    52  H    0.078384   0.000579
    53  H    0.104055  -0.000014
    54  H    0.094700  -0.000181
    55  H    0.142936  -0.000060
    56  H    0.117319  -0.000023
    57  H    0.124836   0.000559
    58  H    0.104168  -0.000064
    59  H    0.106923   0.000052
    60  H    0.098438   0.000027
    61  H    0.111855   0.000205
    62  H    0.114040  -0.000035
    63  H    0.125904   0.000288
    64  H    0.097393   0.000238
    65  H    0.132581  -0.005142
    66  H    0.119520  -0.004925
    67  H    0.154623   0.000140
    68  H    0.095171   0.000937
    69  H    0.112627   0.001088
    70  H    0.161397   0.000163
    71  H    0.107061   0.001156
    72  H    0.091098   0.000950
    73  H    0.102665   0.000871
    74  H    0.111339   0.000926
    75  H    0.106326   0.005180
    76  H    0.110971   0.000091
    77  H    0.103970   0.005112
    78  H    0.106372   0.005031
    79  H    0.103480   0.004999
    80  H    0.110732   0.000093
    81  H    0.069569   0.001724
    82  H    0.069323   0.001870
    83  H    0.090871  -0.005990
    84  H    0.089675  -0.005898
    85  H    0.082026   0.000771
    86  H    0.066735  -0.000402
    87  H    0.104435   0.005307
    88  H    0.095722  -0.000168
    89  H    0.104470   0.005328
    90  H    0.107793   0.003670
    91  H    0.107691   0.003707
    92  H    0.104289  -0.000199
    93  H    0.071591  -0.000428
    94  H    0.083969   0.000687
    95  H    0.067713  -0.003050
    96  H    0.051764  -0.004306
 Sum of Mulliken charges =  -1.00000   1.00000

 Dipole moment (field-independent basis, Debye):
    X=             -0.1078    Y=              0.8550    Z=              0.1234  Tot=              0.8706
 Quadrupole moment (field-independent basis, Debye-Ang):
   XX=           -487.1992   YY=           -255.0945   ZZ=           -264.7973
   XY=            -18.1290   XZ=             -7.5281   YZ=              1.3296

 Normal termination of Gaussian 16 at Fri Nov 15 06:04:42 2019.
