 Gaussian 16, Revision A.03,
 Gaussian 16:  ES64L-G16RevA.03 25-Dec-2016

 --------------------------------------------------------
 # wB97XD/Def2TZVP iop(3/107=0075000000,3/108=0075000000)
 --------------------------------------------------------

 -----
 TITLE
 -----
 Symbolic Z-matrix:
 Charge = -1 Multiplicity = 2

                         Standard orientation:
 ---------------------------------------------------------------------
 Center     Atomic      Atomic             Coordinates (Angstroms)
 Number     Number       Type             X           Y           Z
 ---------------------------------------------------------------------
      1          6           0      -12.016557   -0.499753   -0.828071
      2          6           0       12.021244   -0.005181    0.883460
      3          6           0      -13.318907    0.320668   -0.739437
      4          6           0       12.872080   -1.223272    1.292970
      5          6           0      -13.067153    1.811742   -0.569558
      6          6           0       13.311896   -2.064751    0.104468
      7          6           0      -10.994190   -0.030590    0.227124
      8          6           0       10.939217   -0.413650   -0.138602
      9          6           0      -12.305569    2.051384    0.726801
     10          6           0       12.089695   -2.589525   -0.638766
     11          6           0      -11.152533    1.099350    0.944047
     12          6           0       10.995212   -1.564073   -0.838749
     13          6           0      -11.391865   -0.357324   -2.232694
     14          6           0      -12.390325   -1.981523   -0.610097
     15          6           0       12.925528    1.087883    0.271725
     16          6           0       11.365651    0.555305    2.161573
     17          6           0       -9.819529   -0.907703    0.390032
     18          6           0        9.866897    0.582056   -0.315661
     19          6           0      -10.241909    1.532091    2.064894
     20          6           0        9.997295   -1.966642   -1.894652
     21          6           0       -8.538619   -0.510409    0.303098
     22          6           0        8.546048    0.344725   -0.247165
     23          6           0       -7.360443   -1.351565    0.445416
     24          6           0        7.483037    1.325798   -0.399009
     25          6           0       -7.560912   -2.815311    0.730478
     26          6           0        7.866366    2.754134   -0.676603
     27          6           0       -6.139389   -0.770248    0.312303
     28          6           0        6.197372    0.900780   -0.283122
     29          6           0       -4.847100   -1.389579    0.409650
     30          6           0        4.993228    1.675366   -0.394611
     31          6           0       -3.687717   -0.706782    0.257163
     32          6           0        3.755982    1.141545   -0.261532
     33          6           0       -2.357526   -1.266005    0.340515
     34          6           0        2.496588    1.846121   -0.360520
     35          6           0       -2.220490   -2.741840    0.620575
     36          6           0        2.528826    3.325833   -0.637476
     37          6           0       -1.228425   -0.517694    0.176364
     38          6           0        1.347093    1.131620   -0.198252
     39          6           0       -1.138671    0.888893   -0.092646
     40          6           0       -0.000448    1.616583   -0.256705
     41          1           0      -13.902641   -0.034322    0.115533
     42          1           0      -13.921060    0.126279   -1.630217
     43          1           0       12.283325   -1.850480    1.969164
     44          1           0       13.737072   -0.876745    1.864030
     45          1           0      -14.010277    2.361578   -0.562206
     46          1           0      -12.489973    2.195203   -1.413987
     47          1           0       13.937497   -2.896073    0.435527
     48          1           0       13.925494   -1.466999   -0.573170
     49          1           0      -12.988385    1.971430    1.581954
     50          1           0      -11.921895    3.075853    0.760099
     51          1           0       11.662039   -3.441576   -0.094975
     52          1           0       12.384931   -2.988935   -1.612729
     53          1           0      -11.160464    0.682474   -2.464626
     54          1           0      -12.076245   -0.733407   -2.996438
     55          1           0      -10.462275   -0.922837   -2.303624
     56          1           0      -12.711454   -2.161368    0.417421
     57          1           0      -11.563365   -2.654990   -0.834449
     58          1           0      -13.215425   -2.252333   -1.271698
     59          1           0       13.435555    0.732268   -0.623190
     60          1           0       13.681343    1.402992    0.994505
     61          1           0       12.352813    1.973008   -0.006748
     62          1           0       10.659698   -0.160696    2.584748
     63          1           0       10.823936    1.481760    1.971903
     64          1           0       12.130160    0.763313    2.913318
     65          1           0      -10.023225   -1.961264    0.543342
     66          1           0       10.197512    1.606956   -0.451041
     67          1           0       -9.575195    0.742520    2.400430
     68          1           0      -10.841968    1.864566    2.916700
     69          1           0       -9.628701    2.387624    1.766659
     70          1           0        9.328511   -1.158890   -2.177320
     71          1           0        9.384871   -2.806978   -1.553107
     72          1           0       10.521068   -2.310146   -2.790528
     73          1           0       -8.343053    0.536767    0.096672
     74          1           0        8.218884   -0.670130   -0.047076
     75          1           0       -8.123638   -2.954319    1.656284
     76          1           0       -6.623977   -3.356014    0.827606
     77          1           0       -8.135624   -3.287957   -0.069428
     78          1           0        8.452987    2.824635   -1.595387
     79          1           0        8.484838    3.151457    0.131666
     80          1           0        7.004291    3.406268   -0.782948
     81          1           0       -6.126932    0.296349    0.106178
     82          1           0        6.049719   -0.156562   -0.081663
     83          1           0       -4.805677   -2.451372    0.613981
     84          1           0        5.084992    2.734942   -0.595161
     85          1           0       -3.765638    0.354315    0.053099
     86          1           0        3.684162    0.076405   -0.060317
     87          1           0       -2.680115   -3.007768    1.575646
     88          1           0       -1.174158   -3.039256    0.658336
     89          1           0       -2.711942   -3.338581   -0.151742
     90          1           0        3.034840    3.529152   -1.583893
     91          1           0        3.081040    3.851470    0.144713
     92          1           0        1.537214    3.764714   -0.692716
     93          1           0       -0.289054   -1.050842    0.260130
     94          1           0        1.472985    0.072729   -0.003542
     95          1           0       -2.066405    1.440671   -0.175447
     96          1           0       -0.138888    2.672387   -0.452636
 ---------------------------------------------------------------------

 SCF Done:  E(UwB97XD) =  -1558.35642178     A.U. after   19 cycles

 Alpha virt. eigenvalues --    0.32229   0.32569   0.32613   0.32939   0.32998
 Alpha virt. eigenvalues --    0.33285   0.33363   0.33687   0.33872   0.34312
 Alpha virt. eigenvalues --    0.34453   0.34771   0.34917   0.35245   0.35738

  Beta  occ. eigenvalues --  -10.17672 -10.17643 -10.16029 -10.15955 -10.15941
  Beta  occ. eigenvalues --  -10.15915 -10.15709 -10.15677 -10.15518 -10.15450
  Beta  occ. eigenvalues --  -10.15289 -10.15214 -10.15205 -10.15072 -10.14557
  Beta  occ. eigenvalues --  -10.14509 -10.14420 -10.14417 -10.13746 -10.13728
  Beta  occ. eigenvalues --  -10.13570 -10.13552 -10.13323 -10.13253 -10.13056
  Beta  occ. eigenvalues --  -10.13054 -10.12894 -10.12800 -10.12529 -10.12462
  Beta  occ. eigenvalues --  -10.12357 -10.12147 -10.12138 -10.11975 -10.11509
  Beta  occ. eigenvalues --  -10.11426 -10.11343 -10.11249 -10.11028 -10.10954
  Beta  occ. eigenvalues --   -0.82318  -0.82288  -0.77452  -0.77403  -0.76129
  Beta  occ. eigenvalues --   -0.75921  -0.75904  -0.75425  -0.74063  -0.73814
  Beta  occ. eigenvalues --   -0.71630  -0.70179  -0.69170  -0.67743  -0.67222
  Beta  occ. eigenvalues --   -0.65843  -0.65716  -0.64780  -0.64766  -0.64348
  Beta  occ. eigenvalues --   -0.64316  -0.63596  -0.62973  -0.62846  -0.60489
  Beta  occ. eigenvalues --   -0.58021  -0.57707  -0.55297  -0.54605  -0.53330
  Beta  occ. eigenvalues --   -0.53150  -0.51246  -0.50342  -0.47778  -0.47006
  Beta  occ. eigenvalues --   -0.46988  -0.46313  -0.45926  -0.45671  -0.44668
  Beta  occ. eigenvalues --   -0.44201  -0.43200  -0.42253  -0.41917  -0.41835
  Beta  occ. eigenvalues --   -0.41604  -0.41232  -0.40565  -0.40205  -0.39569
  Beta  occ. eigenvalues --   -0.39430  -0.39147  -0.38959  -0.38785  -0.37953
  Beta  occ. eigenvalues --   -0.37434  -0.36971  -0.36560  -0.36483  -0.36317
  Beta  occ. eigenvalues --   -0.36208  -0.36186  -0.35984  -0.35664  -0.35395
  Beta  occ. eigenvalues --   -0.35269  -0.35214  -0.35005  -0.34630  -0.33963
  Beta  occ. eigenvalues --   -0.33788  -0.33674  -0.32882  -0.32303  -0.32008
  Beta  occ. eigenvalues --   -0.31979  -0.31837  -0.31761  -0.31607  -0.31570
  Beta  occ. eigenvalues --   -0.30949  -0.30859  -0.30778  -0.30514  -0.29419
  Beta  occ. eigenvalues --   -0.28980  -0.28897  -0.28766  -0.28572  -0.28457
  Beta  occ. eigenvalues --   -0.27677  -0.27619  -0.27563  -0.26778  -0.26479
  Beta  occ. eigenvalues --   -0.26204  -0.25470  -0.25375  -0.24972  -0.24246
  Beta  occ. eigenvalues --   -0.23362  -0.22472  -0.20410  -0.19131  -0.17987
  Beta  occ. eigenvalues --   -0.15538  -0.12651  -0.09165
  Beta virt. eigenvalues --    0.06168   0.08391   0.11771   0.13524   0.14888
  Beta virt. eigenvalues --    0.15543   0.15695   0.16867   0.17415   0.17444
  Beta virt. eigenvalues --    0.18347   0.18384   0.18924   0.19079   0.19323

 Mulliken charges and spin densities:
               1          2
     1  C    0.176108   0.004667
     2  C    0.066142   0.004201
     3  C   -0.140941   0.000224
     4  C   -0.138134  -0.000044
     5  C   -0.124523   0.000359
     6  C   -0.124102   0.000332
     7  C    0.001218  -0.020043
     8  C    0.043995  -0.020923
     9  C   -0.130611  -0.002069
    10  C   -0.113097  -0.001830
    11  C   -0.032591   0.028759
    12  C   -0.047970   0.030607
    13  C   -0.367598   0.000253
    14  C   -0.386525  -0.000381
    15  C   -0.351065  -0.000633
    16  C   -0.304611   0.000201
    17  C   -0.358867   0.114840
    18  C   -0.317696   0.109335
    19  C   -0.355709  -0.001063
    20  C   -0.355715  -0.001459
    21  C   -0.189185  -0.036665
    22  C   -0.211779  -0.036690
    23  C    0.108424   0.124361
    24  C    0.116085   0.121216
    25  C   -0.354856  -0.005411
    26  C   -0.356912  -0.005327
    27  C   -0.120400  -0.038042
    28  C   -0.128588  -0.039530
    29  C   -0.137780   0.126288
    30  C   -0.131634   0.126572
    31  C   -0.130356  -0.005350
    32  C   -0.172834  -0.005181
    33  C    0.038051   0.111887
    34  C    0.066741   0.093487
    35  C   -0.353641  -0.006272
    36  C   -0.367048  -0.002339
    37  C   -0.123486   0.027428
    38  C   -0.041562   0.030735
    39  C   -0.161831   0.081838
    40  C   -0.220017   0.069586
    41  H    0.069996  -0.000023
    42  H    0.073496   0.000125
    43  H    0.072590   0.000050
    44  H    0.071904   0.000340
    45  H    0.061777   0.000006
    46  H    0.074840  -0.000002
    47  H    0.062602  -0.000005
    48  H    0.073040   0.000030
    49  H    0.072880   0.001610
    50  H    0.078412   0.001635
    51  H    0.071065   0.002285
    52  H    0.069793   0.000594
    53  H    0.099134  -0.000012
    54  H    0.088626  -0.000173
    55  H    0.139564  -0.000069
    56  H    0.111933  -0.000013
    57  H    0.121259   0.000527
    58  H    0.098588  -0.000066
    59  H    0.102451   0.000056
    60  H    0.092372   0.000047
    61  H    0.105320   0.000237
    62  H    0.108308  -0.000039
    63  H    0.124210   0.000187
    64  H    0.091706   0.000245
    65  H    0.137285  -0.005891
    66  H    0.125703  -0.005555
    67  H    0.152052   0.000077
    68  H    0.088686   0.001033
    69  H    0.104422   0.001130
    70  H    0.159279   0.000110
    71  H    0.098676   0.001184
    72  H    0.084986   0.001050
    73  H    0.099651   0.000729
    74  H    0.108221   0.000803
    75  H    0.101081   0.005115
    76  H    0.103237   0.000050
    77  H    0.099304   0.005128
    78  H    0.101131   0.004974
    79  H    0.098541   0.005026
    80  H    0.103110   0.000053
    81  H    0.063552   0.001451
    82  H    0.063963   0.001654
    83  H    0.098736  -0.006519
    84  H    0.096837  -0.006349
    85  H    0.082954   0.000745
    86  H    0.061993  -0.000805
    87  H    0.100484   0.005045
    88  H    0.089075  -0.000166
    89  H    0.100497   0.005047
    90  H    0.103445   0.003487
    91  H    0.103346   0.003518
    92  H    0.098738  -0.000332
    93  H    0.071647  -0.000630
    94  H    0.083768   0.000772
    95  H    0.064207  -0.002889
    96  H    0.050422  -0.004539
 Sum of Mulliken charges =  -1.00000   1.00000

 Dipole moment (field-independent basis, Debye):
    X=              0.0900    Y=             -0.8277    Z=              0.0679  Tot=              0.8354
 Quadrupole moment (field-independent basis, Debye-Ang):
   XX=           -491.7366   YY=           -253.6723   ZZ=           -263.3435
   XY=            -17.6685   XZ=              7.7540   YZ=             -1.3828

 Normal termination of Gaussian 16 at Thu Nov 14 20:22:06 2019.
