 Gaussian 16, Revision A.03,
 Gaussian 16:  ES64L-G16RevA.03 25-Dec-2016

 --------------------------------------------------------
 # wB97XD/Def2TZVP iop(3/107=0000000000,3/108=0000000000)
 --------------------------------------------------------

 -----
 TITLE
 -----
 Symbolic Z-matrix:
 Charge = -1 Multiplicity = 2

                         Standard orientation:
 ---------------------------------------------------------------------
 Center     Atomic      Atomic             Coordinates (Angstroms)
 Number     Number       Type             X           Y           Z
 ---------------------------------------------------------------------
      1          6           0       11.985538    0.495629   -0.801859
      2          6           0      -11.987940   -0.025864    0.887438
      3          6           0       13.290776   -0.304256   -0.692660
      4          6           0      -12.844225    1.171566    1.319823
      5          6           0       13.051198   -1.792299   -0.517153
      6          6           0      -13.294065    2.023118    0.147972
      7          6           0       10.968971    0.032376    0.249477
      8          6           0      -10.918788    0.408382   -0.125220
      9          6           0       12.285482   -2.029226    0.772084
     10          6           0      -12.080385    2.577331   -0.578372
     11          6           0       11.125728   -1.087450    0.970864
     12          6           0      -10.978997    1.568923   -0.796089
     13          6           0       11.373713    0.324252   -2.200745
     14          6           0       12.334451    1.978552   -0.606041
     15          6           0      -12.880284   -1.111289    0.263772
     16          6           0      -11.323594   -0.601568    2.145362
     17          6           0        9.788301    0.903392    0.401164
     18          6           0       -9.837937   -0.574495   -0.319524
     19          6           0       10.202811   -1.524132    2.074309
     20          6           0       -9.975356    2.006713   -1.826506
     21          6           0        8.521619    0.493212    0.291510
     22          6           0       -8.528857   -0.319900   -0.242356
     23          6           0        7.333128    1.328466    0.424014
     24          6           0       -7.454536   -1.293075   -0.403906
     25          6           0        7.531057    2.788258    0.707220
     26          6           0       -7.834986   -2.717230   -0.682542
     27          6           0        6.125803    0.745416    0.284883
     28          6           0       -6.181798   -0.862857   -0.293378
     29          6           0        4.827512    1.368892    0.376061
     30          6           0       -4.971645   -1.639468   -0.414715
     31          6           0        3.680438    0.687198    0.219592
     32          6           0       -3.746662   -1.103923   -0.285956
     33          6           0        2.346076    1.255506    0.299550
     34          6           0       -2.483070   -1.813963   -0.393622
     35          6           0        2.227231    2.727575    0.579761
     36          6           0       -2.531555   -3.287570   -0.674071
     37          6           0        1.224792    0.518966    0.133508
     38          6           0       -1.340802   -1.110331   -0.235644
     39          6           0        1.140024   -0.895373   -0.140361
     40          6           0        0.009107   -1.612164   -0.302560
     41          1           0       13.858326    0.063200    0.169437
     42          1           0       13.900703   -0.106955   -1.578501
     43          1           0      -12.255697    1.794380    2.002149
     44          1           0      -13.702906    0.805624    1.889750
     45          1           0       13.998332   -2.335311   -0.501550
     46          1           0       12.480017   -2.182970   -1.363441
     47          1           0      -13.934677    2.838598    0.489962
     48          1           0      -13.893935    1.424489   -0.542436
     49          1           0       12.960539   -1.932148    1.632031
     50          1           0       11.909261   -3.056519    0.812430
     51          1           0      -11.662111    3.420966   -0.013947
     52          1           0      -12.375947    2.993027   -1.545868
     53          1           0       11.164655   -0.723715   -2.420598
     54          1           0       12.056328    0.706082   -2.964302
     55          1           0       10.432688    0.871017   -2.281702
     56          1           0       12.642904    2.178607    0.422595
     57          1           0       11.498095    2.635076   -0.849589
     58          1           0       13.162580    2.248703   -1.265367
     59          1           0      -13.404784   -0.741797   -0.618010
     60          1           0      -13.623426   -1.451284    0.989559
     61          1           0      -12.297348   -1.982463   -0.040062
     62          1           0      -10.615849    0.111405    2.573013
     63          1           0      -10.780029   -1.523775    1.935643
     64          1           0      -12.083908   -0.822873    2.898591
     65          1           0        9.981724    1.957294    0.572150
     66          1           0      -10.156895   -1.600975   -0.477441
     67          1           0        9.534366   -0.734260    2.408050
     68          1           0       10.792621   -1.868416    2.928863
     69          1           0        9.589904   -2.373574    1.757487
     70          1           0       -9.312630    1.205095   -2.142039
     71          1           0       -9.355964    2.823240   -1.441418
     72          1           0      -10.492174    2.397423   -2.706986
     73          1           0        8.338046   -0.556492    0.079502
     74          1           0       -8.212499    0.697297   -0.030089
     75          1           0        8.082177    2.926367    1.640613
     76          1           0        6.593425    3.331566    0.788895
     77          1           0        8.120854    3.254816   -0.085871
     78          1           0       -8.421775   -2.785059   -1.601907
     79          1           0       -8.456193   -3.112497    0.125304
     80          1           0       -6.971969   -3.369287   -0.788023
     81          1           0        6.113420   -0.322225    0.079466
     82          1           0       -6.033933    0.194705   -0.088425
     83          1           0        4.785648    2.431818    0.579681
     84          1           0       -5.062814   -2.699472   -0.618720
     85          1           0        3.758536   -0.374973    0.016864
     86          1           0       -3.672885   -0.038552   -0.081444
     87          1           0        2.691553    2.985310    1.535209
     88          1           0        1.183411    3.035780    0.616756
     89          1           0        2.728218    3.317035   -0.192541
     90          1           0       -3.047535   -3.480201   -1.617865
     91          1           0       -3.087296   -3.807487    0.110082
     92          1           0       -1.544664   -3.737300   -0.736462
     93          1           0        0.283819    1.051227    0.215570
     94          1           0       -1.457091   -0.050385   -0.036826
     95          1           0        2.070028   -1.443746   -0.225736
     96          1           0        0.135114   -2.669177   -0.502988
 ---------------------------------------------------------------------

 SCF Done:  E(UwB97XD) =  -1557.97458227     A.U. after   22 cycles

 Alpha virt. eigenvalues --    0.33935   0.34154   0.34482   0.34537   0.34581
 Alpha virt. eigenvalues --    0.34855   0.34997   0.35575   0.35853   0.36110
 Alpha virt. eigenvalues --    0.36417   0.36505   0.36819   0.36901   0.37191

  Beta  occ. eigenvalues --  -10.23292 -10.23267 -10.21787 -10.21741 -10.21732
  Beta  occ. eigenvalues --  -10.21699 -10.21465 -10.21451 -10.21412 -10.21366
  Beta  occ. eigenvalues --  -10.21087 -10.21004 -10.20985 -10.20843 -10.20332
  Beta  occ. eigenvalues --  -10.20283 -10.20235 -10.20221 -10.19819 -10.19772
  Beta  occ. eigenvalues --  -10.19233 -10.19203 -10.18979 -10.18944 -10.18888
  Beta  occ. eigenvalues --  -10.18837 -10.18811 -10.18762 -10.17673 -10.17659
  Beta  occ. eigenvalues --  -10.17618 -10.17512 -10.17139 -10.16904 -10.16721
  Beta  occ. eigenvalues --  -10.16528 -10.16522 -10.16320 -10.15809 -10.15723
  Beta  occ. eigenvalues --   -0.89233  -0.89217  -0.84040  -0.84004  -0.82643
  Beta  occ. eigenvalues --   -0.82623  -0.82199  -0.81643  -0.80571  -0.80269
  Beta  occ. eigenvalues --   -0.77700  -0.76494  -0.75394  -0.74002  -0.73279
  Beta  occ. eigenvalues --   -0.72160  -0.72036  -0.71116  -0.71105  -0.70699
  Beta  occ. eigenvalues --   -0.70685  -0.69230  -0.69086  -0.69073  -0.66330
  Beta  occ. eigenvalues --   -0.64123  -0.63862  -0.61051  -0.60512  -0.59410
  Beta  occ. eigenvalues --   -0.59238  -0.56939  -0.56135  -0.53312  -0.52821
  Beta  occ. eigenvalues --   -0.52776  -0.52083  -0.51842  -0.51726  -0.50553
  Beta  occ. eigenvalues --   -0.50148  -0.48836  -0.48048  -0.47816  -0.47732
  Beta  occ. eigenvalues --   -0.47368  -0.46902  -0.46229  -0.45915  -0.45283
  Beta  occ. eigenvalues --   -0.45097  -0.44794  -0.44720  -0.44329  -0.43385
  Beta  occ. eigenvalues --   -0.42942  -0.42532  -0.42184  -0.42055  -0.41803
  Beta  occ. eigenvalues --   -0.41755  -0.41732  -0.41425  -0.41167  -0.40619
  Beta  occ. eigenvalues --   -0.40445  -0.40317  -0.40280  -0.40046  -0.39179
  Beta  occ. eigenvalues --   -0.39002  -0.38964  -0.38085  -0.37502  -0.37341
  Beta  occ. eigenvalues --   -0.37220  -0.37143  -0.36989  -0.36837  -0.36820
  Beta  occ. eigenvalues --   -0.36229  -0.36168  -0.35868  -0.35750  -0.34511
  Beta  occ. eigenvalues --   -0.34080  -0.33940  -0.33805  -0.33566  -0.33452
  Beta  occ. eigenvalues --   -0.32976  -0.32867  -0.32499  -0.31763  -0.31595
  Beta  occ. eigenvalues --   -0.31468  -0.30511  -0.30405  -0.30043  -0.28597
  Beta  occ. eigenvalues --   -0.28405  -0.27632  -0.25280  -0.24040  -0.22703
  Beta  occ. eigenvalues --   -0.19887  -0.16709  -0.12736
  Beta virt. eigenvalues --    0.08866   0.10653   0.14432   0.15549   0.15841
  Beta virt. eigenvalues --    0.16462   0.17622   0.17740   0.17786   0.18686
  Beta virt. eigenvalues --    0.18793   0.19185   0.19535   0.19905   0.20013

 Mulliken charges and spin densities:
               1          2
     1  C    0.248767   0.003857
     2  C    0.139579   0.004379
     3  C   -0.199148   0.000194
     4  C   -0.199245  -0.000019
     5  C   -0.179901   0.000192
     6  C   -0.175791   0.000170
     7  C    0.013031  -0.020197
     8  C    0.054231  -0.022042
     9  C   -0.167058  -0.001298
    10  C   -0.151296  -0.001267
    11  C   -0.047663   0.024961
    12  C   -0.062945   0.027947
    13  C   -0.416325   0.000419
    14  C   -0.430067  -0.000051
    15  C   -0.401427  -0.000654
    16  C   -0.348058  -0.000201
    17  C   -0.325686   0.109103
    18  C   -0.279917   0.106029
    19  C   -0.391327  -0.001048
    20  C   -0.389447  -0.001463
    21  C   -0.218129  -0.044246
    22  C   -0.239694  -0.044450
    23  C    0.141765   0.138468
    24  C    0.146574   0.135422
    25  C   -0.388482  -0.005506
    26  C   -0.390488  -0.005350
    27  C   -0.151659  -0.065697
    28  C   -0.160040  -0.065966
    29  C   -0.121319   0.153136
    30  C   -0.113687   0.152970
    31  C   -0.155606  -0.030256
    32  C   -0.202298  -0.030218
    33  C    0.075492   0.141793
    34  C    0.088124   0.121883
    35  C   -0.391789  -0.008484
    36  C   -0.396708  -0.003899
    37  C   -0.143258   0.009291
    38  C   -0.066744   0.013375
    39  C   -0.165772   0.091807
    40  C   -0.214230   0.082704
    41  H    0.086534  -0.000014
    42  H    0.093257   0.000110
    43  H    0.089911   0.000032
    44  H    0.091772   0.000293
    45  H    0.089125   0.000018
    46  H    0.089919   0.000037
    47  H    0.089622   0.000010
    48  H    0.087404   0.000047
    49  H    0.090869   0.001239
    50  H    0.098654   0.001266
    51  H    0.090099   0.001873
    52  H    0.089515   0.000516
    53  H    0.108962  -0.000020
    54  H    0.101504  -0.000176
    55  H    0.146057  -0.000132
    56  H    0.122229  -0.000052
    57  H    0.130232   0.000505
    58  H    0.109884  -0.000061
    59  H    0.111429   0.000045
    60  H    0.105099  -0.000006
    61  H    0.117548   0.000188
    62  H    0.119612  -0.000018
    63  H    0.127646   0.000301
    64  H    0.103524   0.000202
    65  H    0.127636  -0.004172
    66  H    0.113115  -0.004220
    67  H    0.155435   0.000150
    68  H    0.102136   0.000733
    69  H    0.120502   0.000871
    70  H    0.161985   0.000193
    71  H    0.115391   0.001005
    72  H    0.098407   0.000781
    73  H    0.105420   0.001218
    74  H    0.113872   0.001243
    75  H    0.111471   0.005363
    76  H    0.119251   0.000265
    77  H    0.108562   0.005170
    78  H    0.111545   0.005225
    79  H    0.108163   0.005076
    80  H    0.118884   0.000261
    81  H    0.078414   0.002324
    82  H    0.077005   0.002349
    83  H    0.081856  -0.005309
    84  H    0.081338  -0.005337
    85  H    0.080694   0.000999
    86  H    0.072616   0.000532
    87  H    0.106755   0.006008
    88  H    0.102115  -0.000135
    89  H    0.106783   0.006040
    90  H    0.110729   0.004205
    91  H    0.110628   0.004241
    92  H    0.109532   0.000174
    93  H    0.071591  -0.000139
    94  H    0.082301   0.000499
    95  H    0.070186  -0.003693
    96  H    0.052912  -0.003915
 Sum of Mulliken charges =  -1.00000   1.00000

 Dipole moment (field-independent basis, Debye):
    X=             -0.0376    Y=              0.9818    Z=              0.2061  Tot=              1.0039
 Quadrupole moment (field-independent basis, Debye-Ang):
   XX=           -472.1923   YY=           -257.6114   ZZ=           -266.8145
   XY=            -19.3992   XZ=             -7.0626   YZ=              1.1026

 Normal termination of Gaussian 16 at Wed Nov 13 01:28:03 2019.
