 Gaussian 16, Revision A.03,
 Gaussian 16:  ES64L-G16RevA.03 25-Dec-2016

 ------------------------------------------------------------
 # wB97XD/Def2TZVP iop(3/107=0150000000,3/108=0150000000) opt
 ------------------------------------------------------------

 -----
 TITLE
 -----
 Symbolic Z-matrix:
 Charge =  0 Multiplicity = 1

 SCF Done:  E(RwB97XD) =  -1557.98642250     A.U. after   13 cycles
 SCF Done:  E(RwB97XD) =  -1557.98662538     A.U. after   10 cycles
 SCF Done:  E(RwB97XD) =  -1557.98664491     A.U. after    9 cycles
 SCF Done:  E(RwB97XD) =  -1557.98665011     A.U. after    9 cycles
 SCF Done:  E(RwB97XD) =  -1557.98665173     A.U. after    8 cycles
 SCF Done:  E(RwB97XD) =  -1557.98665233     A.U. after    7 cycles
 SCF Done:  E(RwB97XD) =  -1557.98665273     A.U. after    7 cycles
 SCF Done:  E(RwB97XD) =  -1557.98665292     A.U. after    7 cycles
 SCF Done:  E(RwB97XD) =  -1557.98665301     A.U. after    6 cycles
 SCF Done:  E(RwB97XD) =  -1557.98665303     A.U. after    5 cycles
 Optimization completed.
    -- Stationary point found.

                         Standard orientation:
 ---------------------------------------------------------------------
 Center     Atomic      Atomic             Coordinates (Angstroms)
 Number     Number       Type             X           Y           Z
 ---------------------------------------------------------------------
      1          6           0       12.009463    0.506654   -0.792231
      2          6           0      -12.008469   -0.025127    0.879694
      3          6           0       13.311672   -0.303191   -0.688217
      4          6           0      -12.867755    1.173990    1.309438
      5          6           0       13.063742   -1.794178   -0.538597
      6          6           0      -13.308402    2.030934    0.136048
      7          6           0       10.979691    0.028373    0.243128
      8          6           0      -10.929245    0.410796   -0.125211
      9          6           0       12.287693   -2.048621    0.742890
     10          6           0      -12.087935    2.584590   -0.582702
     11          6           0       11.129437   -1.105103    0.950121
     12          6           0      -10.985441    1.574782   -0.796193
     13          6           0       11.407442    0.365259   -2.201258
     14          6           0       12.366685    1.985634   -0.564825
     15          6           0      -12.898986   -1.108962    0.244889
     16          6           0      -11.354123   -0.605695    2.143412
     17          6           0        9.800282    0.899292    0.396792
     18          6           0       -9.849365   -0.572930   -0.314889
     19          6           0       10.200686   -1.553925    2.045269
     20          6           0       -9.977267    2.011367   -1.824227
     21          6           0        8.528379    0.492312    0.293275
     22          6           0       -8.535892   -0.321590   -0.242373
     23          6           0        7.343987    1.329464    0.428022
     24          6           0       -7.465260   -1.296183   -0.401880
     25          6           0        7.542640    2.790321    0.711948
     26          6           0       -7.845700   -2.721860   -0.679533
     27          6           0        6.131261    0.747374    0.289915
     28          6           0       -6.187638   -0.867005   -0.290935
     29          6           0        4.836121    1.370816    0.382468
     30          6           0       -4.980292   -1.643141   -0.410230
     31          6           0        3.683672    0.689818    0.226807
     32          6           0       -3.750319   -1.108591   -0.280917
     33          6           0        2.352112    1.257379    0.307612
     34          6           0       -2.489507   -1.818244   -0.386898
     35          6           0        2.229889    2.730640    0.587834
     36          6           0       -2.534758   -3.293515   -0.666488
     37          6           0        1.226723    0.518289    0.141773
     38          6           0       -1.343026   -1.112727   -0.228163
     39          6           0        1.139462   -0.892918   -0.130889
     40          6           0        0.004535   -1.611917   -0.293520
     41          1           0       13.876387    0.047032    0.182848
     42          1           0       13.928202   -0.094605   -1.566926
     43          1           0      -12.284142    1.793771    1.998686
     44          1           0      -13.731467    0.807727    1.871641
     45          1           0       14.008287   -2.342054   -0.525796
     46          1           0       12.496397   -2.168489   -1.394937
     47          1           0      -13.948993    2.847277    0.476530
     48          1           0      -13.906151    1.436118   -0.559610
     49          1           0       12.957998   -1.969832    1.608749
     50          1           0       11.907265   -3.075190    0.763915
     51          1           0      -11.672168    3.427234   -0.014432
     52          1           0      -12.377350    3.003257   -1.550991
     53          1           0       11.193648   -0.677144   -2.442363
     54          1           0       12.098347    0.756665   -2.952473
     55          1           0       10.470339    0.919149   -2.279832
     56          1           0       12.668270    2.164224    0.469754
     57          1           0       11.537159    2.652906   -0.802482
     58          1           0       13.201843    2.263145   -1.212197
     59          1           0      -13.415429   -0.736037   -0.640277
     60          1           0      -13.649055   -1.449770    0.963205
     61          1           0      -12.315504   -1.980562   -0.056758
     62          1           0      -10.651095    0.106250    2.580424
     63          1           0      -10.807680   -1.526637    1.935487
     64          1           0      -12.120612   -0.830859    2.889290
     65          1           0        9.995418    1.953909    0.561238
     66          1           0      -10.169892   -1.600268   -0.464356
     67          1           0        9.533085   -0.766535    2.386877
     68          1           0       10.786529   -1.910115    2.897944
     69          1           0        9.586472   -2.398400    1.717163
     70          1           0       -9.315011    1.208297   -2.137612
     71          1           0       -9.357088    2.827399   -1.438794
     72          1           0      -10.490684    2.402549   -2.706777
     73          1           0        8.340950   -0.556712    0.082158
     74          1           0       -8.216721    0.695370   -0.033915
     75          1           0        8.096612    2.928724    1.643787
     76          1           0        6.604889    3.333089    0.797227
     77          1           0        8.129133    3.258692   -0.082744
     78          1           0       -8.433493   -2.791253   -1.598325
     79          1           0       -8.465364   -3.118123    0.129215
     80          1           0       -6.982246   -3.373397   -0.785825
     81          1           0        6.118263   -0.320217    0.084181
     82          1           0       -6.039803    0.190830   -0.087285
     83          1           0        4.795466    2.433842    0.586323
     84          1           0       -5.072244   -2.703347   -0.613305
     85          1           0        3.760371   -0.372469    0.023700
     86          1           0       -3.676120   -0.043099   -0.077301
     87          1           0        2.693785    2.990342    1.543156
     88          1           0        1.185489    3.037071    0.625385
     89          1           0        2.728882    3.321804   -0.184703
     90          1           0       -3.048795   -3.488847   -1.610957
     91          1           0       -3.089783   -3.814890    0.117408
     92          1           0       -1.546594   -3.741001   -0.727374
     93          1           0        0.286548    1.052074    0.224434
     94          1           0       -1.460510   -0.052609   -0.030208
     95          1           0        2.068524   -1.443222   -0.216006
     96          1           0        0.132277   -2.669020   -0.493115
 ---------------------------------------------------------------------

 The electronic state is 1-A.
 Alpha  occ. eigenvalues --  -10.27727 -10.27726 -10.27610 -10.27388 -10.27349
 Alpha  occ. eigenvalues --  -10.27296 -10.26660 -10.26536 -10.26448 -10.26406
 Alpha  occ. eigenvalues --  -10.26379 -10.26294 -10.26292 -10.26280 -10.26229
 Alpha  occ. eigenvalues --  -10.26214 -10.26210 -10.26041 -10.25942 -10.25834
 Alpha  occ. eigenvalues --  -10.25822 -10.25763 -10.25741 -10.25738 -10.25737
 Alpha  occ. eigenvalues --  -10.25724 -10.25634 -10.25629 -10.25516 -10.25469
 Alpha  occ. eigenvalues --  -10.25086 -10.25078 -10.24918 -10.24898 -10.24644
 Alpha  occ. eigenvalues --  -10.24573 -10.24557 -10.24514 -10.24162 -10.24154
 Alpha  occ. eigenvalues --   -0.93127  -0.93057  -0.91909  -0.91392  -0.90393
 Alpha  occ. eigenvalues --   -0.89754  -0.87071  -0.86391  -0.86299  -0.85720
 Alpha  occ. eigenvalues --   -0.84986  -0.83375  -0.82405  -0.80097  -0.79896
 Alpha  occ. eigenvalues --   -0.77975  -0.76642  -0.76619  -0.75681  -0.75632
 Alpha  occ. eigenvalues --   -0.75583  -0.75278  -0.74695  -0.74626  -0.74397
 Alpha  occ. eigenvalues --   -0.70424  -0.69596  -0.67285  -0.66708  -0.64617
 Alpha  occ. eigenvalues --   -0.64107  -0.63254  -0.62656  -0.61469  -0.60791
 Alpha  occ. eigenvalues --   -0.60243  -0.59676  -0.58106  -0.57352  -0.56333
 Alpha  occ. eigenvalues --   -0.55646  -0.54920  -0.54557  -0.54006  -0.53580
 Alpha  occ. eigenvalues --   -0.52778  -0.52160  -0.51961  -0.51634  -0.51283
 Alpha  occ. eigenvalues --   -0.50668  -0.50063  -0.49435  -0.49121  -0.49060
 Alpha  occ. eigenvalues --   -0.49000  -0.48959  -0.48807  -0.48690  -0.48648
 Alpha  occ. eigenvalues --   -0.48371  -0.48217  -0.46835  -0.46705  -0.46414
 Alpha  occ. eigenvalues --   -0.46184  -0.46161  -0.46017  -0.45725  -0.45440
 Alpha  occ. eigenvalues --   -0.45236  -0.45155  -0.44467  -0.44130  -0.43913
 Alpha  occ. eigenvalues --   -0.43704  -0.43227  -0.43151  -0.42813  -0.42669
 Alpha  occ. eigenvalues --   -0.42334  -0.41666  -0.41383  -0.41295  -0.41105
 Alpha  occ. eigenvalues --   -0.41017  -0.40843  -0.40587  -0.40471  -0.40261
 Alpha  occ. eigenvalues --   -0.39962  -0.39922  -0.39244  -0.38417  -0.38048
 Alpha  occ. eigenvalues --   -0.37982  -0.37488  -0.37238  -0.36409  -0.35747
 Alpha  occ. eigenvalues --   -0.35318  -0.34928  -0.33372  -0.30855  -0.29456
 Alpha  occ. eigenvalues --   -0.27815  -0.25279  -0.22573
 Alpha virt. eigenvalues --   -0.03127   0.00033   0.04004   0.06701   0.08607
 Alpha virt. eigenvalues --    0.09611   0.09912   0.10307   0.10716   0.10969
 Alpha virt. eigenvalues --    0.11571   0.11632   0.11949   0.12189   0.12389

 Mulliken charges:
               1
     1  C    0.204118
     2  C    0.099080
     3  C   -0.189489
     4  C   -0.186368
     5  C   -0.172276
     6  C   -0.171270
     7  C   -0.004294
     8  C    0.036643
     9  C   -0.164064
    10  C   -0.145956
    11  C   -0.034157
    12  C   -0.049722
    13  C   -0.401785
    14  C   -0.416682
    15  C   -0.387032
    16  C   -0.339789
    17  C   -0.286369
    18  C   -0.247504
    19  C   -0.386060
    20  C   -0.383837
    21  C   -0.225367
    22  C   -0.246561
    23  C    0.165465
    24  C    0.172062
    25  C   -0.377962
    26  C   -0.380330
    27  C   -0.162052
    28  C   -0.171262
    29  C   -0.069682
    30  C   -0.057331
    31  C   -0.159182
    32  C   -0.203126
    33  C    0.090916
    34  C    0.105686
    35  C   -0.382753
    36  C   -0.385550
    37  C   -0.124380
    38  C   -0.050120
    39  C   -0.139090
    40  C   -0.181568
    41  H    0.091761
    42  H    0.101157
    43  H    0.090160
    44  H    0.100210
    45  H    0.097160
    46  H    0.090758
    47  H    0.096935
    48  H    0.093009
    49  H    0.101811
    50  H    0.104554
    51  H    0.096565
    52  H    0.097507
    53  H    0.112171
    54  H    0.113358
    55  H    0.133377
    56  H    0.127417
    57  H    0.120831
    58  H    0.122388
    59  H    0.117534
    60  H    0.115532
    61  H    0.110106
    62  H    0.119582
    63  H    0.119977
    64  H    0.116919
    65  H    0.146492
    66  H    0.132772
    67  H    0.146777
    68  H    0.117423
    69  H    0.123646
    70  H    0.153107
    71  H    0.119975
    72  H    0.112444
    73  H    0.119564
    74  H    0.128002
    75  H    0.133050
    76  H    0.117577
    77  H    0.130856
    78  H    0.132691
    79  H    0.130262
    80  H    0.116984
    81  H    0.093811
    82  H    0.093708
    83  H    0.109672
    84  H    0.108042
    85  H    0.101729
    86  H    0.093177
    87  H    0.130166
    88  H    0.116455
    89  H    0.130324
    90  H    0.133178
    91  H    0.133141
    92  H    0.119102
    93  H    0.095683
    94  H    0.108984
    95  H    0.103850
    96  H    0.085580
 Sum of Mulliken charges =  -0.00000

 Dipole moment (field-independent basis, Debye):
    X=              0.2167    Y=              0.0995    Z=              0.0786  Tot=              0.2511
 Quadrupole moment (field-independent basis, Debye-Ang):
   XX=           -218.7332   YY=           -232.4381   ZZ=           -256.6906
   XY=             -1.8042   XZ=              1.2261   YZ=              3.1735

 Normal termination of Gaussian 16 at Wed Nov 13 08:42:25 2019.
