 Gaussian 16, Revision A.03,
 Gaussian 16:  ES64L-G16RevA.03 25-Dec-2016

 ------------------------------------------------------------
 # wB97XD/Def2TZVP iop(3/107=0106300000,3/108=0106300000) opt
 ------------------------------------------------------------

 -----
 TITLE
 -----
 Symbolic Z-matrix:
 Charge =  0 Multiplicity = 1

 SCF Done:  E(RwB97XD) =  -1558.12759515     A.U. after   14 cycles
 SCF Done:  E(RwB97XD) =  -1558.12761222     A.U. after    9 cycles
 SCF Done:  E(RwB97XD) =  -1558.12761419     A.U. after    9 cycles
 SCF Done:  E(RwB97XD) =  -1558.12761537     A.U. after    8 cycles
 SCF Done:  E(RwB97XD) =  -1558.12761546     A.U. after    6 cycles
 SCF Done:  E(RwB97XD) =  -1558.12761550     A.U. after    6 cycles
 Optimization completed.
    -- Stationary point found.

                         Standard orientation:
 ---------------------------------------------------------------------
 Center     Atomic      Atomic             Coordinates (Angstroms)
 Number     Number       Type             X           Y           Z
 ---------------------------------------------------------------------
      1          6           0       12.020006    0.506588   -0.801837
      2          6           0      -12.019908   -0.015205    0.878373
      3          6           0       13.320985   -0.310780   -0.704938
      4          6           0      -12.877739    1.190766    1.300439
      5          6           0       13.068422   -1.802556   -0.555884
      6          6           0      -13.315024    2.044440    0.121483
      7          6           0       10.988235    0.027299    0.235394
      8          6           0      -10.936260    0.412387   -0.129756
      9          6           0       12.294026   -2.056608    0.728464
     10          6           0      -12.091702    2.588421   -0.603072
     11          6           0       11.138377   -1.109143    0.941602
     12          6           0      -10.991304    1.573066   -0.810634
     13          6           0       11.413037    0.374729   -2.212531
     14          6           0       12.386548    1.985040   -0.567634
     15          6           0      -12.914132   -1.102023    0.247438
     16          6           0      -11.368478   -0.590450    2.149128
     17          6           0        9.811331    0.900805    0.392729
     18          6           0       -9.859275   -0.575557   -0.313800
     19          6           0       10.213882   -1.555497    2.043349
     20          6           0       -9.985232    1.998078   -1.847570
     21          6           0        8.534234    0.498904    0.297342
     22          6           0       -8.541649   -0.330399   -0.244136
     23          6           0        7.353877    1.338416    0.435245
     24          6           0       -7.475091   -1.307544   -0.400544
     25          6           0        7.553701    2.800658    0.719571
     26          6           0       -7.856367   -2.734593   -0.678495
     27          6           0        6.136094    0.757213    0.299303
     28          6           0       -6.192858   -0.880204   -0.287417
     29          6           0        4.843346    1.379243    0.393838
     30          6           0       -4.987739   -1.655345   -0.403374
     31          6           0        3.686403    0.697976    0.239656
     32          6           0       -3.753377   -1.121409   -0.272429
     33          6           0        2.356515    1.262219    0.321539
     34          6           0       -2.494183   -1.828900   -0.375375
     35          6           0        2.227645    2.736817    0.601514
     36          6           0       -2.533408   -3.306335   -0.653706
     37          6           0        1.228267    0.518920    0.156475
     38          6           0       -1.345138   -1.119403   -0.215132
     39          6           0        1.139052   -0.889340   -0.114265
     40          6           0        0.001487   -1.612276   -0.277467
     41          1           0       13.891829    0.035617    0.162961
     42          1           0       13.934496   -0.104272   -1.585741
     43          1           0      -12.294446    1.812040    1.987745
     44          1           0      -13.743541    0.830894    1.862800
     45          1           0       14.011355   -2.352943   -0.545669
     46          1           0       12.498801   -2.175007   -1.410980
     47          1           0      -13.950508    2.866024    0.458418
     48          1           0      -13.917385    1.449999   -0.569833
     49          1           0       12.967196   -1.983167    1.592271
     50          1           0       11.910873   -3.081957    0.748004
     51          1           0      -11.673024    3.434086   -0.041912
     52          1           0      -12.381141    3.001400   -1.573500
     53          1           0       11.190636   -0.664637   -2.457075
     54          1           0       12.104539    0.763008   -2.964253
     55          1           0       10.480399    0.935696   -2.287635
     56          1           0       12.693124    2.157029    0.466126
     57          1           0       11.560479    2.658257   -0.798373
     58          1           0       13.220333    2.262099   -1.216313
     59          1           0      -13.425586   -0.733945   -0.642156
     60          1           0      -13.668429   -1.434654    0.964563
     61          1           0      -12.333877   -1.978126   -0.045608
     62          1           0      -10.666395    0.122669    2.584627
     63          1           0      -10.822474   -1.512624    1.948117
     64          1           0      -12.136243   -0.811297    2.894442
     65          1           0       10.010522    1.955160    0.550598
     66          1           0      -10.183856   -1.602172   -0.455774
     67          1           0        9.547362   -0.767728    2.385028
     68          1           0       10.803173   -1.907117    2.895286
     69          1           0        9.599155   -2.402067    1.722443
     70          1           0       -9.320681    1.193089   -2.149589
     71          1           0       -9.367817    2.822734   -1.477037
     72          1           0      -10.501094    2.372794   -2.735659
     73          1           0        8.342296   -0.549123    0.088519
     74          1           0       -8.218794    0.685535   -0.039394
     75          1           0        8.111369    2.939441    1.648831
     76          1           0        6.616390    3.342694    0.809822
     77          1           0        8.135170    3.270836   -0.077353
     78          1           0       -8.443481   -2.804643   -1.597362
     79          1           0       -8.475408   -3.131846    0.129840
     80          1           0       -6.993268   -3.386030   -0.784801
     81          1           0        6.122979   -0.309937    0.093570
     82          1           0       -6.045297    0.177380   -0.084589
     83          1           0        4.802891    2.441787    0.597770
     84          1           0       -5.079780   -2.715259   -0.605395
     85          1           0        3.763025   -0.363851    0.036262
     86          1           0       -3.680028   -0.056137   -0.069823
     87          1           0        2.689665    2.999572    1.556635
     88          1           0        1.182430    3.039290    0.639185
     89          1           0        2.723199    3.330483   -0.170971
     90          1           0       -3.043628   -3.505559   -1.599106
     91          1           0       -3.087123   -3.829768    0.129350
     92          1           0       -1.543590   -3.749763   -0.711877
     93          1           0        0.288836    1.053093    0.239715
     94          1           0       -1.466233   -0.059788   -0.018652
     95          1           0        2.067118   -1.440961   -0.198447
     96          1           0        0.133859   -2.668837   -0.475363
 ---------------------------------------------------------------------

 The electronic state is 1-A.
 Alpha  occ. eigenvalues --  -10.25737 -10.25732 -10.25624 -10.25445 -10.25411
 Alpha  occ. eigenvalues --  -10.25390 -10.24634 -10.24527 -10.24444 -10.24376
 Alpha  occ. eigenvalues --  -10.24364 -10.24334 -10.24320 -10.24275 -10.24233
 Alpha  occ. eigenvalues --  -10.24218 -10.24217 -10.24050 -10.23933 -10.23850
 Alpha  occ. eigenvalues --  -10.23837 -10.23798 -10.23793 -10.23767 -10.23742
 Alpha  occ. eigenvalues --  -10.23732 -10.23644 -10.23639 -10.23552 -10.23508
 Alpha  occ. eigenvalues --  -10.23117 -10.23112 -10.22948 -10.22932 -10.22672
 Alpha  occ. eigenvalues --  -10.22595 -10.22587 -10.22539 -10.22187 -10.22173
 Alpha  occ. eigenvalues --   -0.90783  -0.90714  -0.89602  -0.89089  -0.88096
 Alpha  occ. eigenvalues --   -0.87457  -0.84792  -0.84106  -0.84015  -0.83452
 Alpha  occ. eigenvalues --   -0.82724  -0.81128  -0.80169  -0.77879  -0.77682
 Alpha  occ. eigenvalues --   -0.75800  -0.74450  -0.74434  -0.73502  -0.73462
 Alpha  occ. eigenvalues --   -0.73405  -0.73093  -0.72521  -0.72459  -0.72173
 Alpha  occ. eigenvalues --   -0.68328  -0.67471  -0.65170  -0.64587  -0.62530
 Alpha  occ. eigenvalues --   -0.62008  -0.61146  -0.60548  -0.59380  -0.58686
 Alpha  occ. eigenvalues --   -0.58148  -0.57588  -0.56019  -0.55235  -0.54269
 Alpha  occ. eigenvalues --   -0.53561  -0.52844  -0.52472  -0.51933  -0.51518
 Alpha  occ. eigenvalues --   -0.50737  -0.50105  -0.49913  -0.49598  -0.49258
 Alpha  occ. eigenvalues --   -0.48668  -0.48039  -0.47427  -0.47136  -0.47058
 Alpha  occ. eigenvalues --   -0.46981  -0.46937  -0.46810  -0.46682  -0.46648
 Alpha  occ. eigenvalues --   -0.46396  -0.46265  -0.44906  -0.44772  -0.44482
 Alpha  occ. eigenvalues --   -0.44256  -0.44227  -0.44084  -0.43803  -0.43533
 Alpha  occ. eigenvalues --   -0.43344  -0.43250  -0.42570  -0.42237  -0.41991
 Alpha  occ. eigenvalues --   -0.41816  -0.41382  -0.41304  -0.40922  -0.40743
 Alpha  occ. eigenvalues --   -0.40474  -0.39802  -0.39528  -0.39446  -0.39257
 Alpha  occ. eigenvalues --   -0.39005  -0.38994  -0.38738  -0.38637  -0.38427
 Alpha  occ. eigenvalues --   -0.38112  -0.37987  -0.37265  -0.36679  -0.36241
 Alpha  occ. eigenvalues --   -0.36184  -0.35627  -0.35398  -0.34563  -0.33944
 Alpha  occ. eigenvalues --   -0.33561  -0.33131  -0.31580  -0.29145  -0.27776
 Alpha  occ. eigenvalues --   -0.26211  -0.23777  -0.21097
 Alpha virt. eigenvalues --   -0.03968  -0.00782   0.03065   0.05711   0.07636
 Alpha virt. eigenvalues --    0.08775   0.09792   0.09935   0.10509   0.10708
 Alpha virt. eigenvalues --    0.10803   0.11409   0.11745   0.11892   0.11980

 Mulliken charges:
               1
     1  C    0.176733
     2  C    0.071138
     3  C   -0.168319
     4  C   -0.164409
     5  C   -0.153098
     6  C   -0.153230
     7  C   -0.010404
     8  C    0.031395
     9  C   -0.151207
    10  C   -0.132583
    11  C   -0.027467
    12  C   -0.042827
    13  C   -0.384307
    14  C   -0.400732
    15  C   -0.368454
    16  C   -0.324170
    17  C   -0.291772
    18  C   -0.255503
    19  C   -0.373563
    20  C   -0.371985
    21  C   -0.216808
    22  C   -0.238327
    23  C    0.154951
    24  C    0.162841
    25  C   -0.366145
    26  C   -0.368572
    27  C   -0.149609
    28  C   -0.159019
    29  C   -0.075562
    30  C   -0.063071
    31  C   -0.150850
    32  C   -0.193310
    33  C    0.076452
    34  C    0.097011
    35  C   -0.368971
    36  C   -0.375063
    37  C   -0.116740
    38  C   -0.041215
    39  C   -0.138512
    40  C   -0.185350
    41  H    0.086040
    42  H    0.094400
    43  H    0.084276
    44  H    0.093452
    45  H    0.087841
    46  H    0.085662
    47  H    0.087705
    48  H    0.088098
    49  H    0.095956
    50  H    0.097936
    51  H    0.090418
    52  H    0.090891
    53  H    0.108867
    54  H    0.109134
    55  H    0.131199
    56  H    0.123934
    57  H    0.117644
    58  H    0.118617
    59  H    0.114390
    60  H    0.111334
    61  H    0.105745
    62  H    0.115770
    63  H    0.118853
    64  H    0.113034
    65  H    0.149680
    66  H    0.137346
    67  H    0.145642
    68  H    0.113246
    69  H    0.118597
    70  H    0.152044
    71  H    0.114653
    72  H    0.108296
    73  H    0.118079
    74  H    0.126600
    75  H    0.129252
    76  H    0.112401
    77  H    0.127509
    78  H    0.128917
    79  H    0.126801
    80  H    0.111916
    81  H    0.088778
    82  H    0.089204
    83  H    0.114145
    84  H    0.112224
    85  H    0.102149
    86  H    0.088529
    87  H    0.126897
    88  H    0.111156
    89  H    0.127020
    90  H    0.129578
    91  H    0.129559
    92  H    0.114891
    93  H    0.094428
    94  H    0.108195
    95  H    0.099362
    96  H    0.082349
 Sum of Mulliken charges =  -0.00000

 Dipole moment (field-independent basis, Debye):
    X=              0.2064    Y=              0.1062    Z=              0.0704  Tot=              0.2426
 Quadrupole moment (field-independent basis, Debye-Ang):
   XX=           -216.2721   YY=           -231.1164   ZZ=           -255.2828
   XY=             -1.8911   XZ=              1.1255   YZ=              3.1083

 Normal termination of Gaussian 16 at Fri Nov 15 17:53:45 2019.
