 Gaussian 16, Revision A.03,
 Gaussian 16:  ES64L-G16RevA.03 25-Dec-2016

 ------------------------------------------------------------
 # wB97XD/Def2TZVP iop(3/107=0100000000,3/108=0100000000) opt
 ------------------------------------------------------------

 -----
 TITLE
 -----
 Symbolic Z-matrix:
 Charge =  0 Multiplicity = 1

 SCF Done:  E(RwB97XD) =  -1558.15778024     A.U. after   14 cycles
 SCF Done:  E(RwB97XD) =  -1558.15867119     A.U. after   11 cycles
 SCF Done:  E(RwB97XD) =  -1558.15875988     A.U. after   11 cycles
 SCF Done:  E(RwB97XD) =  -1558.15878382     A.U. after   10 cycles
 SCF Done:  E(RwB97XD) =  -1558.15879550     A.U. after    9 cycles
 SCF Done:  E(RwB97XD) =  -1558.15879720     A.U. after    9 cycles
 SCF Done:  E(RwB97XD) =  -1558.15879819     A.U. after    8 cycles
 SCF Done:  E(RwB97XD) =  -1558.15879857     A.U. after    8 cycles
 SCF Done:  E(RwB97XD) =  -1558.15879869     A.U. after    7 cycles
 SCF Done:  E(RwB97XD) =  -1558.15879874     A.U. after    6 cycles
 Optimization completed.
    -- Stationary point found.

                         Standard orientation:
 ---------------------------------------------------------------------
 Center     Atomic      Atomic             Coordinates (Angstroms)
 Number     Number       Type             X           Y           Z
 ---------------------------------------------------------------------
      1          6           0       12.020219    0.505528   -0.805665
      2          6           0      -12.020787   -0.012661    0.878931
      3          6           0       13.321296   -0.312640   -0.710149
      4          6           0      -12.877855    1.194933    1.299440
      5          6           0       13.068517   -1.804368   -0.558482
      6          6           0      -13.315392    2.047257    0.119272
      7          6           0       10.989536    0.027576    0.234039
      8          6           0      -10.937114    0.412601   -0.130961
      9          6           0       12.295840   -2.056542    0.727581
     10          6           0      -12.092106    2.588754   -0.607750
     11          6           0       11.140798   -1.108145    0.941698
     12          6           0      -10.992465    1.572011   -0.814499
     13          6           0       11.410704    0.372721   -2.215658
     14          6           0       12.388212    1.984394   -0.573257
     15          6           0      -12.916291   -1.100281    0.250069
     16          6           0      -11.368992   -0.586205    2.150800
     17          6           0        9.813047    0.901668    0.392099
     18          6           0       -9.860756   -0.576333   -0.314040
     19          6           0       10.218579   -1.552415    2.046577
     20          6           0       -9.987848    1.993950   -1.854479
     21          6           0        8.535161    0.500577    0.298526
     22          6           0       -8.542495   -0.332386   -0.244811
     23          6           0        7.355343    1.340502    0.436902
     24          6           0       -7.476585   -1.310098   -0.400633
     25          6           0        7.555370    2.803116    0.720761
     26          6           0       -7.858104   -2.737365   -0.678749
     27          6           0        6.136840    0.759327    0.301682
     28          6           0       -6.193670   -0.883132   -0.286972
     29          6           0        4.844326    1.381052    0.396448
     30          6           0       -4.988806   -1.658140   -0.402223
     31          6           0        3.686797    0.699590    0.242706
     32          6           0       -3.753835   -1.124289   -0.270753
     33          6           0        2.356989    1.263125    0.324575
     34          6           0       -2.494727   -1.831325   -0.373024
     35          6           0        2.226832    2.738022    0.604212
     36          6           0       -2.532778   -3.309128   -0.651319
     37          6           0        1.228446    0.519011    0.159678
     38          6           0       -1.345468   -1.121040   -0.212287
     39          6           0        1.139005   -0.888907   -0.110557
     40          6           0        0.001199   -1.612633   -0.273892
     41          1           0       13.894105    0.034654    0.155950
     42          1           0       13.933236   -0.107802   -1.592326
     43          1           0      -12.294027    1.816873    1.985506
     44          1           0      -13.743628    0.836733    1.862751
     45          1           0       14.011369   -2.354835   -0.548770
     46          1           0       12.497812   -2.178122   -1.412167
     47          1           0      -13.949473    2.870131    0.455593
     48          1           0      -13.919336    1.452576   -0.570312
     49          1           0       12.970436   -1.982791    1.590166
     50          1           0       11.912278   -3.081648    0.748712
     51          1           0      -11.672179    3.435150   -0.048747
     52          1           0      -12.382305    3.000178   -1.578536
     53          1           0       11.186699   -0.666563   -2.458701
     54          1           0       12.101304    0.759233   -2.969002
     55          1           0       10.478679    0.934613   -2.290061
     56          1           0       12.696886    2.157113    0.459664
     57          1           0       11.562246    2.657966   -0.802881
     58          1           0       13.220842    2.260578   -1.223654
     59          1           0      -13.427384   -0.733640   -0.640223
     60          1           0      -13.670928   -1.430805    0.967686
     61          1           0      -12.337000   -1.977499   -0.041193
     62          1           0      -10.666631    0.127270    2.585036
     63          1           0      -10.823384   -1.508813    1.951243
     64          1           0      -12.136428   -0.805672    2.896747
     65          1           0       10.013005    1.955991    0.548452
     66          1           0      -10.186186   -1.602733   -0.454753
     67          1           0        9.551815   -0.764494    2.387124
     68          1           0       10.809694   -1.900594    2.898615
     69          1           0        9.604362   -2.400731    1.729521
     70          1           0       -9.322000    1.188913   -2.153117
     71          1           0       -9.371915    2.821785   -1.488775
     72          1           0      -10.505172    2.363020   -2.744052
     73          1           0        8.342455   -0.547350    0.090556
     74          1           0       -8.218902    0.683340   -0.040814
     75          1           0        8.113957    2.942295    1.649337
     76          1           0        6.618155    3.345006    0.812016
     77          1           0        8.135649    3.273378   -0.076892
     78          1           0       -8.445375   -2.807375   -1.597443
     79          1           0       -8.476749   -3.134917    0.129653
     80          1           0       -6.995121   -3.388770   -0.785465
     81          1           0        6.123703   -0.307797    0.096294
     82          1           0       -6.046084    0.174374   -0.084238
     83          1           0        4.803854    2.443539    0.600100
     84          1           0       -5.080847   -2.717959   -0.604164
     85          1           0        3.763492   -0.362181    0.039538
     86          1           0       -3.680670   -0.059085   -0.068239
     87          1           0        2.688485    3.001536    1.559236
     88          1           0        1.181464    3.039745    0.641849
     89          1           0        2.721707    3.331992   -0.168394
     90          1           0       -3.042168   -3.508925   -1.596973
     91          1           0       -3.086327   -3.833040    0.131443
     92          1           0       -1.542656   -3.751791   -0.708943
     93          1           0        0.289076    1.053126    0.242806
     94          1           0       -1.467269   -0.061554   -0.016014
     95          1           0        2.066975   -1.440623   -0.194410
     96          1           0        0.134536   -2.669088   -0.471362
 ---------------------------------------------------------------------

 The electronic state is 1-A.
 Alpha  occ. eigenvalues --  -10.25446 -10.25439 -10.25333 -10.25168 -10.25122
 Alpha  occ. eigenvalues --  -10.25113 -10.24336 -10.24232 -10.24150 -10.24078
 Alpha  occ. eigenvalues --  -10.24068 -10.24046 -10.24032 -10.23979 -10.23940
 Alpha  occ. eigenvalues --  -10.23926 -10.23924 -10.23758 -10.23638 -10.23559
 Alpha  occ. eigenvalues --  -10.23546 -10.23513 -10.23508 -10.23476 -10.23451
 Alpha  occ. eigenvalues --  -10.23439 -10.23354 -10.23348 -10.23264 -10.23221
 Alpha  occ. eigenvalues --  -10.22828 -10.22825 -10.22659 -10.22644 -10.22383
 Alpha  occ. eigenvalues --  -10.22306 -10.22299 -10.22250 -10.21898 -10.21884
 Alpha  occ. eigenvalues --   -0.90440  -0.90372  -0.89265  -0.88753  -0.87761
 Alpha  occ. eigenvalues --   -0.87122  -0.84459  -0.83771  -0.83681  -0.83120
 Alpha  occ. eigenvalues --   -0.82393  -0.80800  -0.79842  -0.77555  -0.77359
 Alpha  occ. eigenvalues --   -0.75482  -0.74130  -0.74114  -0.73184  -0.73145
 Alpha  occ. eigenvalues --   -0.73086  -0.72773  -0.72203  -0.72142  -0.71847
 Alpha  occ. eigenvalues --   -0.68018  -0.67157  -0.64858  -0.64274  -0.62222
 Alpha  occ. eigenvalues --   -0.61696  -0.60833  -0.60236  -0.59071  -0.58374
 Alpha  occ. eigenvalues --   -0.57836  -0.57277  -0.55707  -0.54918  -0.53960
 Alpha  occ. eigenvalues --   -0.53248  -0.52532  -0.52158  -0.51621  -0.51207
 Alpha  occ. eigenvalues --   -0.50429  -0.49795  -0.49604  -0.49291  -0.48953
 Alpha  occ. eigenvalues --   -0.48366  -0.47734  -0.47124  -0.46835  -0.46756
 Alpha  occ. eigenvalues --   -0.46677  -0.46633  -0.46508  -0.46380  -0.46347
 Alpha  occ. eigenvalues --   -0.46098  -0.45969  -0.44613  -0.44479  -0.44189
 Alpha  occ. eigenvalues --   -0.43963  -0.43933  -0.43790  -0.43511  -0.43244
 Alpha  occ. eigenvalues --   -0.43056  -0.42961  -0.42281  -0.41949  -0.41698
 Alpha  occ. eigenvalues --   -0.41528  -0.41101  -0.41023  -0.40633  -0.40449
 Alpha  occ. eigenvalues --   -0.40190  -0.39515  -0.39244  -0.39163  -0.38974
 Alpha  occ. eigenvalues --   -0.38711  -0.38699  -0.38456  -0.38357  -0.38144
 Alpha  occ. eigenvalues --   -0.37832  -0.37686  -0.36962  -0.36410  -0.35963
 Alpha  occ. eigenvalues --   -0.35907  -0.35340  -0.35114  -0.34276  -0.33664
 Alpha  occ. eigenvalues --   -0.33287  -0.32849  -0.31294  -0.28870  -0.27507
 Alpha  occ. eigenvalues --   -0.25955  -0.23539  -0.20865
 Alpha virt. eigenvalues --   -0.04101  -0.00915   0.02911   0.05550   0.07472
 Alpha virt. eigenvalues --    0.08623   0.09771   0.09881   0.10456   0.10589
 Alpha virt. eigenvalues --    0.10767   0.11371   0.11709   0.11748   0.11942

 Mulliken charges:
               1
     1  C    0.172356
     2  C    0.066600
     3  C   -0.164381
     4  C   -0.160428
     5  C   -0.149652
     6  C   -0.149959
     7  C   -0.012157
     8  C    0.029857
     9  C   -0.148630
    10  C   -0.130118
    11  C   -0.026493
    12  C   -0.041481
    13  C   -0.380872
    14  C   -0.397741
    15  C   -0.364777
    16  C   -0.321161
    17  C   -0.292474
    18  C   -0.256741
    19  C   -0.370599
    20  C   -0.369336
    21  C   -0.215036
    22  C   -0.236613
    23  C    0.153064
    24  C    0.161114
    25  C   -0.363834
    26  C   -0.366267
    27  C   -0.147416
    28  C   -0.156821
    29  C   -0.076611
    30  C   -0.064119
    31  C   -0.149471
    32  C   -0.191501
    33  C    0.073978
    34  C    0.095460
    35  C   -0.366282
    36  C   -0.372991
    37  C   -0.115385
    38  C   -0.039788
    39  C   -0.138208
    40  C   -0.185908
    41  H    0.084952
    42  H    0.093114
    43  H    0.083174
    44  H    0.092170
    45  H    0.086116
    46  H    0.084706
    47  H    0.085992
    48  H    0.087158
    49  H    0.094808
    50  H    0.096622
    51  H    0.089240
    52  H    0.089660
    53  H    0.108167
    54  H    0.108273
    55  H    0.130701
    56  H    0.123185
    57  H    0.117056
    58  H    0.117823
    59  H    0.113736
    60  H    0.110479
    61  H    0.104810
    62  H    0.114954
    63  H    0.118586
    64  H    0.112230
    65  H    0.150252
    66  H    0.138193
    67  H    0.145266
    68  H    0.112358
    69  H    0.117492
    70  H    0.151689
    71  H    0.113511
    72  H    0.107498
    73  H    0.117716
    74  H    0.126258
    75  H    0.128476
    76  H    0.111346
    77  H    0.126820
    78  H    0.128143
    79  H    0.126093
    80  H    0.110883
    81  H    0.087865
    82  H    0.088384
    83  H    0.115032
    84  H    0.113050
    85  H    0.102195
    86  H    0.087686
    87  H    0.126208
    88  H    0.110113
    89  H    0.126323
    90  H    0.128833
    91  H    0.128818
    92  H    0.114045
    93  H    0.094219
    94  H    0.107997
    95  H    0.098531
    96  H    0.081816
 Sum of Mulliken charges =  -0.00000

 Dipole moment (field-independent basis, Debye):
    X=              0.2036    Y=              0.1076    Z=              0.0681  Tot=              0.2401
 Quadrupole moment (field-independent basis, Debye-Ang):
   XX=           -215.8961   YY=           -230.9050   ZZ=           -255.0381
   XY=             -1.8882   XZ=              1.1120   YZ=              3.0950

 Normal termination of Gaussian 16 at Tue Nov 12 06:33:47 2019.
