 Gaussian 16, Revision A.03,
 Gaussian 16:  ES64L-G16RevA.03 25-Dec-2016

 ------------------------------------------------------------
 # wB97XD/Def2TZVP iop(3/107=0125000000,3/108=0125000000) opt
 ------------------------------------------------------------

 -----
 TITLE
 -----
 Symbolic Z-matrix:
 Charge =  0 Multiplicity = 1

 SCF Done:  E(RwB97XD) =  -1558.05160521     A.U. after   14 cycles
 SCF Done:  E(RwB97XD) =  -1558.05244637     A.U. after   12 cycles
 SCF Done:  E(RwB97XD) =  -1558.05252629     A.U. after   11 cycles
 SCF Done:  E(RwB97XD) =  -1558.05257440     A.U. after   11 cycles
 SCF Done:  E(RwB97XD) =  -1558.05257916     A.U. after    9 cycles
 SCF Done:  E(RwB97XD) =  -1558.05258182     A.U. after    9 cycles
 SCF Done:  E(RwB97XD) =  -1558.05258326     A.U. after    8 cycles
 SCF Done:  E(RwB97XD) =  -1558.05258380     A.U. after    7 cycles
 SCF Done:  E(RwB97XD) =  -1558.05258399     A.U. after    6 cycles
 SCF Done:  E(RwB97XD) =  -1558.05258403     A.U. after    5 cycles
 Optimization completed.
    -- Stationary point found.

                         Standard orientation:
 ---------------------------------------------------------------------
 Center     Atomic      Atomic             Coordinates (Angstroms)
 Number     Number       Type             X           Y           Z
 ---------------------------------------------------------------------
      1          6           0      -12.017543   -0.508895   -0.794146
      2          6           0       12.015951    0.020514    0.877949
      3          6           0      -13.318692    0.305691   -0.694086
      4          6           0       12.874996   -1.181801    1.303907
      5          6           0      -13.067491    1.797460   -0.549662
      6          6           0       13.312803   -2.038011    0.127855
      7          6           0      -10.984575   -0.027235    0.238770
      8          6           0       10.933499   -0.411901   -0.127333
      9          6           0      -12.290282    2.055107    0.731450
     10          6           0       12.090083   -2.587432   -0.592118
     11          6           0      -11.133227    1.109921    0.942572
     12          6           0       10.988520   -1.574909   -0.802584
     13          6           0      -11.415466   -0.377135   -2.205622
     14          6           0      -12.379893   -1.986761   -0.557871
     15          6           0       12.907829    1.105445    0.243446
     16          6           0       11.364208    0.599326    2.145484
     17          6           0       -9.806368   -0.899079    0.394358
     18          6           0        9.855081    0.573834   -0.313927
     19          6           0      -10.204933    1.560312    2.038503
     20          6           0        9.980722   -2.006229   -1.834232
     21          6           0       -8.531542   -0.494747    0.295012
     22          6           0        8.539263    0.325665   -0.242908
     23          6           0       -7.349488   -1.333141    0.431535
     24          6           0        7.470906    1.301526   -0.400747
     25          6           0       -7.548747   -2.794658    0.715974
     26          6           0        7.851707    2.727947   -0.678479
     27          6           0       -6.133861   -0.751613    0.294433
     28          6           0        6.190657    0.873317   -0.288746
     29          6           0       -4.840217   -1.374406    0.388173
     30          6           0        4.984689    1.648951   -0.406364
     31          6           0       -3.685116   -0.693421    0.233234
     32          6           0        3.752165    1.114822   -0.276320
     33          6           0       -2.354703   -1.259431    0.314788
     34          6           0        2.492469    1.823492   -0.380837
     35          6           0       -2.229184   -2.733367    0.595092
     36          6           0        2.534739    3.299890   -0.659759
     37          6           0       -1.227532   -0.518214    0.149313
     38          6           0        1.344306    1.116052   -0.221427
     39          6           0       -1.139095    0.891240   -0.122479
     40          6           0       -0.002486    1.612188   -0.285385
     41          1           0      -13.885293   -0.039708    0.177354
     42          1           0      -13.935193    0.095734   -1.572253
     43          1           0       12.292235   -1.801838    1.993239
     44          1           0       13.740314   -0.818290    1.865080
     45          1           0      -14.010918    2.347153   -0.538513
     46          1           0      -12.499945    2.167915   -1.407306
     47          1           0       13.951278   -2.856698    0.466469
     48          1           0       13.912062   -1.443820   -0.566736
     49          1           0      -12.960809    1.981664    1.597498
     50          1           0      -11.908192    3.081046    0.748317
     51          1           0       11.673357   -3.431015   -0.026111
     52          1           0       12.378499   -3.004326   -1.561346
     53          1           0      -11.197440    0.662901   -2.452247
     54          1           0      -12.108129   -0.769215   -2.954597
     55          1           0      -10.480877   -0.935121   -2.282255
     56          1           0      -12.682112   -2.158521    0.477450
     57          1           0      -11.553024   -2.658374   -0.791540
     58          1           0      -13.215797   -2.265562   -1.203415
     59          1           0       13.421130    0.734169   -0.644013
     60          1           0       13.660544    1.442822    0.960335
     61          1           0       12.325689    1.979033   -0.054234
     62          1           0       10.662180   -0.112993    2.582959
     63          1           0       10.817640    1.520670    1.940856
     64          1           0       12.132043    0.822997    2.890174
     65          1           0      -10.003398   -1.953652    0.555260
     66          1           0       10.177598    1.600910   -0.459301
     67          1           0       -9.538486    0.773091    2.382270
     68          1           0      -10.791222    1.917975    2.890139
     69          1           0       -9.589669    2.403947    1.710510
     70          1           0        9.317102   -1.202309   -2.141893
     71          1           0        9.362155   -2.826490   -1.455535
     72          1           0       10.494828   -2.389609   -2.719748
     73          1           0       -8.341637    0.553676    0.084723
     74          1           0        8.218188   -0.690784   -0.036352
     75          1           0       -8.104449   -2.933092    1.646641
     76          1           0       -6.611186   -3.337053    0.803698
     77          1           0       -8.132853   -3.264119   -0.079662
     78          1           0        8.438777    2.797844   -1.597565
     79          1           0        8.471437    3.124593    0.129851
     80          1           0        6.988377    3.379474   -0.784257
     81          1           0       -6.120743    0.315732    0.088502
     82          1           0        6.042965   -0.184420   -0.085574
     83          1           0       -4.799783   -2.437192    0.592252
     84          1           0        5.076777    2.709040   -0.608873
     85          1           0       -3.761606    0.368638    0.029802
     86          1           0        3.678294    0.049426   -0.073257
     87          1           0       -2.692315   -2.994526    1.550271
     88          1           0       -1.184375   -3.037817    0.632916
     89          1           0       -2.726337   -3.325922   -0.177421
     90          1           0        3.046832    3.497244   -1.604721
     91          1           0        3.089150    3.822298    0.123711
     92          1           0        1.545725    3.745354   -0.719216
     93          1           0       -0.287811   -1.052356    0.232447
     94          1           0        1.463508    0.056147   -0.024206
     95          1           0       -2.067557    1.442389   -0.207268
     96          1           0       -0.132431    2.669039   -0.484212
 ---------------------------------------------------------------------

 The electronic state is 1-A.
 Alpha  occ. eigenvalues --  -10.26595 -10.26593 -10.26481 -10.26265 -10.26264
 Alpha  occ. eigenvalues --  -10.26211 -10.25510 -10.25395 -10.25310 -10.25254
 Alpha  occ. eigenvalues --  -10.25235 -10.25183 -10.25167 -10.25147 -10.25096
 Alpha  occ. eigenvalues --  -10.25080 -10.25079 -10.24910 -10.24801 -10.24707
 Alpha  occ. eigenvalues --  -10.24695 -10.24637 -10.24632 -10.24628 -10.24603
 Alpha  occ. eigenvalues --  -10.24596 -10.24502 -10.24497 -10.24401 -10.24354
 Alpha  occ. eigenvalues --  -10.23967 -10.23961 -10.23799 -10.23781 -10.23524
 Alpha  occ. eigenvalues --  -10.23449 -10.23437 -10.23391 -10.23040 -10.23028
 Alpha  occ. eigenvalues --   -0.91793  -0.91723  -0.90595  -0.90081  -0.89086
 Alpha  occ. eigenvalues --   -0.88447  -0.85774  -0.85091  -0.84999  -0.84429
 Alpha  occ. eigenvalues --   -0.83699  -0.82096  -0.81133  -0.78834  -0.78635
 Alpha  occ. eigenvalues --   -0.76738  -0.75395  -0.75376  -0.74441  -0.74397
 Alpha  occ. eigenvalues --   -0.74344  -0.74038  -0.73458  -0.73393  -0.73134
 Alpha  occ. eigenvalues --   -0.69236  -0.68393  -0.66087  -0.65506  -0.63436
 Alpha  occ. eigenvalues --   -0.62921  -0.62062  -0.61464  -0.60288  -0.59601
 Alpha  occ. eigenvalues --   -0.59059  -0.58497  -0.56929  -0.56160  -0.55172
 Alpha  occ. eigenvalues --   -0.54473  -0.53752  -0.53385  -0.52841  -0.52422
 Alpha  occ. eigenvalues --   -0.51631  -0.51005  -0.50809  -0.50489  -0.50144
 Alpha  occ. eigenvalues --   -0.49545  -0.48926  -0.48307  -0.48008  -0.47935
 Alpha  occ. eigenvalues --   -0.47866  -0.47823  -0.47688  -0.47562  -0.47524
 Alpha  occ. eigenvalues --   -0.47263  -0.47123  -0.45753  -0.45622  -0.45330
 Alpha  occ. eigenvalues --   -0.45104  -0.45078  -0.44935  -0.44649  -0.44371
 Alpha  occ. eigenvalues --   -0.44177  -0.44088  -0.43405  -0.43070  -0.42838
 Alpha  occ. eigenvalues --   -0.42648  -0.42194  -0.42117  -0.41756  -0.41593
 Alpha  occ. eigenvalues --   -0.41295  -0.40626  -0.40348  -0.40262  -0.40073
 Alpha  occ. eigenvalues --   -0.39891  -0.39812  -0.39554  -0.39445  -0.39239
 Alpha  occ. eigenvalues --   -0.38916  -0.38857  -0.38140  -0.37452  -0.37041
 Alpha  occ. eigenvalues --   -0.36982  -0.36451  -0.36214  -0.35385  -0.34748
 Alpha  occ. eigenvalues --   -0.34345  -0.33936  -0.32389  -0.29919  -0.28533
 Alpha  occ. eigenvalues --   -0.26932  -0.24450  -0.21757
 Alpha virt. eigenvalues --   -0.03591  -0.00413   0.03492   0.06159   0.08086
 Alpha virt. eigenvalues --    0.09183   0.09845   0.10086   0.10610   0.10870
 Alpha virt. eigenvalues --    0.11117   0.11504   0.11835   0.12074   0.12252

 Mulliken charges:
               1
     1  C    0.188822
     2  C    0.083942
     3  C   -0.178559
     4  C   -0.174931
     5  C   -0.162180
     6  C   -0.161784
     7  C   -0.006383
     8  C    0.034607
     9  C   -0.157647
    10  C   -0.139122
    11  C   -0.030379
    12  C   -0.046145
    13  C   -0.392943
    14  C   -0.408354
    15  C   -0.377758
    16  C   -0.331834
    17  C   -0.289517
    18  C   -0.251914
    19  C   -0.380478
    20  C   -0.378184
    21  C   -0.221161
    22  C   -0.242762
    23  C    0.159977
    24  C    0.167433
    25  C   -0.371977
    26  C   -0.374379
    27  C   -0.155555
    28  C   -0.164910
    29  C   -0.072711
    30  C   -0.060243
    31  C   -0.154696
    32  C   -0.198087
    33  C    0.083225
    34  C    0.101173
    35  C   -0.375787
    36  C   -0.380262
    37  C   -0.120380
    38  C   -0.045244
    39  C   -0.138988
    40  C   -0.183699
    41  H    0.088830
    42  H    0.097697
    43  H    0.087123
    44  H    0.096746
    45  H    0.092332
    46  H    0.088121
    47  H    0.092154
    48  H    0.090488
    49  H    0.098856
    50  H    0.101238
    51  H    0.093440
    52  H    0.094108
    53  H    0.110570
    54  H    0.111264
    55  H    0.132354
    56  H    0.125753
    57  H    0.119117
    58  H    0.120556
    59  H    0.115987
    60  H    0.113455
    61  H    0.108022
    62  H    0.117742
    63  H    0.119467
    64  H    0.115010
    65  H    0.148082
    66  H    0.135092
    67  H    0.146414
    68  H    0.115406
    69  H    0.121261
    70  H    0.152722
    71  H    0.117379
    72  H    0.110377
    73  H    0.118896
    74  H    0.127396
    75  H    0.131186
    76  H    0.115036
    77  H    0.129202
    78  H    0.130834
    79  H    0.128554
    80  H    0.114488
    81  H    0.091159
    82  H    0.091342
    83  H    0.111870
    84  H    0.110107
    85  H    0.101973
    86  H    0.090735
    87  H    0.128578
    88  H    0.113804
    89  H    0.128727
    90  H    0.131417
    91  H    0.131383
    92  H    0.117017
    93  H    0.094975
    94  H    0.108629
    95  H    0.101505
    96  H    0.083798
 Sum of Mulliken charges =  -0.00000

 Dipole moment (field-independent basis, Debye):
    X=             -0.2129    Y=             -0.1026    Z=              0.0742  Tot=              0.2478
 Quadrupole moment (field-independent basis, Debye-Ang):
   XX=           -217.3585   YY=           -231.7170   ZZ=           -255.9500
   XY=             -1.8747   XZ=             -1.1647   YZ=             -3.1398

 Normal termination of Gaussian 16 at Thu Nov 14 07:01:37 2019.
