 Gaussian 16, Revision A.03,
 Gaussian 16:  ES64L-G16RevA.03 25-Dec-2016

 ------------------------------------------------------------
 # wB97XD/Def2TZVP iop(3/107=0000000000,3/108=0000000000) opt
 ------------------------------------------------------------

 -----
 TITLE
 -----
 Symbolic Z-matrix:
 Charge =  0 Multiplicity = 1

 SCF Done:  E(RwB97XD) =  -1557.93816980     A.U. after   14 cycles

 The electronic state is 1-A.
 Alpha  occ. eigenvalues --  -10.29924 -10.29917 -10.29796 -10.29569 -10.29463
 Alpha  occ. eigenvalues --  -10.29414 -10.28878 -10.28742 -10.28650 -10.28629
 Alpha  occ. eigenvalues --  -10.28591 -10.28504 -10.28439 -10.28431 -10.28419
 Alpha  occ. eigenvalues --  -10.28404 -10.28395 -10.28229 -10.28146 -10.28018
 Alpha  occ. eigenvalues --  -10.28002 -10.27966 -10.27939 -10.27926 -10.27864
 Alpha  occ. eigenvalues --  -10.27863 -10.27831 -10.27830 -10.27676 -10.27630
 Alpha  occ. eigenvalues --  -10.27254 -10.27245 -10.27086 -10.27065 -10.26817
 Alpha  occ. eigenvalues --  -10.26752 -10.26732 -10.26695 -10.26338 -10.26337
 Alpha  occ. eigenvalues --   -0.95740  -0.95671  -0.94482  -0.93961  -0.92951
 Alpha  occ. eigenvalues --   -0.92308  -0.89599  -0.88925  -0.88833  -0.88237
 Alpha  occ. eigenvalues --   -0.87494  -0.85860  -0.84876  -0.82549  -0.82345
 Alpha  occ. eigenvalues --   -0.80370  -0.79053  -0.79025  -0.78081  -0.78029
 Alpha  occ. eigenvalues --   -0.77982  -0.77667  -0.77087  -0.77010  -0.76821
 Alpha  occ. eigenvalues --   -0.72688  -0.71885  -0.69560  -0.68990  -0.66844
 Alpha  occ. eigenvalues --   -0.66341  -0.65497  -0.64898  -0.63688  -0.63024
 Alpha  occ. eigenvalues --   -0.62456  -0.61877  -0.60293  -0.59558  -0.58482
 Alpha  occ. eigenvalues --   -0.57809  -0.57072  -0.56710  -0.56144  -0.55703
 Alpha  occ. eigenvalues --   -0.54879  -0.54280  -0.54072  -0.53737  -0.53374
 Alpha  occ. eigenvalues --   -0.52724  -0.52145  -0.51497  -0.51162  -0.51117
 Alpha  occ. eigenvalues --   -0.51065  -0.51041  -0.50843  -0.50751  -0.50703
 Alpha  occ. eigenvalues --   -0.50393  -0.50207  -0.48801  -0.48672  -0.48386
 Alpha  occ. eigenvalues --   -0.48140  -0.48125  -0.47979  -0.47675  -0.47382
 Alpha  occ. eigenvalues --   -0.47156  -0.47097  -0.46389  -0.46044  -0.45845
 Alpha  occ. eigenvalues --   -0.45609  -0.45102  -0.45027  -0.44718  -0.44598
 Alpha  occ. eigenvalues --   -0.44201  -0.43520  -0.43240  -0.43148  -0.43034
 Alpha  occ. eigenvalues --   -0.42955  -0.42686  -0.42446  -0.42317  -0.42076
 Alpha  occ. eigenvalues --   -0.41933  -0.41702  -0.41194  -0.40125  -0.39835
 Alpha  occ. eigenvalues --   -0.39755  -0.39321  -0.39047  -0.38192  -0.37487
 Alpha  occ. eigenvalues --   -0.37015  -0.36642  -0.35023  -0.32416  -0.31018
 Alpha  occ. eigenvalues --   -0.29326  -0.26704  -0.23985
 Alpha virt. eigenvalues --   -0.02308   0.00804   0.04877   0.07624   0.09379
 Alpha virt. eigenvalues --    0.10007   0.10227   0.10847   0.10909   0.11188
 Alpha virt. eigenvalues --    0.11806   0.12059   0.12352   0.12452   0.12681

 Mulliken charges:
               1
     1  C    0.230154
     2  C    0.124575
     3  C   -0.205800
     4  C   -0.203800
     5  C   -0.188131
     6  C   -0.186157
     7  C   -0.007114
     8  C    0.034253
     9  C   -0.172881
    10  C   -0.155998
    11  C   -0.038581
    12  C   -0.052784
    13  C   -0.413447
    14  C   -0.429109
    15  C   -0.398741
    16  C   -0.351345
    17  C   -0.280751
    18  C   -0.240235
    19  C   -0.391430
    20  C   -0.390052
    21  C   -0.229652
    22  C   -0.250290
    23  C    0.172764
    24  C    0.177575
    25  C   -0.387017
    26  C   -0.389200
    27  C   -0.170300
    28  C   -0.178931
    29  C   -0.066986
    30  C   -0.054903
    31  C   -0.165330
    32  C   -0.209060
    33  C    0.101467
    34  C    0.111091
    35  C   -0.392786
    36  C   -0.393507
    37  C   -0.129507
    38  C   -0.057500
    39  C   -0.138920
    40  C   -0.178252
    41  H    0.096193
    42  H    0.106144
    43  H    0.094830
    44  H    0.105210
    45  H    0.104227
    46  H    0.094777
    47  H    0.103901
    48  H    0.096747
    49  H    0.105983
    50  H    0.109025
    51  H    0.101094
    52  H    0.102344
    53  H    0.114111
    54  H    0.116021
    55  H    0.134511
    56  H    0.129398
    57  H    0.123412
    58  H    0.124607
    59  H    0.119471
    60  H    0.118192
    61  H    0.112192
    62  H    0.121695
    63  H    0.120660
    64  H    0.119328
    65  H    0.145092
    66  H    0.130402
    67  H    0.146426
    68  H    0.119816
    69  H    0.126281
    70  H    0.152855
    71  H    0.122868
    72  H    0.115260
    73  H    0.120557
    74  H    0.128871
    75  H    0.135365
    76  H    0.120446
    77  H    0.132892
    78  H    0.135046
    79  H    0.132298
    80  H    0.119849
    81  H    0.098208
    82  H    0.097667
    83  H    0.107750
    84  H    0.106115
    85  H    0.101545
    86  H    0.097141
    87  H    0.132035
    88  H    0.119708
    89  H    0.132175
    90  H    0.135321
    91  H    0.135277
    92  H    0.121508
    93  H    0.097434
    94  H    0.109474
    95  H    0.107697
    96  H    0.089170
 Sum of Mulliken charges =  -0.00000

 Dipole moment (field-independent basis, Debye):
    X=              0.2170    Y=              0.0961    Z=              0.0838  Tot=              0.2517
 Quadrupole moment (field-independent basis, Debye-Ang):
   XX=           -220.9147   YY=           -233.5083   ZZ=           -257.6634
   XY=             -1.5973   XZ=              1.3641   YZ=              3.2286

 Optimization completed.
    -- Stationary point found.

                         Standard orientation:
 ---------------------------------------------------------------------
 Center     Atomic      Atomic             Coordinates (Angstroms)
 Number     Number       Type             X           Y           Z
 ---------------------------------------------------------------------
      1          6           0       11.985538    0.495629   -0.801859
      2          6           0      -11.987940   -0.025864    0.887438
      3          6           0       13.290776   -0.304256   -0.692660
      4          6           0      -12.844225    1.171566    1.319823
      5          6           0       13.051198   -1.792299   -0.517153
      6          6           0      -13.294065    2.023118    0.147972
      7          6           0       10.968971    0.032376    0.249477
      8          6           0      -10.918788    0.408382   -0.125220
      9          6           0       12.285482   -2.029226    0.772084
     10          6           0      -12.080385    2.577331   -0.578372
     11          6           0       11.125728   -1.087450    0.970864
     12          6           0      -10.978997    1.568923   -0.796089
     13          6           0       11.373713    0.324252   -2.200745
     14          6           0       12.334451    1.978552   -0.606041
     15          6           0      -12.880284   -1.111289    0.263772
     16          6           0      -11.323594   -0.601568    2.145362
     17          6           0        9.788301    0.903392    0.401164
     18          6           0       -9.837937   -0.574495   -0.319524
     19          6           0       10.202811   -1.524132    2.074309
     20          6           0       -9.975356    2.006713   -1.826506
     21          6           0        8.521619    0.493212    0.291510
     22          6           0       -8.528857   -0.319900   -0.242356
     23          6           0        7.333128    1.328466    0.424014
     24          6           0       -7.454536   -1.293075   -0.403906
     25          6           0        7.531057    2.788258    0.707220
     26          6           0       -7.834986   -2.717230   -0.682542
     27          6           0        6.125803    0.745416    0.284883
     28          6           0       -6.181798   -0.862857   -0.293378
     29          6           0        4.827512    1.368892    0.376061
     30          6           0       -4.971645   -1.639468   -0.414715
     31          6           0        3.680438    0.687198    0.219592
     32          6           0       -3.746662   -1.103923   -0.285956
     33          6           0        2.346076    1.255506    0.299550
     34          6           0       -2.483070   -1.813963   -0.393622
     35          6           0        2.227231    2.727575    0.579761
     36          6           0       -2.531555   -3.287570   -0.674071
     37          6           0        1.224792    0.518966    0.133508
     38          6           0       -1.340802   -1.110331   -0.235644
     39          6           0        1.140024   -0.895373   -0.140361
     40          6           0        0.009107   -1.612164   -0.302560
     41          1           0       13.858326    0.063200    0.169437
     42          1           0       13.900703   -0.106955   -1.578501
     43          1           0      -12.255697    1.794380    2.002149
     44          1           0      -13.702906    0.805624    1.889750
     45          1           0       13.998332   -2.335311   -0.501550
     46          1           0       12.480017   -2.182970   -1.363441
     47          1           0      -13.934677    2.838598    0.489962
     48          1           0      -13.893935    1.424489   -0.542436
     49          1           0       12.960539   -1.932148    1.632031
     50          1           0       11.909261   -3.056519    0.812430
     51          1           0      -11.662111    3.420966   -0.013947
     52          1           0      -12.375947    2.993027   -1.545868
     53          1           0       11.164655   -0.723715   -2.420598
     54          1           0       12.056328    0.706082   -2.964302
     55          1           0       10.432688    0.871017   -2.281702
     56          1           0       12.642904    2.178607    0.422595
     57          1           0       11.498095    2.635076   -0.849589
     58          1           0       13.162580    2.248703   -1.265367
     59          1           0      -13.404784   -0.741797   -0.618010
     60          1           0      -13.623426   -1.451284    0.989559
     61          1           0      -12.297348   -1.982463   -0.040062
     62          1           0      -10.615849    0.111405    2.573013
     63          1           0      -10.780029   -1.523775    1.935643
     64          1           0      -12.083908   -0.822873    2.898591
     65          1           0        9.981724    1.957294    0.572150
     66          1           0      -10.156895   -1.600975   -0.477441
     67          1           0        9.534366   -0.734260    2.408050
     68          1           0       10.792621   -1.868416    2.928863
     69          1           0        9.589904   -2.373574    1.757487
     70          1           0       -9.312630    1.205095   -2.142039
     71          1           0       -9.355964    2.823240   -1.441418
     72          1           0      -10.492174    2.397423   -2.706986
     73          1           0        8.338046   -0.556492    0.079502
     74          1           0       -8.212499    0.697297   -0.030089
     75          1           0        8.082177    2.926367    1.640613
     76          1           0        6.593425    3.331566    0.788895
     77          1           0        8.120854    3.254816   -0.085871
     78          1           0       -8.421775   -2.785059   -1.601907
     79          1           0       -8.456193   -3.112497    0.125304
     80          1           0       -6.971969   -3.369287   -0.788023
     81          1           0        6.113420   -0.322225    0.079466
     82          1           0       -6.033933    0.194705   -0.088425
     83          1           0        4.785648    2.431818    0.579681
     84          1           0       -5.062814   -2.699472   -0.618720
     85          1           0        3.758536   -0.374973    0.016864
     86          1           0       -3.672885   -0.038552   -0.081444
     87          1           0        2.691553    2.985310    1.535209
     88          1           0        1.183411    3.035780    0.616756
     89          1           0        2.728218    3.317035   -0.192541
     90          1           0       -3.047535   -3.480201   -1.617865
     91          1           0       -3.087296   -3.807487    0.110082
     92          1           0       -1.544664   -3.737300   -0.736462
     93          1           0        0.283819    1.051227    0.215570
     94          1           0       -1.457091   -0.050385   -0.036826
     95          1           0        2.070028   -1.443746   -0.225736
     96          1           0        0.135114   -2.669177   -0.502988
 ---------------------------------------------------------------------

 Normal termination of Gaussian 16 at Tue Nov 12 21:53:12 2019.
