 Gaussian 16, Revision A.03,
 Gaussian 16:  ES64L-G16RevA.03 25-Dec-2016

 ------------------------------------------------------------
 # wB97XD/Def2TZVP iop(3/107=0050000000,3/108=0050000000) opt
 ------------------------------------------------------------

 -----
 TITLE
 -----
 Symbolic Z-matrix:
 Charge =  0 Multiplicity = 1

 SCF Done:  E(RwB97XD) =  -1558.54097184     A.U. after   14 cycles
 SCF Done:  E(RwB97XD) =  -1558.54226252     A.U. after   12 cycles
 SCF Done:  E(RwB97XD) =  -1558.54239369     A.U. after   11 cycles
 SCF Done:  E(RwB97XD) =  -1558.54244698     A.U. after   11 cycles
 SCF Done:  E(RwB97XD) =  -1558.54245432     A.U. after   10 cycles
 SCF Done:  E(RwB97XD) =  -1558.54245713     A.U. after    9 cycles
 SCF Done:  E(RwB97XD) =  -1558.54245856     A.U. after    9 cycles
 SCF Done:  E(RwB97XD) =  -1558.54245906     A.U. after    9 cycles
 SCF Done:  E(RwB97XD) =  -1558.54245932     A.U. after    7 cycles
 SCF Done:  E(RwB97XD) =  -1558.54245942     A.U. after    7 cycles
 SCF Done:  E(RwB97XD) =  -1558.54245944     A.U. after    5 cycles
 Optimization completed.
    -- Stationary point found.

                         Standard orientation:
 ---------------------------------------------------------------------
 Center     Atomic      Atomic             Coordinates (Angstroms)
 Number     Number       Type             X           Y           Z
 ---------------------------------------------------------------------
      1          6           0       12.003693    0.492534   -0.864118
      2          6           0      -12.013705    0.041093    0.895638
      3          6           0       13.309076   -0.328647   -0.787403
      4          6           0      -12.852821    1.277887    1.281351
      5          6           0       13.062021   -1.818300   -0.588031
      6          6           0      -13.300204    2.093119    0.075677
      7          6           0       10.998345    0.037090    0.217275
      8          6           0      -10.939318    0.414588   -0.151984
      9          6           0       12.320826   -2.038690    0.725125
     10          6           0      -12.082711    2.585720   -0.699397
     11          6           0       11.170119   -1.082526    0.948220
     12          6           0      -10.997921    1.544956   -0.885001
     13          6           0       11.353390    0.331956   -2.257900
     14          6           0       12.382956    1.979146   -0.671841
     15          6           0      -12.933695   -1.064180    0.323858
     16          6           0      -11.346753   -0.488809    2.183859
     17          6           0        9.825613    0.918044    0.390400
     18          6           0       -9.873876   -0.593313   -0.316502
     19          6           0       10.279385   -1.498056    2.093862
     20          6           0      -10.013414    1.909167   -1.969677
     21          6           0        8.541888    0.525583    0.308085
     22          6           0       -8.550232   -0.365241   -0.250413
     23          6           0        7.364238    1.367125    0.459227
     24          6           0       -7.490660   -1.352293   -0.392896
     25          6           0        7.564585    2.831141    0.752613
     26          6           0       -7.877462   -2.783154   -0.662487
     27          6           0        6.141305    0.785277    0.326353
     28          6           0       -6.202203   -0.929452   -0.277135
     29          6           0        4.847769    1.400376    0.429791
     30          6           0       -4.997986   -1.704254   -0.381477
     31          6           0        3.687493    0.715368    0.277287
     32          6           0       -3.758928   -1.169476   -0.248733
     33          6           0        2.355282    1.267805    0.364785
     34          6           0       -2.497619   -1.870586   -0.341872
     35          6           0        2.208724    2.744235    0.648348
     36          6           0       -2.521827   -3.353396   -0.613562
     37          6           0        1.226938    0.513720    0.201242
     38          6           0       -1.349391   -1.149532   -0.179266
     39          6           0        1.138021   -0.892065   -0.067716
     40          6           0        0.000674   -1.625248   -0.233038
     41          1           0       13.909892    0.039785    0.049143
     42          1           0       13.894250   -0.150010   -1.692245
     43          1           0      -12.253525    1.917996    1.934958
     44          1           0      -13.714434    0.954119    1.869915
     45          1           0       14.006496   -2.365873   -0.585980
     46          1           0       12.473660   -2.217752   -1.416611
     47          1           0      -13.911819    2.939756    0.393852
     48          1           0      -13.930513    1.485873   -0.577009
     49          1           0       13.017631   -1.947187    1.567331
     50          1           0       11.938603   -3.062574    0.778716
     51          1           0      -11.640775    3.449149   -0.186422
     52          1           0      -12.388818    2.959998   -1.679656
     53          1           0       11.112970   -0.709484   -2.470643
     54          1           0       12.025749    0.692585   -3.039139
     55          1           0       10.425979    0.900886   -2.322498
     56          1           0       12.724786    2.172175    0.346226
     57          1           0       11.552280    2.650200   -0.887535
     58          1           0       13.194406    2.242203   -1.352684
     59          1           0      -13.446651   -0.733038   -0.578298
     60          1           0      -13.687680   -1.349549    1.060309
     61          1           0      -12.371911   -1.963098    0.070054
     62          1           0      -10.632623    0.233679    2.580558
     63          1           0      -10.812590   -1.423039    2.014659
     64          1           0      -12.103571   -0.671923    2.949319
     65          1           0       10.034109    1.969552    0.547602
     66          1           0      -10.212843   -1.616278   -0.440468
     67          1           0        9.611287   -0.707087    2.421890
     68          1           0       10.894496   -1.805106    2.944300
     69          1           0        9.669410   -2.365314    1.825045
     70          1           0       -9.342055    1.095357   -2.225627
     71          1           0       -9.404065    2.767960   -1.672044
     72          1           0      -10.549517    2.209295   -2.873764
     73          1           0        8.343445   -0.519765    0.097885
     74          1           0       -8.217718    0.649442   -0.061149
     75          1           0        8.131589    2.965848    1.676217
     76          1           0        6.627751    3.369717    0.858710
     77          1           0        8.133049    3.310520   -0.047426
     78          1           0       -8.463978   -2.858368   -1.580735
     79          1           0       -8.495549   -3.175671    0.148095
     80          1           0       -7.017011   -3.437448   -0.765641
     81          1           0        6.130362   -0.279851    0.114675
     82          1           0       -6.054010    0.128638   -0.082214
     83          1           0        4.804401    2.460585    0.638622
     84          1           0       -5.089271   -2.764275   -0.576468
     85          1           0        3.767853   -0.344200    0.068658
     86          1           0       -3.689215   -0.103629   -0.052661
     87          1           0        2.665981    3.011520    1.603973
     88          1           0        1.160885    3.035452    0.687281
     89          1           0        2.695212    3.346277   -0.122717
     90          1           0       -3.023951   -3.563627   -1.560297
     91          1           0       -3.071832   -3.879559    0.169543
     92          1           0       -1.528096   -3.787221   -0.665103
     93          1           0        0.286888    1.044357    0.287179
     94          1           0       -1.481443   -0.091102    0.011262
     95          1           0        2.066119   -1.442970   -0.149206
     96          1           0        0.146225   -2.680203   -0.427019
 ---------------------------------------------------------------------

 The electronic state is 1-A.
 Alpha  occ. eigenvalues --  -10.23132 -10.23115 -10.23014 -10.22976 -10.22926
 Alpha  occ. eigenvalues --  -10.22817 -10.21951 -10.21885 -10.21807 -10.21717
 Alpha  occ. eigenvalues --  -10.21712 -10.21706 -10.21699 -10.21621 -10.21599
 Alpha  occ. eigenvalues --  -10.21588 -10.21578 -10.21424 -10.21280 -10.21243
 Alpha  occ. eigenvalues --  -10.21241 -10.21204 -10.21188 -10.21172 -10.21148
 Alpha  occ. eigenvalues --  -10.21082 -10.21060 -10.21052 -10.20964 -10.20928
 Alpha  occ. eigenvalues --  -10.20534 -10.20531 -10.20357 -10.20351 -10.20085
 Alpha  occ. eigenvalues --  -10.20008 -10.20005 -10.19957 -10.19597 -10.19580
 Alpha  occ. eigenvalues --   -0.87683  -0.87620  -0.86577  -0.86068  -0.85080
 Alpha  occ. eigenvalues --   -0.84441  -0.81801  -0.81086  -0.81005  -0.80473
 Alpha  occ. eigenvalues --   -0.79753  -0.78182  -0.77238  -0.74987  -0.74799
 Alpha  occ. eigenvalues --   -0.72950  -0.71587  -0.71574  -0.70655  -0.70626
 Alpha  occ. eigenvalues --   -0.70538  -0.70203  -0.69678  -0.69621  -0.69247
 Alpha  occ. eigenvalues --   -0.65527  -0.64625  -0.62351  -0.61764  -0.59732
 Alpha  occ. eigenvalues --   -0.59175  -0.58313  -0.57723  -0.56579  -0.55864
 Alpha  occ. eigenvalues --   -0.55326  -0.54768  -0.53183  -0.52327  -0.51436
 Alpha  occ. eigenvalues --   -0.50690  -0.49983  -0.49588  -0.49068  -0.48658
 Alpha  occ. eigenvalues --   -0.47907  -0.47258  -0.47083  -0.46790  -0.46466
 Alpha  occ. eigenvalues --   -0.45896  -0.45248  -0.44646  -0.44367  -0.44283
 Alpha  occ. eigenvalues --   -0.44196  -0.44153  -0.44017  -0.43917  -0.43890
 Alpha  occ. eigenvalues --   -0.43650  -0.43533  -0.42200  -0.42075  -0.41788
 Alpha  occ. eigenvalues --   -0.41553  -0.41507  -0.41355  -0.41092  -0.40857
 Alpha  occ. eigenvalues --   -0.40681  -0.40583  -0.39906  -0.39582  -0.39269
 Alpha  occ. eigenvalues --   -0.39137  -0.38783  -0.38707  -0.38240  -0.38012
 Alpha  occ. eigenvalues --   -0.37822  -0.37119  -0.36878  -0.36811  -0.36615
 Alpha  occ. eigenvalues --   -0.36342  -0.36188  -0.36116  -0.36039  -0.35781
 Alpha  occ. eigenvalues --   -0.35477  -0.35208  -0.34458  -0.34136  -0.33637
 Alpha  occ. eigenvalues --   -0.33585  -0.32954  -0.32743  -0.31867  -0.31292
 Alpha  occ. eigenvalues --   -0.30957  -0.30434  -0.28813  -0.26448  -0.25165
 Alpha  occ. eigenvalues --   -0.23739  -0.21458  -0.18857
 Alpha virt. eigenvalues --   -0.05342  -0.02185   0.01489   0.04124   0.05965
 Alpha virt. eigenvalues --    0.07137   0.08926   0.09470   0.09623   0.10051
 Alpha virt. eigenvalues --    0.10336   0.10370   0.10940   0.11126   0.11348

 Mulliken charges:
               1
     1  C    0.134869
     2  C    0.027551
     3  C   -0.120592
     4  C   -0.116463
     5  C   -0.111192
     6  C   -0.113467
     7  C   -0.036062
     8  C    0.010445
     9  C   -0.119365
    10  C   -0.102185
    11  C   -0.018103
    12  C   -0.029901
    13  C   -0.341578
    14  C   -0.364625
    15  C   -0.323362
    16  C   -0.288007
    17  C   -0.298424
    18  C   -0.267957
    19  C   -0.332297
    20  C   -0.334705
    21  C   -0.189180
    22  C   -0.210739
    23  C    0.134178
    24  C    0.142129
    25  C   -0.336520
    26  C   -0.338986
    27  C   -0.126205
    28  C   -0.134518
    29  C   -0.084912
    30  C   -0.073267
    31  C   -0.137689
    32  C   -0.173071
    33  C    0.052506
    34  C    0.081504
    35  C   -0.334966
    36  C   -0.348105
    37  C   -0.102132
    38  C   -0.027461
    39  C   -0.131619
    40  C   -0.189278
    41  H    0.071938
    42  H    0.078196
    43  H    0.070075
    44  H    0.077385
    45  H    0.066932
    46  H    0.073128
    47  H    0.066974
    48  H    0.075787
    49  H    0.081037
    50  H    0.081684
    51  H    0.075140
    52  H    0.075832
    53  H    0.099318
    54  H    0.097876
    55  H    0.123848
    56  H    0.113171
    57  H    0.111075
    58  H    0.107795
    59  H    0.105686
    60  H    0.100084
    61  H    0.093537
    62  H    0.104385
    63  H    0.114915
    64  H    0.102302
    65  H    0.154115
    66  H    0.145117
    67  H    0.138994
    68  H    0.101875
    69  H    0.103597
    70  H    0.145815
    71  H    0.099673
    72  H    0.097691
    73  H    0.110102
    74  H    0.118552
    75  H    0.118988
    76  H    0.099033
    77  H    0.118515
    78  H    0.118766
    79  H    0.117430
    80  H    0.098816
    81  H    0.077249
    82  H    0.078737
    83  H    0.123753
    84  H    0.121190
    85  H    0.101736
    86  H    0.077879
    87  H    0.117657
    88  H    0.098204
    89  H    0.117712
    90  H    0.119769
    91  H    0.119719
    92  H    0.104372
    93  H    0.091458
    94  H    0.104758
    95  H    0.088668
    96  H    0.075714
 Sum of Mulliken charges =  -0.00000

 Dipole moment (field-independent basis, Debye):
    X=              0.1763    Y=              0.1192    Z=              0.0493  Tot=              0.2184
 Quadrupole moment (field-independent basis, Debye-Ang):
   XX=           -213.6348   YY=           -229.2737   ZZ=           -252.8282
   XY=             -1.6100   XZ=              1.0973   YZ=              3.0054

 Normal termination of Gaussian 16 at Wed Nov 13 20:25:34 2019.
