 Gaussian 16, Revision A.03,
 Gaussian 16:  ES64L-G16RevA.03 25-Dec-2016

 ------------------------------------------------------------
 # wB97XD/Def2TZVP iop(3/107=0075000000,3/108=0075000000) opt
 ------------------------------------------------------------

 -----
 TITLE
 -----
 Symbolic Z-matrix:
 Charge =  0 Multiplicity = 1

 SCF Done:  E(RwB97XD) =  -1558.31694039     A.U. after   14 cycles
 SCF Done:  E(RwB97XD) =  -1558.31725422     A.U. after   11 cycles
 SCF Done:  E(RwB97XD) =  -1558.31728948     A.U. after   10 cycles
 SCF Done:  E(RwB97XD) =  -1558.31730860     A.U. after   10 cycles
 SCF Done:  E(RwB97XD) =  -1558.31731021     A.U. after    9 cycles
 SCF Done:  E(RwB97XD) =  -1558.31731105     A.U. after    8 cycles
 SCF Done:  E(RwB97XD) =  -1558.31731130     A.U. after    6 cycles
 SCF Done:  E(RwB97XD) =  -1558.31731141     A.U. after    6 cycles
 SCF Done:  E(RwB97XD) =  -1558.31731145     A.U. after    6 cycles
 SCF Done:  E(RwB97XD) =  -1558.31731147     A.U. after    6 cycles
 Optimization completed.
    -- Stationary point found.

                         Standard orientation:
 ---------------------------------------------------------------------
 Center     Atomic      Atomic             Coordinates (Angstroms)
 Number     Number       Type             X           Y           Z
 ---------------------------------------------------------------------
      1          6           0       12.016557    0.499753   -0.828071
      2          6           0      -12.021244    0.005181    0.883460
      3          6           0       13.318907   -0.320668   -0.739437
      4          6           0      -12.872080    1.223272    1.292970
      5          6           0       13.067153   -1.811742   -0.569558
      6          6           0      -13.311896    2.064751    0.104468
      7          6           0       10.994190    0.030590    0.227124
      8          6           0      -10.939217    0.413650   -0.138602
      9          6           0       12.305569   -2.051384    0.726801
     10          6           0      -12.089695    2.589525   -0.638766
     11          6           0       11.152533   -1.099350    0.944047
     12          6           0      -10.995212    1.564073   -0.838749
     13          6           0       11.391865    0.357324   -2.232694
     14          6           0       12.390325    1.981523   -0.610097
     15          6           0      -12.925528   -1.087883    0.271725
     16          6           0      -11.365651   -0.555305    2.161573
     17          6           0        9.819529    0.907703    0.390032
     18          6           0       -9.866897   -0.582056   -0.315661
     19          6           0       10.241909   -1.532091    2.064894
     20          6           0       -9.997295    1.966642   -1.894652
     21          6           0        8.538619    0.510409    0.303098
     22          6           0       -8.546048   -0.344725   -0.247165
     23          6           0        7.360443    1.351565    0.445416
     24          6           0       -7.483037   -1.325798   -0.399009
     25          6           0        7.560912    2.815311    0.730478
     26          6           0       -7.866366   -2.754134   -0.676603
     27          6           0        6.139389    0.770248    0.312303
     28          6           0       -6.197372   -0.900780   -0.283122
     29          6           0        4.847100    1.389579    0.409650
     30          6           0       -4.993228   -1.675366   -0.394611
     31          6           0        3.687717    0.706782    0.257163
     32          6           0       -3.755982   -1.141545   -0.261532
     33          6           0        2.357526    1.266005    0.340515
     34          6           0       -2.496588   -1.846121   -0.360520
     35          6           0        2.220490    2.741840    0.620575
     36          6           0       -2.528826   -3.325833   -0.637476
     37          6           0        1.228425    0.517694    0.176364
     38          6           0       -1.347093   -1.131620   -0.198252
     39          6           0        1.138671   -0.888893   -0.092646
     40          6           0        0.000448   -1.616583   -0.256705
     41          1           0       13.902641    0.034322    0.115533
     42          1           0       13.921060   -0.126279   -1.630217
     43          1           0      -12.283325    1.850480    1.969164
     44          1           0      -13.737072    0.876745    1.864030
     45          1           0       14.010277   -2.361578   -0.562206
     46          1           0       12.489973   -2.195203   -1.413987
     47          1           0      -13.937497    2.896073    0.435527
     48          1           0      -13.925494    1.466999   -0.573170
     49          1           0       12.988385   -1.971430    1.581954
     50          1           0       11.921895   -3.075853    0.760099
     51          1           0      -11.662039    3.441576   -0.094975
     52          1           0      -12.384931    2.988935   -1.612729
     53          1           0       11.160464   -0.682474   -2.464626
     54          1           0       12.076245    0.733407   -2.996438
     55          1           0       10.462275    0.922837   -2.303624
     56          1           0       12.711454    2.161368    0.417421
     57          1           0       11.563365    2.654990   -0.834449
     58          1           0       13.215425    2.252333   -1.271698
     59          1           0      -13.435555   -0.732268   -0.623190
     60          1           0      -13.681343   -1.402992    0.994505
     61          1           0      -12.352813   -1.973008   -0.006748
     62          1           0      -10.659698    0.160696    2.584748
     63          1           0      -10.823936   -1.481760    1.971903
     64          1           0      -12.130160   -0.763313    2.913318
     65          1           0       10.023225    1.961264    0.543342
     66          1           0      -10.197512   -1.606956   -0.451041
     67          1           0        9.575195   -0.742520    2.400430
     68          1           0       10.841968   -1.864566    2.916700
     69          1           0        9.628701   -2.387624    1.766659
     70          1           0       -9.328511    1.158890   -2.177320
     71          1           0       -9.384871    2.806978   -1.553107
     72          1           0      -10.521068    2.310146   -2.790528
     73          1           0        8.343053   -0.536767    0.096672
     74          1           0       -8.218884    0.670130   -0.047076
     75          1           0        8.123638    2.954319    1.656284
     76          1           0        6.623977    3.356014    0.827606
     77          1           0        8.135624    3.287957   -0.069428
     78          1           0       -8.452987   -2.824635   -1.595387
     79          1           0       -8.484838   -3.151457    0.131666
     80          1           0       -7.004291   -3.406268   -0.782948
     81          1           0        6.126932   -0.296349    0.106178
     82          1           0       -6.049719    0.156562   -0.081663
     83          1           0        4.805677    2.451372    0.613981
     84          1           0       -5.084992   -2.734942   -0.595161
     85          1           0        3.765638   -0.354315    0.053099
     86          1           0       -3.684162   -0.076405   -0.060317
     87          1           0        2.680115    3.007768    1.575646
     88          1           0        1.174158    3.039256    0.658336
     89          1           0        2.711942    3.338581   -0.151742
     90          1           0       -3.034840   -3.529152   -1.583893
     91          1           0       -3.081040   -3.851470    0.144713
     92          1           0       -1.537214   -3.764714   -0.692716
     93          1           0        0.289054    1.050842    0.260130
     94          1           0       -1.472985   -0.072729   -0.003542
     95          1           0        2.066405   -1.440671   -0.175447
     96          1           0        0.138888   -2.672387   -0.452636
 ---------------------------------------------------------------------

 The electronic state is 1-A.
 Alpha  occ. eigenvalues --  -10.24285 -10.24275 -10.24172 -10.24066 -10.24013
 Alpha  occ. eigenvalues --  -10.23968 -10.23144 -10.23057 -10.22977 -10.22888
 Alpha  occ. eigenvalues --  -10.22888 -10.22887 -10.22877 -10.22798 -10.22769
 Alpha  occ. eigenvalues --  -10.22757 -10.22752 -10.22591 -10.22459 -10.22397
 Alpha  occ. eigenvalues --  -10.22390 -10.22365 -10.22359 -10.22318 -10.22293
 Alpha  occ. eigenvalues --  -10.22263 -10.22201 -10.22194 -10.22115 -10.22074
 Alpha  occ. eigenvalues --  -10.21679 -10.21678 -10.21507 -10.21496 -10.21233
 Alpha  occ. eigenvalues --  -10.21153 -10.21151 -10.21100 -10.20745 -10.20730
 Alpha  occ. eigenvalues --   -0.89069  -0.89003  -0.87924  -0.87413  -0.86424
 Alpha  occ. eigenvalues --   -0.85784  -0.83132  -0.82434  -0.82348  -0.81800
 Alpha  occ. eigenvalues --   -0.81076  -0.79492  -0.78540  -0.76269  -0.76077
 Alpha  occ. eigenvalues --   -0.74215  -0.72856  -0.72844  -0.71918  -0.71885
 Alpha  occ. eigenvalues --   -0.71815  -0.71492  -0.70940  -0.70882  -0.70546
 Alpha  occ. eigenvalues --   -0.66779  -0.65898  -0.63609  -0.63022  -0.60983
 Alpha  occ. eigenvalues --   -0.60444  -0.59579  -0.58984  -0.57829  -0.57122
 Alpha  occ. eigenvalues --   -0.56587  -0.56028  -0.54453  -0.53636  -0.52710
 Alpha  occ. eigenvalues --   -0.51982  -0.51270  -0.50888  -0.50358  -0.49947
 Alpha  occ. eigenvalues --   -0.49182  -0.48542  -0.48357  -0.48052  -0.47722
 Alpha  occ. eigenvalues --   -0.47144  -0.46501  -0.45897  -0.45617  -0.45533
 Alpha  occ. eigenvalues --   -0.45447  -0.45404  -0.45279  -0.45158  -0.45129
 Alpha  occ. eigenvalues --   -0.44888  -0.44766  -0.43424  -0.43291  -0.43002
 Alpha  occ. eigenvalues --   -0.42774  -0.42737  -0.42592  -0.42320  -0.42067
 Alpha  occ. eigenvalues --   -0.41886  -0.41788  -0.41109  -0.40779  -0.40501
 Alpha  occ. eigenvalues --   -0.40351  -0.39959  -0.39881  -0.39455  -0.39247
 Alpha  occ. eigenvalues --   -0.39027  -0.38341  -0.38082  -0.38008  -0.37816
 Alpha  occ. eigenvalues --   -0.37549  -0.37458  -0.37304  -0.37216  -0.36986
 Alpha  occ. eigenvalues --   -0.36681  -0.36464  -0.35727  -0.35300  -0.34822
 Alpha  occ. eigenvalues --   -0.34769  -0.34168  -0.33951  -0.33097  -0.32506
 Alpha  occ. eigenvalues --   -0.32152  -0.31676  -0.30094  -0.27708  -0.26379
 Alpha  occ. eigenvalues --   -0.24885  -0.22541  -0.19898
 Alpha virt. eigenvalues --   -0.04676  -0.01497   0.02246   0.04869   0.06765
 Alpha virt. eigenvalues --    0.07942   0.09563   0.09665   0.10006   0.10333
 Alpha virt. eigenvalues --    0.10610   0.11072   0.11227   0.11527   0.11724

 Mulliken charges:
               1
     1  C    0.154364
     2  C    0.047597
     3  C   -0.145751
     4  C   -0.141562
     5  C   -0.133286
     6  C   -0.134445
     7  C   -0.021959
     8  C    0.021719
     9  C   -0.136357
    10  C   -0.118201
    11  C   -0.022242
    12  C   -0.035979
    13  C   -0.364219
    14  C   -0.383606
    15  C   -0.347048
    16  C   -0.306877
    17  C   -0.295290
    18  C   -0.262137
    19  C   -0.355366
    20  C   -0.355471
    21  C   -0.205193
    22  C   -0.226658
    23  C    0.144419
    24  C    0.152741
    25  C   -0.352462
    26  C   -0.354899
    27  C   -0.137648
    28  C   -0.146762
    29  C   -0.080947
    30  C   -0.068673
    31  C   -0.143682
    32  C   -0.183196
    33  C    0.063487
    34  C    0.088760
    35  C   -0.353121
    36  C   -0.362708
    37  C   -0.109294
    38  C   -0.033844
    39  C   -0.136100
    40  C   -0.187937
    41  H    0.079593
    42  H    0.086868
    43  H    0.077749
    44  H    0.085960
    45  H    0.077922
    46  H    0.079963
    47  H    0.077866
    48  H    0.082496
    49  H    0.089135
    50  H    0.090346
    51  H    0.083404
    52  H    0.083754
    53  H    0.104582
    54  H    0.103978
    55  H    0.128023
    56  H    0.119225
    57  H    0.114409
    58  H    0.113767
    59  H    0.110463
    60  H    0.106206
    61  H    0.100103
    62  H    0.110710
    63  H    0.117179
    64  H    0.108172
    65  H    0.152566
    66  H    0.141870
    67  H    0.142991
    68  H    0.108034
    69  H    0.111879
    70  H    0.149567
    71  H    0.107804
    72  H    0.103454
    73  H    0.115247
    74  H    0.123778
    75  H    0.124562
    76  H    0.106161
    77  H    0.123386
    78  H    0.124271
    79  H    0.122519
    80  H    0.105802
    81  H    0.083456
    82  H    0.084400
    83  H    0.119089
    84  H    0.116851
    85  H    0.102208
    86  H    0.083614
    87  H    0.122716
    88  H    0.105048
    89  H    0.122780
    90  H    0.125087
    91  H    0.125087
    92  H    0.109934
    93  H    0.093165
    94  H    0.106835
    95  H    0.094487
    96  H    0.079310
 Sum of Mulliken charges =  -0.00000

 Dipole moment (field-independent basis, Debye):
    X=              0.1911    Y=              0.1133    Z=              0.0592  Tot=              0.2299
 Quadrupole moment (field-independent basis, Debye-Ang):
   XX=           -214.5471   YY=           -230.0605   ZZ=           -253.9799
   XY=             -1.8183   XZ=              1.0860   YZ=              3.0513

 Normal termination of Gaussian 16 at Thu Nov 14 17:27:17 2019.
