 Gaussian 16, Revision A.03,
 Gaussian 16:  ES64L-G16RevA.03 25-Dec-2016

 ------------------------------------------------------------
 # wB97XD/Def2TZVP iop(3/107=0112500000,3/108=0112500000) opt
 ------------------------------------------------------------

 -----
 TITLE
 -----
 Symbolic Z-matrix:
 Charge =  0 Multiplicity = 1

 SCF Done:  E(RwB97XD) =  -1558.09973114     A.U. after   14 cycles
 SCF Done:  E(RwB97XD) =  -1558.09992211     A.U. after   10 cycles
 SCF Done:  E(RwB97XD) =  -1558.09994173     A.U. after   10 cycles
 SCF Done:  E(RwB97XD) =  -1558.09995633     A.U. after    9 cycles
 SCF Done:  E(RwB97XD) =  -1558.09995739     A.U. after    9 cycles
 SCF Done:  E(RwB97XD) =  -1558.09995801     A.U. after    7 cycles
 SCF Done:  E(RwB97XD) =  -1558.09995821     A.U. after    6 cycles
 SCF Done:  E(RwB97XD) =  -1558.09995838     A.U. after    7 cycles
 SCF Done:  E(RwB97XD) =  -1558.09995842     A.U. after    5 cycles
 Optimization completed.
    -- Stationary point found.

                         Standard orientation:
 ---------------------------------------------------------------------
 Center     Atomic      Atomic             Coordinates (Angstroms)
 Number     Number       Type             X           Y           Z
 ---------------------------------------------------------------------
      1          6           0      -12.019384   -0.507977   -0.799097
      2          6           0       12.018654    0.016926    0.877941
      3          6           0      -13.320368    0.308598   -0.701609
      4          6           0       12.877172   -1.187738    1.301006
      5          6           0      -13.068087    1.800450   -0.555184
      6          6           0       13.314513   -2.042014    0.122790
      7          6           0      -10.987066   -0.027218    0.236219
      8          6           0       10.935381   -0.412269   -0.129184
      9          6           0      -12.292745    2.056511    0.727920
     10          6           0       12.091297   -2.588009   -0.599935
     11          6           0      -11.136615    1.109942    0.940908
     12          6           0       10.990426   -1.573658   -0.808315
     13          6           0      -11.414209   -0.377165   -2.210200
     14          6           0      -12.384598   -1.986039   -0.563120
     15          6           0       12.911830    1.103360    0.245889
     16          6           0       11.367130    0.593061    2.147747
     17          6           0       -9.809668   -0.899996    0.393275
     18          6           0        9.857879    0.574924   -0.313938
     19          6           0      -10.210693    1.558391    2.040264
     20          6           0        9.983807   -2.000701   -1.843520
     21          6           0       -8.533333   -0.497209    0.296635
     22          6           0        8.540880    0.328674   -0.243638
     23          6           0       -7.352419   -1.336272    0.434398
     24          6           0        7.473673    1.305337   -0.400403
     25          6           0       -7.552056   -2.798193    0.719104
     26          6           0        7.854724    2.732175   -0.678303
     27          6           0       -6.135349   -0.754968    0.298003
     28          6           0        6.192127    0.877646   -0.287546
     29          6           0       -4.842344   -1.377293    0.392501
     30          6           0        4.986736    1.652974   -0.403988
     31          6           0       -3.685986   -0.696186    0.238007
     32          6           0        3.752995    1.118981   -0.273291
     33          6           0       -2.355966   -1.261076    0.319964
     34          6           0        2.493646    1.826906   -0.376743
     35          6           0       -2.228353   -2.735412    0.600267
     36          6           0        2.533982    3.303971   -0.655284
     37          6           0       -1.228044   -0.518546    0.154731
     38          6           0        1.344887    1.118122   -0.216759
     39          6           0       -1.139046    0.890079   -0.116531
     40          6           0       -0.001746    1.612228   -0.279690
     41          1           0      -13.889759   -0.036813    0.167757
     42          1           0      -13.934937    0.100361   -1.581355
     43          1           0       12.294300   -1.808782    1.989027
     44          1           0       13.742868   -0.826561    1.862828
     45          1           0      -14.011118    2.350728   -0.545072
     46          1           0      -12.499073    2.171533   -1.411386
     47          1           0       13.951282   -2.862525    0.460010
     48          1           0       13.915486   -1.447419   -0.569729
     49          1           0      -12.965016    1.983588    1.592537
     50          1           0      -11.909944    3.082069    0.745933
     51          1           0       11.673440   -3.432927   -0.036947
     52          1           0       12.380205   -3.002386   -1.569981
     53          1           0      -11.193332    0.662267   -2.456191
     54          1           0      -12.106181   -0.767271   -2.960644
     55          1           0      -10.480905   -0.937166   -2.285494
     56          1           0      -12.689408   -2.157225    0.471375
     57          1           0      -11.558400   -2.658954   -0.794660
     58          1           0      -13.219324   -2.264002   -1.210317
     59          1           0       13.423927    0.734385   -0.643055
     60          1           0       13.665567    1.437632    0.962946
     61          1           0       12.330745    1.978540   -0.048578
     62          1           0       10.665278   -0.120014    2.583884
     63          1           0       10.820698    1.514846    1.945640
     64          1           0       12.134951    0.814950    2.892792
     65          1           0      -10.008053   -1.954418    0.552335
     66          1           0       10.181725    1.601711   -0.457102
     67          1           0       -9.544472    0.770884    2.383380
     68          1           0      -10.798847    1.913063    2.891767
     69          1           0       -9.595463    2.403444    1.716177
     70          1           0        9.318986   -1.196289   -2.146738
     71          1           0        9.366648   -2.824567   -1.470667
     72          1           0       10.499142   -2.377385   -2.731129
     73          1           0       -8.342057    0.550901    0.087089
     74          1           0        8.218680   -0.687459   -0.038297
     75          1           0       -8.109347   -2.936624    1.648700
     76          1           0       -6.614653   -3.340278    0.808961
     77          1           0       -8.134131   -3.268373   -0.077453
     78          1           0        8.441731    2.802170   -1.597303
     79          1           0        8.474066    3.129224    0.129977
     80          1           0        6.991519    3.383630   -0.784356
     81          1           0       -6.122194    0.312194    0.091939
     82          1           0        6.044538   -0.179989   -0.084602
     83          1           0       -4.801997   -2.439887    0.596696
     84          1           0        5.078838    2.712949   -0.606181
     85          1           0       -3.762460    0.365689    0.034381
     86          1           0        3.679408    0.053674   -0.070522
     87          1           0       -2.690825   -2.997444    1.555422
     88          1           0       -1.183300   -3.038642    0.638094
     89          1           0       -2.724456   -3.328759   -0.172179
     90          1           0        3.044843    3.502503   -1.600545
     91          1           0        3.087977    3.827012    0.127909
     92          1           0        1.544461    3.748168   -0.713886
     93          1           0       -0.288516   -1.052707    0.238054
     94          1           0        1.465248    0.058401   -0.020010
     95          1           0       -2.067238    1.441552   -0.200982
     96          1           0       -0.133137    2.668890   -0.478018
 ---------------------------------------------------------------------

 The electronic state is 1-A.
 Alpha  occ. eigenvalues --  -10.26023 -10.26018 -10.25909 -10.25718 -10.25695
 Alpha  occ. eigenvalues --  -10.25663 -10.24926 -10.24816 -10.24733 -10.24668
 Alpha  occ. eigenvalues --  -10.24654 -10.24617 -10.24602 -10.24565 -10.24521
 Alpha  occ. eigenvalues --  -10.24505 -10.24505 -10.24336 -10.24222 -10.24135
 Alpha  occ. eigenvalues --  -10.24122 -10.24078 -10.24073 -10.24054 -10.24029
 Alpha  occ. eigenvalues --  -10.24020 -10.23929 -10.23924 -10.23835 -10.23789
 Alpha  occ. eigenvalues --  -10.23400 -10.23394 -10.23231 -10.23214 -10.22955
 Alpha  occ. eigenvalues --  -10.22879 -10.22869 -10.22822 -10.22470 -10.22457
 Alpha  occ. eigenvalues --   -0.91118  -0.91050  -0.89932  -0.89419  -0.88425
 Alpha  occ. eigenvalues --   -0.87786  -0.85118  -0.84433  -0.84342  -0.83777
 Alpha  occ. eigenvalues --   -0.83048  -0.81450  -0.80489  -0.78196  -0.77999
 Alpha  occ. eigenvalues --   -0.76112  -0.74764  -0.74747  -0.73814  -0.73772
 Alpha  occ. eigenvalues --   -0.73717  -0.73408  -0.72832  -0.72769  -0.72493
 Alpha  occ. eigenvalues --   -0.68630  -0.67778  -0.65476  -0.64893  -0.62833
 Alpha  occ. eigenvalues --   -0.62312  -0.61452  -0.60854  -0.59683  -0.58991
 Alpha  occ. eigenvalues --   -0.58452  -0.57891  -0.56323  -0.55545  -0.54571
 Alpha  occ. eigenvalues --   -0.53866  -0.53148  -0.52778  -0.52237  -0.51821
 Alpha  occ. eigenvalues --   -0.51036  -0.50407  -0.50213  -0.49896  -0.49555
 Alpha  occ. eigenvalues --   -0.48962  -0.48336  -0.47722  -0.47428  -0.47352
 Alpha  occ. eigenvalues --   -0.47278  -0.47234  -0.47105  -0.46977  -0.46942
 Alpha  occ. eigenvalues --   -0.46687  -0.46553  -0.45190  -0.45057  -0.44766
 Alpha  occ. eigenvalues --   -0.44540  -0.44513  -0.44370  -0.44087  -0.43814
 Alpha  occ. eigenvalues --   -0.43624  -0.43531  -0.42850  -0.42517  -0.42276
 Alpha  occ. eigenvalues --   -0.42096  -0.41654  -0.41577  -0.41202  -0.41029
 Alpha  occ. eigenvalues --   -0.40750  -0.40079  -0.39804  -0.39721  -0.39532
 Alpha  occ. eigenvalues --   -0.39303  -0.39270  -0.39012  -0.38909  -0.38700
 Alpha  occ. eigenvalues --   -0.38383  -0.38279  -0.37559  -0.36939  -0.36511
 Alpha  occ. eigenvalues --   -0.36453  -0.35904  -0.35673  -0.34840  -0.34215
 Alpha  occ. eigenvalues --   -0.33826  -0.33403  -0.31854  -0.29408  -0.28033
 Alpha  occ. eigenvalues --   -0.26456  -0.24006  -0.21321
 Alpha virt. eigenvalues --   -0.03839  -0.00655   0.03212   0.05864   0.07791
 Alpha virt. eigenvalues --    0.08918   0.09810   0.09986   0.10548   0.10803
 Alpha virt. eigenvalues --    0.10868   0.11442   0.11776   0.12005   0.12038

 Mulliken charges:
               1
     1  C    0.180829
     2  C    0.075608
     3  C   -0.171965
     4  C   -0.168135
     5  C   -0.156281
     6  C   -0.156219
     7  C   -0.008855
     8  C    0.032536
     9  C   -0.153533
    10  C   -0.134951
    11  C   -0.028405
    12  C   -0.043926
    13  C   -0.387398
    14  C   -0.403429
    15  C   -0.371808
    16  C   -0.326929
    17  C   -0.291021
    18  C   -0.254253
    19  C   -0.376177
    20  C   -0.374217
    21  C   -0.218389
    22  C   -0.240062
    23  C    0.156711
    24  C    0.164505
    25  C   -0.368237
    26  C   -0.370649
    27  C   -0.151681
    28  C   -0.161092
    29  C   -0.074575
    30  C   -0.062066
    31  C   -0.152158
    32  C   -0.195009
    33  C    0.078765
    34  C    0.098458
    35  C   -0.371416
    36  C   -0.376926
    37  C   -0.117986
    38  C   -0.042593
    39  C   -0.138739
    40  C   -0.184782
    41  H    0.087043
    42  H    0.095575
    43  H    0.085292
    44  H    0.094625
    45  H    0.089425
    46  H    0.086536
    47  H    0.089274
    48  H    0.088950
    49  H    0.096999
    50  H    0.099126
    51  H    0.091507
    52  H    0.092038
    53  H    0.109486
    54  H    0.109905
    55  H    0.131630
    56  H    0.124607
    57  H    0.118156
    58  H    0.119326
    59  H    0.114969
    60  H    0.112104
    61  H    0.106571
    62  H    0.116483
    63  H    0.119105
    64  H    0.113751
    65  H    0.149119
    66  H    0.136547
    67  H    0.145949
    68  H    0.114042
    69  H    0.119580
    70  H    0.152301
    71  H    0.115627
    72  H    0.109061
    73  H    0.118384
    74  H    0.126923
    75  H    0.129952
    76  H    0.113352
    77  H    0.128130
    78  H    0.129611
    79  H    0.127440
    80  H    0.112842
    81  H    0.089620
    82  H    0.089963
    83  H    0.113331
    84  H    0.111465
    85  H    0.102095
    86  H    0.089307
    87  H    0.127510
    88  H    0.112107
    89  H    0.127643
    90  H    0.130248
    91  H    0.130225
    92  H    0.115655
    93  H    0.094614
    94  H    0.108364
    95  H    0.100117
    96  H    0.082843
 Sum of Mulliken charges =  -0.00000

 Dipole moment (field-independent basis, Debye):
    X=             -0.2085    Y=             -0.1046    Z=              0.0712  Tot=              0.2439
 Quadrupole moment (field-independent basis, Debye-Ang):
   XX=           -216.6363   YY=           -231.3208   ZZ=           -255.5128
   XY=             -1.8880   XZ=             -1.1385   YZ=             -3.1210

 Normal termination of Gaussian 16 at Fri Nov 15 03:03:53 2019.
