 Gaussian 16, Revision A.03,
 Gaussian 16:  ES64L-G16RevA.03 25-Dec-2016

 --------------------------------------------------------
 # wB97XD/Def2TZVP iop(3/107=0100000000,3/108=0100000000)
 --------------------------------------------------------

 -----
 TITLE
 -----
 Symbolic Z-matrix:
 Charge =  1 Multiplicity = 2

                         Standard orientation:
 ---------------------------------------------------------------------
 Center     Atomic      Atomic             Coordinates (Angstroms)
 Number     Number       Type             X           Y           Z
 ---------------------------------------------------------------------
      1          6           0       12.020219    0.505528   -0.805665
      2          6           0      -12.020787   -0.012661    0.878931
      3          6           0       13.321296   -0.312640   -0.710149
      4          6           0      -12.877855    1.194933    1.299440
      5          6           0       13.068517   -1.804368   -0.558482
      6          6           0      -13.315392    2.047257    0.119272
      7          6           0       10.989536    0.027576    0.234039
      8          6           0      -10.937114    0.412601   -0.130961
      9          6           0       12.295840   -2.056542    0.727581
     10          6           0      -12.092106    2.588754   -0.607750
     11          6           0       11.140798   -1.108145    0.941698
     12          6           0      -10.992465    1.572011   -0.814499
     13          6           0       11.410704    0.372721   -2.215658
     14          6           0       12.388212    1.984394   -0.573257
     15          6           0      -12.916291   -1.100281    0.250069
     16          6           0      -11.368992   -0.586205    2.150800
     17          6           0        9.813047    0.901668    0.392099
     18          6           0       -9.860756   -0.576333   -0.314040
     19          6           0       10.218579   -1.552415    2.046577
     20          6           0       -9.987848    1.993950   -1.854479
     21          6           0        8.535161    0.500577    0.298526
     22          6           0       -8.542495   -0.332386   -0.244811
     23          6           0        7.355343    1.340502    0.436902
     24          6           0       -7.476585   -1.310098   -0.400633
     25          6           0        7.555370    2.803116    0.720761
     26          6           0       -7.858104   -2.737365   -0.678749
     27          6           0        6.136840    0.759327    0.301682
     28          6           0       -6.193670   -0.883132   -0.286972
     29          6           0        4.844326    1.381052    0.396448
     30          6           0       -4.988806   -1.658140   -0.402223
     31          6           0        3.686797    0.699590    0.242706
     32          6           0       -3.753835   -1.124289   -0.270753
     33          6           0        2.356989    1.263125    0.324575
     34          6           0       -2.494727   -1.831325   -0.373024
     35          6           0        2.226832    2.738022    0.604212
     36          6           0       -2.532778   -3.309128   -0.651319
     37          6           0        1.228446    0.519011    0.159678
     38          6           0       -1.345468   -1.121040   -0.212287
     39          6           0        1.139005   -0.888907   -0.110557
     40          6           0        0.001199   -1.612633   -0.273892
     41          1           0       13.894105    0.034654    0.155950
     42          1           0       13.933236   -0.107802   -1.592326
     43          1           0      -12.294027    1.816873    1.985506
     44          1           0      -13.743628    0.836733    1.862751
     45          1           0       14.011369   -2.354835   -0.548770
     46          1           0       12.497812   -2.178122   -1.412167
     47          1           0      -13.949473    2.870131    0.455593
     48          1           0      -13.919336    1.452576   -0.570312
     49          1           0       12.970436   -1.982791    1.590166
     50          1           0       11.912278   -3.081648    0.748712
     51          1           0      -11.672179    3.435150   -0.048747
     52          1           0      -12.382305    3.000178   -1.578536
     53          1           0       11.186699   -0.666563   -2.458701
     54          1           0       12.101304    0.759233   -2.969002
     55          1           0       10.478679    0.934613   -2.290061
     56          1           0       12.696886    2.157113    0.459664
     57          1           0       11.562246    2.657966   -0.802881
     58          1           0       13.220842    2.260578   -1.223654
     59          1           0      -13.427384   -0.733640   -0.640223
     60          1           0      -13.670928   -1.430805    0.967686
     61          1           0      -12.337000   -1.977499   -0.041193
     62          1           0      -10.666631    0.127270    2.585036
     63          1           0      -10.823384   -1.508813    1.951243
     64          1           0      -12.136428   -0.805672    2.896747
     65          1           0       10.013005    1.955991    0.548452
     66          1           0      -10.186186   -1.602733   -0.454753
     67          1           0        9.551815   -0.764494    2.387124
     68          1           0       10.809694   -1.900594    2.898615
     69          1           0        9.604362   -2.400731    1.729521
     70          1           0       -9.322000    1.188913   -2.153117
     71          1           0       -9.371915    2.821785   -1.488775
     72          1           0      -10.505172    2.363020   -2.744052
     73          1           0        8.342455   -0.547350    0.090556
     74          1           0       -8.218902    0.683340   -0.040814
     75          1           0        8.113957    2.942295    1.649337
     76          1           0        6.618155    3.345006    0.812016
     77          1           0        8.135649    3.273378   -0.076892
     78          1           0       -8.445375   -2.807375   -1.597443
     79          1           0       -8.476749   -3.134917    0.129653
     80          1           0       -6.995121   -3.388770   -0.785465
     81          1           0        6.123703   -0.307797    0.096294
     82          1           0       -6.046084    0.174374   -0.084238
     83          1           0        4.803854    2.443539    0.600100
     84          1           0       -5.080847   -2.717959   -0.604164
     85          1           0        3.763492   -0.362181    0.039538
     86          1           0       -3.680670   -0.059085   -0.068239
     87          1           0        2.688485    3.001536    1.559236
     88          1           0        1.181464    3.039745    0.641849
     89          1           0        2.721707    3.331992   -0.168394
     90          1           0       -3.042168   -3.508925   -1.596973
     91          1           0       -3.086327   -3.833040    0.131443
     92          1           0       -1.542656   -3.751791   -0.708943
     93          1           0        0.289076    1.053126    0.242806
     94          1           0       -1.467269   -0.061554   -0.016014
     95          1           0        2.066975   -1.440623   -0.194410
     96          1           0        0.134536   -2.669088   -0.471362
 ---------------------------------------------------------------------

 SCF Done:  E(UwB97XD) =  -1557.94807527     A.U. after   21 cycles

 Alpha virt. eigenvalues --    0.17653   0.18043   0.18223   0.18271   0.18357
 Alpha virt. eigenvalues --    0.18478   0.18562   0.18620   0.18690   0.18858
 Alpha virt. eigenvalues --    0.19178   0.19824   0.19975   0.20067   0.20182

  Beta  occ. eigenvalues --  -10.37264 -10.37133 -10.36100 -10.36072 -10.35906
  Beta  occ. eigenvalues --  -10.35602 -10.35576 -10.35564 -10.35287 -10.35244
  Beta  occ. eigenvalues --  -10.34852 -10.34359 -10.33950 -10.33418 -10.33332
  Beta  occ. eigenvalues --  -10.33237 -10.32961 -10.32688 -10.32512 -10.32293
  Beta  occ. eigenvalues --  -10.32043 -10.31927 -10.31897 -10.31785 -10.31460
  Beta  occ. eigenvalues --  -10.31376 -10.31152 -10.30663 -10.29723 -10.29459
  Beta  occ. eigenvalues --  -10.29389 -10.29112 -10.28793 -10.28742 -10.28488
  Beta  occ. eigenvalues --  -10.28412 -10.28388 -10.28382 -10.28235 -10.27967
  Beta  occ. eigenvalues --   -1.00160  -0.99260  -0.98206  -0.97715  -0.96868
  Beta  occ. eigenvalues --   -0.96368  -0.94733  -0.92317  -0.91208  -0.90461
  Beta  occ. eigenvalues --   -0.90144  -0.89254  -0.88720  -0.85948  -0.85403
  Beta  occ. eigenvalues --   -0.85087  -0.83915  -0.83259  -0.82704  -0.80618
  Beta  occ. eigenvalues --   -0.80247  -0.79450  -0.79143  -0.78658  -0.78310
  Beta  occ. eigenvalues --   -0.77478  -0.76401  -0.73421  -0.72173  -0.70599
  Beta  occ. eigenvalues --   -0.69476  -0.69001  -0.68599  -0.68040  -0.67795
  Beta  occ. eigenvalues --   -0.66748  -0.66273  -0.64991  -0.64420  -0.63017
  Beta  occ. eigenvalues --   -0.62152  -0.61441  -0.60761  -0.60177  -0.59185
  Beta  occ. eigenvalues --   -0.58375  -0.57973  -0.57397  -0.56998  -0.56498
  Beta  occ. eigenvalues --   -0.56247  -0.56132  -0.55963  -0.55583  -0.55381
  Beta  occ. eigenvalues --   -0.55185  -0.55073  -0.54821  -0.54365  -0.54047
  Beta  occ. eigenvalues --   -0.53300  -0.53115  -0.52887  -0.52852  -0.52308
  Beta  occ. eigenvalues --   -0.51755  -0.51728  -0.51524  -0.51475  -0.51092
  Beta  occ. eigenvalues --   -0.50958  -0.50623  -0.50478  -0.50280  -0.50127
  Beta  occ. eigenvalues --   -0.49861  -0.49591  -0.49404  -0.49090  -0.48924
  Beta  occ. eigenvalues --   -0.48501  -0.47738  -0.47500  -0.47346  -0.47120
  Beta  occ. eigenvalues --   -0.47052  -0.46671  -0.46618  -0.45772  -0.45416
  Beta  occ. eigenvalues --   -0.45330  -0.44930  -0.44909  -0.44616  -0.44021
  Beta  occ. eigenvalues --   -0.42838  -0.42051  -0.41750  -0.41524  -0.40998
  Beta  occ. eigenvalues --   -0.40347  -0.39926  -0.39621  -0.37281  -0.35192
  Beta  occ. eigenvalues --   -0.33478  -0.31214
  Beta virt. eigenvalues --   -0.21182  -0.13653  -0.09948  -0.06166  -0.03232
  Beta virt. eigenvalues --   -0.00760   0.00547   0.01481   0.01777   0.02344
  Beta virt. eigenvalues --    0.02604   0.02946   0.03382   0.03456   0.03904

 Mulliken charges and spin densities:
               1          2
     1  C    0.150257   0.003463
     2  C    0.046382   0.004197
     3  C   -0.169425   0.000084
     4  C   -0.164617   0.000323
     5  C   -0.158207   0.000402
     6  C   -0.160991   0.000638
     7  C   -0.031514  -0.019213
     8  C    0.009994  -0.022940
     9  C   -0.153865  -0.002157
    10  C   -0.135284  -0.002217
    11  C   -0.013266   0.037406
    12  C   -0.026190   0.048685
    13  C   -0.376666   0.001609
    14  C   -0.393767  -0.000164
    15  C   -0.360202  -0.000762
    16  C   -0.322879   0.001101
    17  C   -0.241322   0.108616
    18  C   -0.207123   0.127837
    19  C   -0.371106  -0.001509
    20  C   -0.369404  -0.001913
    21  C   -0.228553  -0.039284
    22  C   -0.247524  -0.042775
    23  C    0.188712   0.117101
    24  C    0.198612   0.136363
    25  C   -0.364343  -0.005641
    26  C   -0.367435  -0.006566
    27  C   -0.164203  -0.035173
    28  C   -0.169353  -0.033789
    29  C   -0.029792   0.111251
    30  C   -0.015210   0.127559
    31  C   -0.149890  -0.024586
    32  C   -0.190064  -0.021302
    33  C    0.108230   0.099852
    34  C    0.116855   0.087007
    35  C   -0.372178  -0.006764
    36  C   -0.376771  -0.005516
    37  C   -0.109683   0.032493
    38  C   -0.024657   0.043773
    39  C   -0.098713   0.080862
    40  C   -0.154354   0.061714
    41  H    0.094574  -0.000015
    42  H    0.106020   0.000159
    43  H    0.089545   0.000028
    44  H    0.107372   0.000732
    45  H    0.101470  -0.000013
    46  H    0.090119   0.000023
    47  H    0.102208   0.000002
    48  H    0.097765   0.000019
    49  H    0.110710   0.002098
    50  H    0.108449   0.002084
    51  H    0.103321   0.003563
    52  H    0.104848   0.000921
    53  H    0.113445  -0.000017
    54  H    0.122898  -0.000179
    55  H    0.120048  -0.000281
    56  H    0.130228   0.000062
    57  H    0.110507  -0.000027
    58  H    0.131993  -0.000071
    59  H    0.121918   0.000043
    60  H    0.124809  -0.000187
    61  H    0.100529   0.000168
    62  H    0.117979  -0.000067
    63  H    0.111895  -0.000113
    64  H    0.128914  -0.000215
    65  H    0.166055  -0.004308
    66  H    0.157105  -0.004875
    67  H    0.137910   0.000093
    68  H    0.130839   0.001743
    69  H    0.125252   0.001664
    70  H    0.143310   0.000221
    71  H    0.124600   0.002131
    72  H    0.127382   0.002235
    73  H    0.132558   0.001454
    74  H    0.143738   0.001627
    75  H    0.150117   0.005335
    76  H    0.115365   0.000221
    77  H    0.149086   0.005558
    78  H    0.151473   0.006288
    79  H    0.150236   0.006559
    80  H    0.116766   0.000252
    81  H    0.106036   0.001005
    82  H    0.110105   0.000724
    83  H    0.133587  -0.004032
    84  H    0.134710  -0.004463
    85  H    0.114241   0.000224
    86  H    0.109625   0.001023
    87  H    0.149674   0.006474
    88  H    0.124135   0.000443
    89  H    0.149850   0.006495
    90  H    0.150631   0.004695
    91  H    0.150675   0.004697
    92  H    0.127745   0.000355
    93  H    0.109002  -0.002475
    94  H    0.126050  -0.003064
    95  H    0.121642  -0.004407
    96  H    0.108448  -0.002674
 Sum of Mulliken charges =   1.00000   1.00000

 Dipole moment (field-independent basis, Debye):
    X=             -1.4513    Y=             -0.6497    Z=             -0.0400  Tot=              1.5906
 Quadrupole moment (field-independent basis, Debye-Ang):
   XX=             69.1203   YY=           -207.6373   ZZ=           -245.8080
   XY=             10.8503   XZ=              9.8312   YZ=              4.5164

 Normal termination of Gaussian 16 at Tue Nov 12 09:30:26 2019.
