 Gaussian 16, Revision A.03,
 Gaussian 16:  ES64L-G16RevA.03 25-Dec-2016

 --------------------------------------------------------
 # wB97XD/Def2TZVP iop(3/107=0050000000,3/108=0050000000)
 --------------------------------------------------------

 -----
 TITLE
 -----
 Symbolic Z-matrix:
 Charge =  1 Multiplicity = 2

                         Standard orientation:
 ---------------------------------------------------------------------
 Center     Atomic      Atomic             Coordinates (Angstroms)
 Number     Number       Type             X           Y           Z
 ---------------------------------------------------------------------
      1          6           0      -12.003693   -0.492534   -0.864118
      2          6           0       12.013705   -0.041093    0.895638
      3          6           0      -13.309076    0.328647   -0.787403
      4          6           0       12.852821   -1.277887    1.281351
      5          6           0      -13.062021    1.818300   -0.588031
      6          6           0       13.300204   -2.093119    0.075677
      7          6           0      -10.998345   -0.037090    0.217275
      8          6           0       10.939318   -0.414588   -0.151984
      9          6           0      -12.320826    2.038690    0.725125
     10          6           0       12.082711   -2.585720   -0.699397
     11          6           0      -11.170119    1.082526    0.948220
     12          6           0       10.997921   -1.544956   -0.885001
     13          6           0      -11.353390   -0.331956   -2.257900
     14          6           0      -12.382956   -1.979146   -0.671841
     15          6           0       12.933695    1.064180    0.323858
     16          6           0       11.346753    0.488809    2.183859
     17          6           0       -9.825613   -0.918044    0.390400
     18          6           0        9.873876    0.593313   -0.316502
     19          6           0      -10.279385    1.498056    2.093862
     20          6           0       10.013414   -1.909167   -1.969677
     21          6           0       -8.541888   -0.525583    0.308085
     22          6           0        8.550232    0.365241   -0.250413
     23          6           0       -7.364238   -1.367125    0.459227
     24          6           0        7.490660    1.352293   -0.392896
     25          6           0       -7.564585   -2.831141    0.752613
     26          6           0        7.877462    2.783154   -0.662487
     27          6           0       -6.141305   -0.785277    0.326353
     28          6           0        6.202203    0.929452   -0.277135
     29          6           0       -4.847769   -1.400376    0.429791
     30          6           0        4.997986    1.704254   -0.381477
     31          6           0       -3.687493   -0.715368    0.277287
     32          6           0        3.758928    1.169476   -0.248733
     33          6           0       -2.355282   -1.267805    0.364785
     34          6           0        2.497619    1.870586   -0.341872
     35          6           0       -2.208724   -2.744235    0.648348
     36          6           0        2.521827    3.353396   -0.613562
     37          6           0       -1.226938   -0.513720    0.201242
     38          6           0        1.349391    1.149532   -0.179266
     39          6           0       -1.138021    0.892065   -0.067716
     40          6           0       -0.000674    1.625248   -0.233038
     41          1           0      -13.909892   -0.039785    0.049143
     42          1           0      -13.894250    0.150010   -1.692245
     43          1           0       12.253525   -1.917996    1.934958
     44          1           0       13.714434   -0.954119    1.869915
     45          1           0      -14.006496    2.365873   -0.585980
     46          1           0      -12.473660    2.217752   -1.416611
     47          1           0       13.911819   -2.939756    0.393852
     48          1           0       13.930513   -1.485873   -0.577009
     49          1           0      -13.017631    1.947187    1.567331
     50          1           0      -11.938603    3.062574    0.778716
     51          1           0       11.640775   -3.449149   -0.186422
     52          1           0       12.388818   -2.959998   -1.679656
     53          1           0      -11.112970    0.709484   -2.470643
     54          1           0      -12.025749   -0.692585   -3.039139
     55          1           0      -10.425979   -0.900886   -2.322498
     56          1           0      -12.724786   -2.172175    0.346226
     57          1           0      -11.552280   -2.650200   -0.887535
     58          1           0      -13.194406   -2.242203   -1.352684
     59          1           0       13.446651    0.733038   -0.578298
     60          1           0       13.687680    1.349549    1.060309
     61          1           0       12.371911    1.963098    0.070054
     62          1           0       10.632623   -0.233679    2.580558
     63          1           0       10.812590    1.423039    2.014659
     64          1           0       12.103571    0.671923    2.949319
     65          1           0      -10.034109   -1.969552    0.547602
     66          1           0       10.212843    1.616278   -0.440468
     67          1           0       -9.611287    0.707087    2.421890
     68          1           0      -10.894496    1.805106    2.944300
     69          1           0       -9.669410    2.365314    1.825045
     70          1           0        9.342055   -1.095357   -2.225627
     71          1           0        9.404065   -2.767960   -1.672044
     72          1           0       10.549517   -2.209295   -2.873764
     73          1           0       -8.343445    0.519765    0.097885
     74          1           0        8.217718   -0.649442   -0.061149
     75          1           0       -8.131589   -2.965848    1.676217
     76          1           0       -6.627751   -3.369717    0.858710
     77          1           0       -8.133049   -3.310520   -0.047426
     78          1           0        8.463978    2.858368   -1.580735
     79          1           0        8.495549    3.175671    0.148095
     80          1           0        7.017011    3.437448   -0.765641
     81          1           0       -6.130362    0.279851    0.114675
     82          1           0        6.054010   -0.128638   -0.082214
     83          1           0       -4.804401   -2.460585    0.638622
     84          1           0        5.089271    2.764275   -0.576468
     85          1           0       -3.767853    0.344200    0.068658
     86          1           0        3.689215    0.103629   -0.052661
     87          1           0       -2.665981   -3.011520    1.603973
     88          1           0       -1.160885   -3.035452    0.687281
     89          1           0       -2.695212   -3.346277   -0.122717
     90          1           0        3.023951    3.563627   -1.560297
     91          1           0        3.071832    3.879559    0.169543
     92          1           0        1.528096    3.787221   -0.665103
     93          1           0       -0.286888   -1.044357    0.287179
     94          1           0        1.481443    0.091102    0.011262
     95          1           0       -2.066119    1.442970   -0.149206
     96          1           0       -0.146225    2.680203   -0.427019
 ---------------------------------------------------------------------

 SCF Done:  E(UwB97XD) =  -1558.33955314     A.U. after   20 cycles

 Alpha virt. eigenvalues --    0.16973   0.17133   0.17335   0.17447   0.17621
 Alpha virt. eigenvalues --    0.17688   0.17801   0.17872   0.18151   0.18331
 Alpha virt. eigenvalues --    0.18652   0.18927   0.19200   0.19250   0.19436

  Beta  occ. eigenvalues --  -10.34564 -10.34477 -10.33645 -10.33371 -10.33327
  Beta  occ. eigenvalues --  -10.33202 -10.32931 -10.32899 -10.32773 -10.32672
  Beta  occ. eigenvalues --  -10.32348 -10.31986 -10.31607 -10.31226 -10.31051
  Beta  occ. eigenvalues --  -10.30681 -10.30551 -10.30470 -10.30262 -10.29923
  Beta  occ. eigenvalues --  -10.29912 -10.29685 -10.29671 -10.29668 -10.29424
  Beta  occ. eigenvalues --  -10.29257 -10.28999 -10.28601 -10.27504 -10.27236
  Beta  occ. eigenvalues --  -10.27231 -10.26958 -10.26561 -10.26510 -10.26314
  Beta  occ. eigenvalues --  -10.26208 -10.26165 -10.26127 -10.26052 -10.25800
  Beta  occ. eigenvalues --   -0.97230  -0.96435  -0.95495  -0.95052  -0.94161
  Beta  occ. eigenvalues --   -0.93705  -0.91919  -0.89618  -0.88524  -0.87845
  Beta  occ. eigenvalues --   -0.87601  -0.86631  -0.86107  -0.83230  -0.82815
  Beta  occ. eigenvalues --   -0.82625  -0.81218  -0.80719  -0.79947  -0.78081
  Beta  occ. eigenvalues --   -0.77779  -0.76980  -0.76751  -0.76198  -0.75923
  Beta  occ. eigenvalues --   -0.74897  -0.73844  -0.70830  -0.69668  -0.68033
  Beta  occ. eigenvalues --   -0.66978  -0.66501  -0.65988  -0.65482  -0.65294
  Beta  occ. eigenvalues --   -0.64252  -0.63760  -0.62539  -0.61755  -0.60353
  Beta  occ. eigenvalues --   -0.59555  -0.58898  -0.58214  -0.57610  -0.56667
  Beta  occ. eigenvalues --   -0.55877  -0.55390  -0.54903  -0.54523  -0.53772
  Beta  occ. eigenvalues --   -0.53705  -0.53488  -0.53450  -0.53141  -0.52935
  Beta  occ. eigenvalues --   -0.52682  -0.52649  -0.52413  -0.51861  -0.51476
  Beta  occ. eigenvalues --   -0.50880  -0.50614  -0.50528  -0.50482  -0.49750
  Beta  occ. eigenvalues --   -0.49316  -0.49202  -0.49038  -0.48985  -0.48697
  Beta  occ. eigenvalues --   -0.48553  -0.48304  -0.48122  -0.47992  -0.47812
  Beta  occ. eigenvalues --   -0.47419  -0.47208  -0.47020  -0.46555  -0.46344
  Beta  occ. eigenvalues --   -0.46183  -0.45428  -0.45020  -0.44907  -0.44867
  Beta  occ. eigenvalues --   -0.44742  -0.44331  -0.44040  -0.43477  -0.43208
  Beta  occ. eigenvalues --   -0.43026  -0.42686  -0.42652  -0.42397  -0.41519
  Beta  occ. eigenvalues --   -0.40422  -0.39778  -0.39535  -0.39223  -0.38717
  Beta  occ. eigenvalues --   -0.38062  -0.37689  -0.37369  -0.35004  -0.33011
  Beta  occ. eigenvalues --   -0.31521  -0.29452
  Beta virt. eigenvalues --   -0.21679  -0.14855  -0.11358  -0.07651  -0.04681
  Beta virt. eigenvalues --   -0.02261  -0.00965   0.00339   0.01069   0.01325
  Beta virt. eigenvalues --    0.02005   0.02446   0.02517   0.02752   0.03014

 Mulliken charges and spin densities:
               1          2
     1  C    0.110260   0.003201
     2  C    0.005715   0.003753
     3  C   -0.124970   0.000099
     4  C   -0.120156   0.000399
     5  C   -0.120566   0.000525
     6  C   -0.124769   0.000805
     7  C   -0.054396  -0.017057
     8  C   -0.008252  -0.020343
     9  C   -0.125137  -0.002677
    10  C   -0.108081  -0.002588
    11  C   -0.003474   0.040612
    12  C   -0.012991   0.050882
    13  C   -0.336853   0.002133
    14  C   -0.359785  -0.000103
    15  C   -0.318642  -0.000572
    16  C   -0.289073   0.001579
    17  C   -0.239683   0.111878
    18  C   -0.212479   0.127201
    19  C   -0.332982  -0.001511
    20  C   -0.334529  -0.001892
    21  C   -0.204590  -0.035879
    22  C   -0.223026  -0.037835
    23  C    0.173852   0.112108
    24  C    0.183361   0.128370
    25  C   -0.338280  -0.006205
    26  C   -0.341562  -0.007107
    27  C   -0.143089  -0.024081
    28  C   -0.148183  -0.023822
    29  C   -0.036242   0.100918
    30  C   -0.023048   0.115505
    31  C   -0.137815  -0.009615
    32  C   -0.172424  -0.009335
    33  C    0.088788   0.088854
    34  C    0.104462   0.078395
    35  C   -0.342537  -0.007571
    36  C   -0.352531  -0.005724
    37  C   -0.097272   0.037283
    38  C   -0.016114   0.042947
    39  C   -0.093460   0.074008
    40  C   -0.157436   0.060634
    41  H    0.081590  -0.000021
    42  H    0.091402   0.000195
    43  H    0.076345   0.000024
    44  H    0.092774   0.000828
    45  H    0.083061  -0.000024
    46  H    0.078665   0.000004
    47  H    0.083681  -0.000004
    48  H    0.086370   0.000002
    49  H    0.097540   0.002377
    50  H    0.094499   0.002375
    51  H    0.089565   0.003820
    52  H    0.091537   0.000972
    53  H    0.104781  -0.000034
    54  H    0.112998  -0.000127
    55  H    0.112834  -0.000374
    56  H    0.120355   0.000093
    57  H    0.104361  -0.000093
    58  H    0.122228  -0.000075
    59  H    0.113743   0.000020
    60  H    0.114568  -0.000180
    61  H    0.089590   0.000220
    62  H    0.107236  -0.000071
    63  H    0.108037  -0.000294
    64  H    0.118972  -0.000251
    65  H    0.168983  -0.005139
    66  H    0.162702  -0.005659
    67  H    0.131150   0.000020
    68  H    0.121410   0.002064
    69  H    0.112528   0.001879
    70  H    0.136607   0.000163
    71  H    0.111687   0.002218
    72  H    0.118314   0.002575
    73  H    0.125507   0.001631
    74  H    0.136117   0.001782
    75  H    0.140428   0.005009
    76  H    0.104239   0.000317
    77  H    0.140655   0.005322
    78  H    0.141414   0.005781
    79  H    0.141055   0.006158
    80  H    0.105552   0.000360
    81  H    0.095843   0.000707
    82  H    0.099852   0.000447
    83  H    0.140309  -0.004422
    84  H    0.140484  -0.004890
    85  H    0.113343  -0.000298
    86  H    0.098794   0.000775
    87  H    0.139560   0.005605
    88  H    0.112218   0.000480
    89  H    0.139648   0.005627
    90  H    0.140156   0.004119
    91  H    0.140187   0.004116
    92  H    0.117740   0.000494
    93  H    0.105134  -0.003174
    94  H    0.120595  -0.003415
    95  H    0.108819  -0.005119
    96  H    0.100226  -0.003084
 Sum of Mulliken charges =   1.00000   1.00000

 Dipole moment (field-independent basis, Debye):
    X=              1.1337    Y=              0.5657    Z=              0.0267  Tot=              1.2672
 Quadrupole moment (field-independent basis, Debye-Ang):
   XX=             82.2008   YY=           -206.2607   ZZ=           -243.3623
   XY=             10.4639   XZ=            -10.2032   YZ=             -4.2080

 Normal termination of Gaussian 16 at Wed Nov 13 23:15:54 2019.
