 Gaussian 16, Revision A.03,
 Gaussian 16:  ES64L-G16RevA.03 25-Dec-2016

 --------------------------------------------------------
 # wB97XD/Def2TZVP iop(3/107=0125000000,3/108=0125000000)
 --------------------------------------------------------

 -----
 TITLE
 -----
 Symbolic Z-matrix:
 Charge =  1 Multiplicity = 2

                         Standard orientation:
 ---------------------------------------------------------------------
 Center     Atomic      Atomic             Coordinates (Angstroms)
 Number     Number       Type             X           Y           Z
 ---------------------------------------------------------------------
      1          6           0       12.017543    0.508895   -0.794146
      2          6           0      -12.015951   -0.020514    0.877949
      3          6           0       13.318692   -0.305691   -0.694086
      4          6           0      -12.874996    1.181801    1.303907
      5          6           0       13.067491   -1.797460   -0.549662
      6          6           0      -13.312803    2.038011    0.127855
      7          6           0       10.984575    0.027235    0.238770
      8          6           0      -10.933499    0.411901   -0.127333
      9          6           0       12.290282   -2.055107    0.731450
     10          6           0      -12.090083    2.587432   -0.592118
     11          6           0       11.133227   -1.109921    0.942572
     12          6           0      -10.988520    1.574909   -0.802584
     13          6           0       11.415466    0.377135   -2.205622
     14          6           0       12.379893    1.986761   -0.557871
     15          6           0      -12.907829   -1.105445    0.243446
     16          6           0      -11.364208   -0.599326    2.145484
     17          6           0        9.806368    0.899079    0.394358
     18          6           0       -9.855081   -0.573834   -0.313927
     19          6           0       10.204933   -1.560312    2.038503
     20          6           0       -9.980722    2.006229   -1.834232
     21          6           0        8.531542    0.494747    0.295012
     22          6           0       -8.539263   -0.325665   -0.242908
     23          6           0        7.349488    1.333141    0.431535
     24          6           0       -7.470906   -1.301526   -0.400747
     25          6           0        7.548747    2.794658    0.715974
     26          6           0       -7.851707   -2.727947   -0.678479
     27          6           0        6.133861    0.751613    0.294433
     28          6           0       -6.190657   -0.873317   -0.288746
     29          6           0        4.840217    1.374406    0.388173
     30          6           0       -4.984689   -1.648951   -0.406364
     31          6           0        3.685116    0.693421    0.233234
     32          6           0       -3.752165   -1.114822   -0.276320
     33          6           0        2.354703    1.259431    0.314788
     34          6           0       -2.492469   -1.823492   -0.380837
     35          6           0        2.229184    2.733367    0.595092
     36          6           0       -2.534739   -3.299890   -0.659759
     37          6           0        1.227532    0.518214    0.149313
     38          6           0       -1.344306   -1.116052   -0.221427
     39          6           0        1.139095   -0.891240   -0.122479
     40          6           0        0.002486   -1.612188   -0.285385
     41          1           0       13.885293    0.039708    0.177354
     42          1           0       13.935193   -0.095734   -1.572253
     43          1           0      -12.292235    1.801838    1.993239
     44          1           0      -13.740314    0.818290    1.865080
     45          1           0       14.010918   -2.347153   -0.538513
     46          1           0       12.499945   -2.167915   -1.407306
     47          1           0      -13.951278    2.856698    0.466469
     48          1           0      -13.912062    1.443820   -0.566736
     49          1           0       12.960809   -1.981664    1.597498
     50          1           0       11.908192   -3.081046    0.748317
     51          1           0      -11.673357    3.431015   -0.026111
     52          1           0      -12.378499    3.004326   -1.561346
     53          1           0       11.197440   -0.662901   -2.452247
     54          1           0       12.108129    0.769215   -2.954597
     55          1           0       10.480877    0.935121   -2.282255
     56          1           0       12.682112    2.158521    0.477450
     57          1           0       11.553024    2.658374   -0.791540
     58          1           0       13.215797    2.265562   -1.203415
     59          1           0      -13.421130   -0.734169   -0.644013
     60          1           0      -13.660544   -1.442822    0.960335
     61          1           0      -12.325689   -1.979033   -0.054234
     62          1           0      -10.662180    0.112993    2.582959
     63          1           0      -10.817640   -1.520670    1.940856
     64          1           0      -12.132043   -0.822997    2.890174
     65          1           0       10.003398    1.953652    0.555260
     66          1           0      -10.177598   -1.600910   -0.459301
     67          1           0        9.538486   -0.773091    2.382270
     68          1           0       10.791222   -1.917975    2.890139
     69          1           0        9.589669   -2.403947    1.710510
     70          1           0       -9.317102    1.202309   -2.141893
     71          1           0       -9.362155    2.826490   -1.455535
     72          1           0      -10.494828    2.389609   -2.719748
     73          1           0        8.341637   -0.553676    0.084723
     74          1           0       -8.218188    0.690784   -0.036352
     75          1           0        8.104449    2.933092    1.646641
     76          1           0        6.611186    3.337053    0.803698
     77          1           0        8.132853    3.264119   -0.079662
     78          1           0       -8.438777   -2.797844   -1.597565
     79          1           0       -8.471437   -3.124593    0.129851
     80          1           0       -6.988377   -3.379474   -0.784257
     81          1           0        6.120743   -0.315732    0.088502
     82          1           0       -6.042965    0.184420   -0.085574
     83          1           0        4.799783    2.437192    0.592252
     84          1           0       -5.076777   -2.709040   -0.608873
     85          1           0        3.761606   -0.368638    0.029802
     86          1           0       -3.678294   -0.049426   -0.073257
     87          1           0        2.692315    2.994526    1.550271
     88          1           0        1.184375    3.037817    0.632916
     89          1           0        2.726337    3.325922   -0.177421
     90          1           0       -3.046832   -3.497244   -1.604721
     91          1           0       -3.089150   -3.822298    0.123711
     92          1           0       -1.545725   -3.745354   -0.719216
     93          1           0        0.287811    1.052356    0.232447
     94          1           0       -1.463508   -0.056147   -0.024206
     95          1           0        2.067557   -1.442389   -0.207268
     96          1           0        0.132431   -2.669039   -0.484212
 ---------------------------------------------------------------------

 SCF Done:  E(UwB97XD) =  -1557.83757537     A.U. after   21 cycles

 Alpha virt. eigenvalues --    0.18048   0.18250   0.18427   0.18555   0.18657
 Alpha virt. eigenvalues --    0.18763   0.18837   0.18983   0.18995   0.19241
 Alpha virt. eigenvalues --    0.19562   0.20043   0.20315   0.20410   0.20515

  Beta  occ. eigenvalues --  -10.38655 -10.38490 -10.37502 -10.37292 -10.37287
  Beta  occ. eigenvalues --  -10.36949 -10.36898 -10.36726 -10.36549 -10.36546
  Beta  occ. eigenvalues --  -10.36127 -10.35553 -10.35122 -10.34545 -10.34501
  Beta  occ. eigenvalues --  -10.34447 -10.34229 -10.33721 -10.33620 -10.33485
  Beta  occ. eigenvalues --  -10.33085 -10.33053 -10.32953 -10.32839 -10.32469
  Beta  occ. eigenvalues --  -10.32379 -10.32198 -10.31657 -10.30804 -10.30551
  Beta  occ. eigenvalues --  -10.30432 -10.30161 -10.29888 -10.29840 -10.29551
  Beta  occ. eigenvalues --  -10.29521 -10.29506 -10.29446 -10.29309 -10.29035
  Beta  occ. eigenvalues --   -1.01651  -1.00690  -0.99553  -0.99020  -0.98202
  Beta  occ. eigenvalues --   -0.97674  -0.96146  -0.93668  -0.92546  -0.91737
  Beta  occ. eigenvalues --   -0.91378  -0.90556  -0.90007  -0.87334  -0.86685
  Beta  occ. eigenvalues --   -0.86298  -0.85281  -0.84528  -0.84086  -0.81860
  Beta  occ. eigenvalues --   -0.81441  -0.80671  -0.80323  -0.79867  -0.79479
  Beta  occ. eigenvalues --   -0.78765  -0.77661  -0.74696  -0.73398  -0.71867
  Beta  occ. eigenvalues --   -0.70713  -0.70238  -0.69868  -0.69288  -0.69013
  Beta  occ. eigenvalues --   -0.67967  -0.67509  -0.66189  -0.65715  -0.64322
  Beta  occ. eigenvalues --   -0.63405  -0.62665  -0.61989  -0.61409  -0.60389
  Beta  occ. eigenvalues --   -0.59568  -0.59213  -0.58584  -0.58168  -0.57843
  Beta  occ. eigenvalues --   -0.57473  -0.57423  -0.57155  -0.56757  -0.56548
  Beta  occ. eigenvalues --   -0.56384  -0.56221  -0.55969  -0.55575  -0.55275
  Beta  occ. eigenvalues --   -0.54441  -0.54306  -0.54001  -0.53949  -0.53533
  Beta  occ. eigenvalues --   -0.53017  -0.52882  -0.52695  -0.52636  -0.52218
  Beta  occ. eigenvalues --   -0.52086  -0.51693  -0.51592  -0.51368  -0.51199
  Beta  occ. eigenvalues --   -0.51005  -0.50713  -0.50515  -0.50424  -0.50040
  Beta  occ. eigenvalues --   -0.49581  -0.48819  -0.48746  -0.48452  -0.48172
  Beta  occ. eigenvalues --   -0.48117  -0.47846  -0.47726  -0.46834  -0.46428
  Beta  occ. eigenvalues --   -0.46395  -0.45980  -0.45936  -0.45631  -0.45181
  Beta  occ. eigenvalues --   -0.43933  -0.43089  -0.42762  -0.42560  -0.42023
  Beta  occ. eigenvalues --   -0.41360  -0.40926  -0.40601  -0.38221  -0.36103
  Beta  occ. eigenvalues --   -0.34327  -0.32053
  Beta virt. eigenvalues --   -0.21106  -0.13235  -0.09405  -0.05549  -0.02596
  Beta virt. eigenvalues --   -0.00097   0.01170   0.01566   0.02231   0.02559
  Beta virt. eigenvalues --    0.02908   0.03191   0.03519   0.03638   0.04134

 Mulliken charges and spin densities:
               1          2
     1  C    0.168016   0.003577
     2  C    0.064723   0.004468
     3  C   -0.183916   0.000079
     4  C   -0.179361   0.000284
     5  C   -0.170444   0.000346
     6  C   -0.172764   0.000566
     7  C   -0.025730  -0.019888
     8  C    0.014537  -0.024133
     9  C   -0.162792  -0.001916
    10  C   -0.144146  -0.002047
    11  C   -0.017907   0.035069
    12  C   -0.031608   0.046891
    13  C   -0.389011   0.001414
    14  C   -0.404871  -0.000153
    15  C   -0.373432  -0.000826
    16  C   -0.333916   0.000923
    17  C   -0.241926   0.107277
    18  C   -0.204969   0.128658
    19  C   -0.381016  -0.001454
    20  C   -0.378418  -0.001872
    21  C   -0.234045  -0.041457
    22  C   -0.253319  -0.045941
    23  C    0.194521   0.120491
    24  C    0.204130   0.141542
    25  C   -0.372293  -0.005502
    26  C   -0.375317  -0.006448
    27  C   -0.172934  -0.041779
    28  C   -0.177591  -0.039951
    29  C   -0.026413   0.117581
    30  C   -0.011543   0.134630
    31  C   -0.155443  -0.033007
    32  C   -0.196332  -0.027942
    33  C    0.117518   0.106754
    34  C    0.122674   0.092118
    35  C   -0.381324  -0.006529
    36  C   -0.384051  -0.005438
    37  C   -0.114648   0.028923
    38  C   -0.028392   0.044353
    39  C   -0.098611   0.085061
    40  C   -0.152075   0.061893
    41  H    0.098366  -0.000013
    42  H    0.110378   0.000149
    43  H    0.093436   0.000030
    44  H    0.111802   0.000688
    45  H    0.107308  -0.000008
    46  H    0.093366   0.000028
    47  H    0.108133   0.000003
    48  H    0.101053   0.000023
    49  H    0.114318   0.001906
    50  H    0.112501   0.001908
    51  H    0.107181   0.003365
    52  H    0.109000   0.000869
    53  H    0.115727  -0.000013
    54  H    0.125594  -0.000190
    55  H    0.121706  -0.000251
    56  H    0.132714   0.000048
    57  H    0.112530  -0.000013
    58  H    0.134539  -0.000069
    59  H    0.124241   0.000050
    60  H    0.127667  -0.000183
    61  H    0.103561   0.000151
    62  H    0.120741  -0.000059
    63  H    0.112705  -0.000062
    64  H    0.131662  -0.000190
    65  H    0.164103  -0.003972
    66  H    0.154354  -0.004591
    67  H    0.139003   0.000100
    68  H    0.133330   0.001560
    69  H    0.128394   0.001508
    70  H    0.144325   0.000214
    71  H    0.128006   0.002014
    72  H    0.129886   0.002055
    73  H    0.133340   0.001413
    74  H    0.144750   0.001595
    75  H    0.152939   0.005481
    76  H    0.118476   0.000189
    77  H    0.151554   0.005660
    78  H    0.154562   0.006534
    79  H    0.153044   0.006752
    80  H    0.119996   0.000214
    81  H    0.109118   0.001171
    82  H    0.113413   0.000884
    83  H    0.131309  -0.003901
    84  H    0.132916  -0.004315
    85  H    0.114145   0.000493
    86  H    0.113301   0.001130
    87  H    0.152956   0.006930
    88  H    0.127999   0.000440
    89  H    0.153179   0.006948
    90  H    0.154081   0.004980
    91  H    0.154090   0.004984
    92  H    0.131001   0.000284
    93  H    0.110433  -0.002103
    94  H    0.127991  -0.002882
    95  H    0.126475  -0.004072
    96  H    0.111740  -0.002480
 Sum of Mulliken charges =   1.00000   1.00000

 Dipole moment (field-independent basis, Debye):
    X=             -1.6361    Y=             -0.7196    Z=             -0.0666  Tot=              1.7886
 Quadrupole moment (field-independent basis, Debye-Ang):
   XX=             60.6579   YY=           -208.2962   ZZ=           -246.8113
   XY=             11.5079   XZ=              9.7337   YZ=              4.6996

 Normal termination of Gaussian 16 at Thu Nov 14 10:02:12 2019.
