 Gaussian 16, Revision A.03,
 Gaussian 16:  ES64L-G16RevA.03 25-Dec-2016

 --------------------------------------------------------
 # wB97XD/Def2TZVP iop(3/107=0200000000,3/108=0200000000)
 --------------------------------------------------------

 -----
 TITLE
 -----
 Symbolic Z-matrix:
 Charge =  1 Multiplicity = 2

                         Standard orientation:
 ---------------------------------------------------------------------
 Center     Atomic      Atomic             Coordinates (Angstroms)
 Number     Number       Type             X           Y           Z
 ---------------------------------------------------------------------
      1          6           0       11.985538    0.495629   -0.801859
      2          6           0      -11.987940   -0.025864    0.887438
      3          6           0       13.290776   -0.304256   -0.692660
      4          6           0      -12.844225    1.171566    1.319823
      5          6           0       13.051198   -1.792299   -0.517153
      6          6           0      -13.294065    2.023118    0.147972
      7          6           0       10.968971    0.032376    0.249477
      8          6           0      -10.918788    0.408382   -0.125220
      9          6           0       12.285482   -2.029226    0.772084
     10          6           0      -12.080385    2.577331   -0.578372
     11          6           0       11.125728   -1.087450    0.970864
     12          6           0      -10.978997    1.568923   -0.796089
     13          6           0       11.373713    0.324252   -2.200745
     14          6           0       12.334451    1.978552   -0.606041
     15          6           0      -12.880284   -1.111289    0.263772
     16          6           0      -11.323594   -0.601568    2.145362
     17          6           0        9.788301    0.903392    0.401164
     18          6           0       -9.837937   -0.574495   -0.319524
     19          6           0       10.202811   -1.524132    2.074309
     20          6           0       -9.975356    2.006713   -1.826506
     21          6           0        8.521619    0.493212    0.291510
     22          6           0       -8.528857   -0.319900   -0.242356
     23          6           0        7.333128    1.328466    0.424014
     24          6           0       -7.454536   -1.293075   -0.403906
     25          6           0        7.531057    2.788258    0.707220
     26          6           0       -7.834986   -2.717230   -0.682542
     27          6           0        6.125803    0.745416    0.284883
     28          6           0       -6.181798   -0.862857   -0.293378
     29          6           0        4.827512    1.368892    0.376061
     30          6           0       -4.971645   -1.639468   -0.414715
     31          6           0        3.680438    0.687198    0.219592
     32          6           0       -3.746662   -1.103923   -0.285956
     33          6           0        2.346076    1.255506    0.299550
     34          6           0       -2.483070   -1.813963   -0.393622
     35          6           0        2.227231    2.727575    0.579761
     36          6           0       -2.531555   -3.287570   -0.674071
     37          6           0        1.224792    0.518966    0.133508
     38          6           0       -1.340802   -1.110331   -0.235644
     39          6           0        1.140024   -0.895373   -0.140361
     40          6           0        0.009107   -1.612164   -0.302560
     41          1           0       13.858326    0.063200    0.169437
     42          1           0       13.900703   -0.106955   -1.578501
     43          1           0      -12.255697    1.794380    2.002149
     44          1           0      -13.702906    0.805624    1.889750
     45          1           0       13.998332   -2.335311   -0.501550
     46          1           0       12.480017   -2.182970   -1.363441
     47          1           0      -13.934677    2.838598    0.489962
     48          1           0      -13.893935    1.424489   -0.542436
     49          1           0       12.960539   -1.932148    1.632031
     50          1           0       11.909261   -3.056519    0.812430
     51          1           0      -11.662111    3.420966   -0.013947
     52          1           0      -12.375947    2.993027   -1.545868
     53          1           0       11.164655   -0.723715   -2.420598
     54          1           0       12.056328    0.706082   -2.964302
     55          1           0       10.432688    0.871017   -2.281702
     56          1           0       12.642904    2.178607    0.422595
     57          1           0       11.498095    2.635076   -0.849589
     58          1           0       13.162580    2.248703   -1.265367
     59          1           0      -13.404784   -0.741797   -0.618010
     60          1           0      -13.623426   -1.451284    0.989559
     61          1           0      -12.297348   -1.982463   -0.040062
     62          1           0      -10.615849    0.111405    2.573013
     63          1           0      -10.780029   -1.523775    1.935643
     64          1           0      -12.083908   -0.822873    2.898591
     65          1           0        9.981724    1.957294    0.572150
     66          1           0      -10.156895   -1.600975   -0.477441
     67          1           0        9.534366   -0.734260    2.408050
     68          1           0       10.792621   -1.868416    2.928863
     69          1           0        9.589904   -2.373574    1.757487
     70          1           0       -9.312630    1.205095   -2.142039
     71          1           0       -9.355964    2.823240   -1.441418
     72          1           0      -10.492174    2.397423   -2.706986
     73          1           0        8.338046   -0.556492    0.079502
     74          1           0       -8.212499    0.697297   -0.030089
     75          1           0        8.082177    2.926367    1.640613
     76          1           0        6.593425    3.331566    0.788895
     77          1           0        8.120854    3.254816   -0.085871
     78          1           0       -8.421775   -2.785059   -1.601907
     79          1           0       -8.456193   -3.112497    0.125304
     80          1           0       -6.971969   -3.369287   -0.788023
     81          1           0        6.113420   -0.322225    0.079466
     82          1           0       -6.033933    0.194705   -0.088425
     83          1           0        4.785648    2.431818    0.579681
     84          1           0       -5.062814   -2.699472   -0.618720
     85          1           0        3.758536   -0.374973    0.016864
     86          1           0       -3.672885   -0.038552   -0.081444
     87          1           0        2.691553    2.985310    1.535209
     88          1           0        1.183411    3.035780    0.616756
     89          1           0        2.728218    3.317035   -0.192541
     90          1           0       -3.047535   -3.480201   -1.617865
     91          1           0       -3.087296   -3.807487    0.110082
     92          1           0       -1.544664   -3.737300   -0.736462
     93          1           0        0.283819    1.051227    0.215570
     94          1           0       -1.457091   -0.050385   -0.036826
     95          1           0        2.070028   -1.443746   -0.225736
     96          1           0        0.135114   -2.669177   -0.502988
 ---------------------------------------------------------------------

 SCF Done:  E(UwB97XD) =  -1557.71140062     A.U. after   26 cycles

 Alpha virt. eigenvalues --    0.18677   0.18713   0.18991   0.19336   0.19547
 Alpha virt. eigenvalues --    0.19679   0.19752   0.19808   0.19951   0.20278
 Alpha virt. eigenvalues --    0.20495   0.20747   0.21143   0.21317   0.21397

  Beta  occ. eigenvalues --  -10.42736 -10.42421 -10.41603 -10.41341 -10.40973
  Beta  occ. eigenvalues --  -10.40799 -10.40762 -10.40327 -10.40134 -10.39922
  Beta  occ. eigenvalues --  -10.39858 -10.38998 -10.38530 -10.38360 -10.37900
  Beta  occ. eigenvalues --  -10.37652 -10.37617 -10.36940 -10.36835 -10.36672
  Beta  occ. eigenvalues --  -10.36290 -10.36094 -10.35991 -10.35928 -10.35420
  Beta  occ. eigenvalues --  -10.35238 -10.35233 -10.34525 -10.33932 -10.33717
  Beta  occ. eigenvalues --  -10.33435 -10.33182 -10.33059 -10.33019 -10.32746
  Beta  occ. eigenvalues --  -10.32737 -10.32619 -10.32517 -10.32416 -10.32124
  Beta  occ. eigenvalues --   -1.06054  -1.04907  -1.03516  -1.02817  -1.02101
  Beta  occ. eigenvalues --   -1.01476  -1.00250  -0.97614  -0.96436  -0.95455
  Beta  occ. eigenvalues --   -0.94958  -0.94350  -0.93704  -0.91400  -0.90404
  Beta  occ. eigenvalues --   -0.89808  -0.89259  -0.88248  -0.87987  -0.85435
  Beta  occ. eigenvalues --   -0.84839  -0.84229  -0.83756  -0.83368  -0.82856
  Beta  occ. eigenvalues --   -0.82457  -0.81233  -0.78307  -0.76853  -0.75448
  Beta  occ. eigenvalues --   -0.74261  -0.73801  -0.73312  -0.72768  -0.72411
  Beta  occ. eigenvalues --   -0.71351  -0.70965  -0.69520  -0.69268  -0.67915
  Beta  occ. eigenvalues --   -0.66834  -0.66015  -0.65316  -0.64749  -0.63670
  Beta  occ. eigenvalues --   -0.62815  -0.62582  -0.61785  -0.61531  -0.61318
  Beta  occ. eigenvalues --   -0.60970  -0.60716  -0.60387  -0.59952  -0.59708
  Beta  occ. eigenvalues --   -0.59605  -0.59319  -0.59078  -0.58827  -0.58542
  Beta  occ. eigenvalues --   -0.57558  -0.57464  -0.57015  -0.56865  -0.56755
  Beta  occ. eigenvalues --   -0.56450  -0.56036  -0.55786  -0.55694  -0.55199
  Beta  occ. eigenvalues --   -0.55076  -0.54593  -0.54468  -0.54292  -0.54082
  Beta  occ. eigenvalues --   -0.53971  -0.53970  -0.53694  -0.53404  -0.52994
  Beta  occ. eigenvalues --   -0.52426  -0.52048  -0.51649  -0.51394  -0.51020
  Beta  occ. eigenvalues --   -0.50925  -0.50851  -0.50421  -0.49619  -0.49191
  Beta  occ. eigenvalues --   -0.49058  -0.48733  -0.48619  -0.48264  -0.48076
  Beta  occ. eigenvalues --   -0.46643  -0.45749  -0.45347  -0.45176  -0.44602
  Beta  occ. eigenvalues --   -0.43873  -0.43422  -0.43012  -0.40411  -0.38280
  Beta  occ. eigenvalues --   -0.36460  -0.34298
  Beta virt. eigenvalues --   -0.21089  -0.12315  -0.08198  -0.04132  -0.01058
  Beta virt. eigenvalues --    0.01502   0.01635   0.02366   0.02742   0.03182
  Beta virt. eigenvalues --    0.03588   0.03712   0.04063   0.04367   0.04497

 Mulliken charges and spin densities:
               1          2
     1  C    0.212651   0.003709
     2  C    0.108011   0.005212
     3  C   -0.211738   0.000068
     4  C   -0.208720   0.000163
     5  C   -0.195730   0.000233
     6  C   -0.197091   0.000429
     7  C   -0.025552  -0.020880
     8  C    0.013739  -0.027614
     9  C   -0.178023  -0.001425
    10  C   -0.160993  -0.001743
    11  C   -0.027960   0.028423
    12  C   -0.039618   0.042290
    13  C   -0.410099   0.001093
    14  C   -0.427020  -0.000038
    15  C   -0.395235  -0.000916
    16  C   -0.354310   0.000527
    17  C   -0.241396   0.104740
    18  C   -0.199056   0.133064
    19  C   -0.392062  -0.001264
    20  C   -0.390739  -0.001799
    21  C   -0.241478  -0.048161
    22  C   -0.260417  -0.056734
    23  C    0.205934   0.130874
    24  C    0.214338   0.158486
    25  C   -0.387758  -0.005553
    26  C   -0.390626  -0.006662
    27  C   -0.190329  -0.062241
    28  C   -0.193481  -0.060287
    29  C   -0.021646   0.137486
    30  C   -0.005807   0.156624
    31  C   -0.167249  -0.059095
    32  C   -0.206279  -0.047965
    33  C    0.138209   0.130017
    34  C    0.135129   0.108298
    35  C   -0.398506  -0.006582
    36  C   -0.398143  -0.005451
    37  C   -0.124605   0.014161
    38  C   -0.035944   0.046388
    39  C   -0.094900   0.099790
    40  C   -0.145998   0.060459
    41  H    0.105308  -0.000011
    42  H    0.117995   0.000133
    43  H    0.100770   0.000035
    44  H    0.119716   0.000583
    45  H    0.118128  -0.000001
    46  H    0.099343   0.000028
    47  H    0.119221   0.000004
    48  H    0.107064   0.000022
    49  H    0.120049   0.001392
    50  H    0.118683   0.001449
    51  H    0.113703   0.002828
    52  H    0.116395   0.000740
    53  H    0.118804  -0.000012
    54  H    0.129398  -0.000186
    55  H    0.123616  -0.000227
    56  H    0.136093   0.000016
    57  H    0.116627   0.000002
    58  H    0.137892  -0.000061
    59  H    0.127861   0.000057
    60  H    0.131981  -0.000165
    61  H    0.107262   0.000119
    62  H    0.124395  -0.000030
    63  H    0.113451   0.000001
    64  H    0.135732  -0.000117
    65  H    0.160986  -0.003294
    66  H    0.149955  -0.004093
    67  H    0.138405   0.000073
    68  H    0.136212   0.001127
    69  H    0.131777   0.001077
    70  H    0.143762   0.000173
    71  H    0.132370   0.001668
    72  H    0.133776   0.001648
    73  H    0.133563   0.001383
    74  H    0.145582   0.001616
    75  H    0.157160   0.005786
    76  H    0.122237   0.000142
    77  H    0.155239   0.005867
    78  H    0.159748   0.007161
    79  H    0.157741   0.007277
    80  H    0.124307   0.000151
    81  H    0.115163   0.001624
    82  H    0.120472   0.001326
    83  H    0.129147  -0.003648
    84  H    0.131869  -0.004048
    85  H    0.113529   0.001201
    86  H    0.121439   0.001359
    87  H    0.158975   0.008230
    88  H    0.134510   0.000467
    89  H    0.159182   0.008240
    90  H    0.160523   0.005762
    91  H    0.160511   0.005768
    92  H    0.136428   0.000083
    93  H    0.114514  -0.001137
    94  H    0.132829  -0.002420
    95  H    0.138253  -0.003286
    96  H    0.120847  -0.002003
 Sum of Mulliken charges =   1.00000   1.00000

 Dipole moment (field-independent basis, Debye):
    X=             -2.2264    Y=             -0.9459    Z=             -0.1436  Tot=              2.4233
 Quadrupole moment (field-independent basis, Debye-Ang):
   XX=             36.0287   YY=           -209.7248   ZZ=           -248.7430
   XY=             13.7371   XZ=              9.6274   YZ=              5.1822

 Normal termination of Gaussian 16 at Tue Nov 12 20:47:57 2019.
