 Gaussian 16, Revision A.03,
 Gaussian 16:  ES64L-G16RevA.03 25-Dec-2016

 --------------------------------------------------------
 # wB97XD/Def2TZVP iop(3/107=0112500000,3/108=0112500000)
 --------------------------------------------------------

 -----
 TITLE
 -----
 Symbolic Z-matrix:
 Charge =  1 Multiplicity = 2

                         Standard orientation:
 ---------------------------------------------------------------------
 Center     Atomic      Atomic             Coordinates (Angstroms)
 Number     Number       Type             X           Y           Z
 ---------------------------------------------------------------------
      1          6           0       12.019384    0.507977   -0.799097
      2          6           0      -12.018654   -0.016926    0.877941
      3          6           0       13.320368   -0.308598   -0.701609
      4          6           0      -12.877172    1.187738    1.301006
      5          6           0       13.068087   -1.800450   -0.555184
      6          6           0      -13.314513    2.042014    0.122790
      7          6           0       10.987066    0.027218    0.236219
      8          6           0      -10.935381    0.412269   -0.129184
      9          6           0       12.292745   -2.056511    0.727920
     10          6           0      -12.091297    2.588009   -0.599935
     11          6           0       11.136615   -1.109942    0.940908
     12          6           0      -10.990426    1.573658   -0.808315
     13          6           0       11.414209    0.377165   -2.210200
     14          6           0       12.384598    1.986039   -0.563120
     15          6           0      -12.911830   -1.103360    0.245889
     16          6           0      -11.367130   -0.593061    2.147747
     17          6           0        9.809668    0.899996    0.393275
     18          6           0       -9.857879   -0.574924   -0.313938
     19          6           0       10.210693   -1.558391    2.040264
     20          6           0       -9.983807    2.000701   -1.843520
     21          6           0        8.533333    0.497209    0.296635
     22          6           0       -8.540880   -0.328674   -0.243638
     23          6           0        7.352419    1.336272    0.434398
     24          6           0       -7.473673   -1.305337   -0.400403
     25          6           0        7.552056    2.798193    0.719104
     26          6           0       -7.854724   -2.732175   -0.678303
     27          6           0        6.135349    0.754968    0.298003
     28          6           0       -6.192127   -0.877646   -0.287546
     29          6           0        4.842344    1.377293    0.392501
     30          6           0       -4.986736   -1.652974   -0.403988
     31          6           0        3.685986    0.696186    0.238007
     32          6           0       -3.752995   -1.118981   -0.273291
     33          6           0        2.355966    1.261076    0.319964
     34          6           0       -2.493646   -1.826906   -0.376743
     35          6           0        2.228353    2.735412    0.600267
     36          6           0       -2.533982   -3.303971   -0.655284
     37          6           0        1.228044    0.518546    0.154731
     38          6           0       -1.344887   -1.118122   -0.216759
     39          6           0        1.139046   -0.890079   -0.116531
     40          6           0        0.001746   -1.612228   -0.279690
     41          1           0       13.889759    0.036813    0.167757
     42          1           0       13.934937   -0.100361   -1.581355
     43          1           0      -12.294300    1.808782    1.989027
     44          1           0      -13.742868    0.826561    1.862828
     45          1           0       14.011118   -2.350728   -0.545072
     46          1           0       12.499073   -2.171533   -1.411386
     47          1           0      -13.951282    2.862525    0.460010
     48          1           0      -13.915486    1.447419   -0.569729
     49          1           0       12.965016   -1.983588    1.592537
     50          1           0       11.909944   -3.082069    0.745933
     51          1           0      -11.673440    3.432927   -0.036947
     52          1           0      -12.380205    3.002386   -1.569981
     53          1           0       11.193332   -0.662267   -2.456191
     54          1           0       12.106181    0.767271   -2.960644
     55          1           0       10.480905    0.937166   -2.285494
     56          1           0       12.689408    2.157225    0.471375
     57          1           0       11.558400    2.658954   -0.794660
     58          1           0       13.219324    2.264002   -1.210317
     59          1           0      -13.423927   -0.734385   -0.643055
     60          1           0      -13.665567   -1.437632    0.962946
     61          1           0      -12.330745   -1.978540   -0.048578
     62          1           0      -10.665278    0.120014    2.583884
     63          1           0      -10.820698   -1.514846    1.945640
     64          1           0      -12.134951   -0.814950    2.892792
     65          1           0       10.008053    1.954418    0.552335
     66          1           0      -10.181725   -1.601711   -0.457102
     67          1           0        9.544472   -0.770884    2.383380
     68          1           0       10.798847   -1.913063    2.891767
     69          1           0        9.595463   -2.403444    1.716177
     70          1           0       -9.318986    1.196289   -2.146738
     71          1           0       -9.366648    2.824567   -1.470667
     72          1           0      -10.499142    2.377385   -2.731129
     73          1           0        8.342057   -0.550901    0.087089
     74          1           0       -8.218680    0.687459   -0.038297
     75          1           0        8.109347    2.936624    1.648700
     76          1           0        6.614653    3.340278    0.808961
     77          1           0        8.134131    3.268373   -0.077453
     78          1           0       -8.441731   -2.802170   -1.597303
     79          1           0       -8.474066   -3.129224    0.129977
     80          1           0       -6.991519   -3.383630   -0.784356
     81          1           0        6.122194   -0.312194    0.091939
     82          1           0       -6.044538    0.179989   -0.084602
     83          1           0        4.801997    2.439887    0.596696
     84          1           0       -5.078838   -2.712949   -0.606181
     85          1           0        3.762460   -0.365689    0.034381
     86          1           0       -3.679408   -0.053674   -0.070522
     87          1           0        2.690825    2.997444    1.555422
     88          1           0        1.183300    3.038642    0.638094
     89          1           0        2.724456    3.328759   -0.172179
     90          1           0       -3.044843   -3.502503   -1.600545
     91          1           0       -3.087977   -3.827012    0.127909
     92          1           0       -1.544461   -3.748168   -0.713886
     93          1           0        0.288516    1.052707    0.238054
     94          1           0       -1.465248   -0.058401   -0.020010
     95          1           0        2.067238   -1.441552   -0.200982
     96          1           0        0.133137   -2.668890   -0.478018
 ---------------------------------------------------------------------

 SCF Done:  E(UwB97XD) =  -1557.88708442     A.U. after   21 cycles

 Alpha virt. eigenvalues --    0.17861   0.18189   0.18325   0.18426   0.18503
 Alpha virt. eigenvalues --    0.18614   0.18686   0.18804   0.18838   0.19053
 Alpha virt. eigenvalues --    0.19373   0.19940   0.20150   0.20232   0.20358

  Beta  occ. eigenvalues --  -10.37960 -10.37812 -10.36801 -10.36681 -10.36600
  Beta  occ. eigenvalues --  -10.36263 -10.36233 -10.36167 -10.35920 -10.35898
  Beta  occ. eigenvalues --  -10.35490 -10.34958 -10.34538 -10.33962 -10.33892
  Beta  occ. eigenvalues --  -10.33892 -10.33596 -10.33208 -10.33068 -10.32890
  Beta  occ. eigenvalues --  -10.32567 -10.32493 -10.32427 -10.32312 -10.31966
  Beta  occ. eigenvalues --  -10.31881 -10.31676 -10.31162 -10.30265 -10.30006
  Beta  occ. eigenvalues --  -10.29913 -10.29640 -10.29342 -10.29292 -10.29022
  Beta  occ. eigenvalues --  -10.28968 -10.28948 -10.28916 -10.28774 -10.28503
  Beta  occ. eigenvalues --   -1.00906  -0.99976  -0.98881  -0.98370  -0.97536
  Beta  occ. eigenvalues --   -0.97024  -0.95441  -0.92994  -0.91879  -0.91101
  Beta  occ. eigenvalues --   -0.90764  -0.89906  -0.89366  -0.86641  -0.86046
  Beta  occ. eigenvalues --   -0.85695  -0.84599  -0.83896  -0.83397  -0.81241
  Beta  occ. eigenvalues --   -0.80848  -0.80061  -0.79735  -0.79263  -0.78897
  Beta  occ. eigenvalues --   -0.78123  -0.77034  -0.74061  -0.72789  -0.71236
  Beta  occ. eigenvalues --   -0.70097  -0.69621  -0.69240  -0.68668  -0.68408
  Beta  occ. eigenvalues --   -0.67362  -0.66895  -0.65595  -0.65073  -0.63675
  Beta  occ. eigenvalues --   -0.62784  -0.62059  -0.61381  -0.60799  -0.59793
  Beta  occ. eigenvalues --   -0.58977  -0.58599  -0.57997  -0.57589  -0.57176
  Beta  occ. eigenvalues --   -0.56863  -0.56787  -0.56565  -0.56176  -0.55970
  Beta  occ. eigenvalues --   -0.55791  -0.55653  -0.55402  -0.54976  -0.54668
  Beta  occ. eigenvalues --   -0.53876  -0.53717  -0.53450  -0.53409  -0.52929
  Beta  occ. eigenvalues --   -0.52391  -0.52311  -0.52116  -0.52065  -0.51662
  Beta  occ. eigenvalues --   -0.51529  -0.51166  -0.51042  -0.50830  -0.50671
  Beta  occ. eigenvalues --   -0.50441  -0.50160  -0.49968  -0.49764  -0.49489
  Beta  occ. eigenvalues --   -0.49049  -0.48284  -0.48131  -0.47905  -0.47653
  Beta  occ. eigenvalues --   -0.47593  -0.47247  -0.47203  -0.46310  -0.45930
  Beta  occ. eigenvalues --   -0.45870  -0.45463  -0.45431  -0.45132  -0.44612
  Beta  occ. eigenvalues --   -0.43397  -0.42579  -0.42265  -0.42053  -0.41520
  Beta  occ. eigenvalues --   -0.40865  -0.40436  -0.40123  -0.37766  -0.35660
  Beta  occ. eigenvalues --   -0.33913  -0.31639
  Beta virt. eigenvalues --   -0.21137  -0.13434  -0.09665  -0.05846  -0.02906
  Beta virt. eigenvalues --   -0.00420   0.00871   0.01526   0.02046   0.02427
  Beta virt. eigenvalues --    0.02792   0.03045   0.03469   0.03542   0.04041

 Mulliken charges and spin densities:
               1          2
     1  C    0.159380   0.003524
     2  C    0.055890   0.004332
     3  C   -0.177170   0.000081
     4  C   -0.172443   0.000303
     5  C   -0.164682   0.000373
     6  C   -0.167219   0.000599
     7  C   -0.028235  -0.019573
     8  C    0.012567  -0.023520
     9  C   -0.158712  -0.002031
    10  C   -0.140027  -0.002124
    11  C   -0.015563   0.036239
    12  C   -0.029045   0.047739
    13  C   -0.383331   0.001505
    14  C   -0.399701  -0.000161
    15  C   -0.367347  -0.000796
    16  C   -0.328828   0.001010
    17  C   -0.241694   0.107930
    18  C   -0.206028   0.128194
    19  C   -0.376697  -0.001482
    20  C   -0.374362  -0.001889
    21  C   -0.231568  -0.040359
    22  C   -0.250777  -0.044315
    23  C    0.191759   0.118783
    24  C    0.201544   0.138904
    25  C   -0.368617  -0.005561
    26  C   -0.371666  -0.006494
    27  C   -0.168735  -0.038433
    28  C   -0.173668  -0.036821
    29  C   -0.028031   0.114374
    30  C   -0.013280   0.131065
    31  C   -0.152734  -0.028750
    32  C   -0.193420  -0.024615
    33  C    0.112972   0.103223
    34  C    0.119854   0.089539
    35  C   -0.377096  -0.006631
    36  C   -0.380685  -0.005474
    37  C   -0.112242   0.030819
    38  C   -0.026597   0.044042
    39  C   -0.098822   0.082905
    40  C   -0.153196   0.061862
    41  H    0.096628  -0.000014
    42  H    0.108373   0.000153
    43  H    0.091639   0.000029
    44  H    0.109755   0.000709
    45  H    0.104589  -0.000010
    46  H    0.091869   0.000026
    47  H    0.105368   0.000003
    48  H    0.099535   0.000021
    49  H    0.112686   0.002002
    50  H    0.110670   0.001994
    51  H    0.105419   0.003461
    52  H    0.107074   0.000893
    53  H    0.114706  -0.000015
    54  H    0.124386  -0.000186
    55  H    0.120988  -0.000264
    56  H    0.131609   0.000054
    57  H    0.111596  -0.000019
    58  H    0.133406  -0.000070
    59  H    0.123190   0.000047
    60  H    0.126376  -0.000185
    61  H    0.102194   0.000159
    62  H    0.119501  -0.000063
    63  H    0.112383  -0.000085
    64  H    0.130420  -0.000203
    65  H    0.165052  -0.004134
    66  H    0.155652  -0.004725
    67  H    0.138584   0.000099
    68  H    0.132243   0.001648
    69  H    0.127019   0.001587
    70  H    0.143924   0.000218
    71  H    0.126480   0.002070
    72  H    0.128751   0.002141
    73  H    0.133036   0.001431
    74  H    0.144346   0.001608
    75  H    0.151655   0.005410
    76  H    0.117081   0.000204
    77  H    0.150444   0.005613
    78  H    0.153142   0.006414
    79  H    0.151756   0.006656
    80  H    0.118533   0.000232
    81  H    0.107693   0.001088
    82  H    0.111862   0.000804
    83  H    0.132344  -0.003963
    84  H    0.133708  -0.004385
    85  H    0.114216   0.000360
    86  H    0.111559   0.001080
    87  H    0.151431   0.006703
    88  H    0.126210   0.000441
    89  H    0.151632   0.006721
    90  H    0.152474   0.004839
    91  H    0.152503   0.004842
    92  H    0.129492   0.000319
    93  H    0.109738  -0.002289
    94  H    0.127064  -0.002973
    95  H    0.124145  -0.004237
    96  H    0.110122  -0.002577
 Sum of Mulliken charges =   1.00000   1.00000

 Dipole moment (field-independent basis, Debye):
    X=             -1.5398    Y=             -0.6843    Z=             -0.0524  Tot=              1.6858
 Quadrupole moment (field-independent basis, Debye-Ang):
   XX=             64.9092   YY=           -207.9767   ZZ=           -246.3297
   XY=             11.1681   XZ=              9.7798   YZ=              4.6116

 Normal termination of Gaussian 16 at Fri Nov 15 04:36:13 2019.
