 Gaussian 16, Revision A.03,
 Gaussian 16:  ES64L-G16RevA.03 25-Dec-2016

 --------------------------------------------------------
 # wB97XD/Def2TZVP iop(3/107=0150000000,3/108=0150000000)
 --------------------------------------------------------

 -----
 TITLE
 -----
 Symbolic Z-matrix:
 Charge =  1 Multiplicity = 2

                         Standard orientation:
 ---------------------------------------------------------------------
 Center     Atomic      Atomic             Coordinates (Angstroms)
 Number     Number       Type             X           Y           Z
 ---------------------------------------------------------------------
      1          6           0       12.009463    0.506654   -0.792231
      2          6           0      -12.008469   -0.025127    0.879694
      3          6           0       13.311672   -0.303191   -0.688217
      4          6           0      -12.867755    1.173990    1.309438
      5          6           0       13.063742   -1.794178   -0.538597
      6          6           0      -13.308402    2.030934    0.136048
      7          6           0       10.979691    0.028373    0.243128
      8          6           0      -10.929245    0.410796   -0.125211
      9          6           0       12.287693   -2.048621    0.742890
     10          6           0      -12.087935    2.584590   -0.582702
     11          6           0       11.129437   -1.105103    0.950121
     12          6           0      -10.985441    1.574782   -0.796193
     13          6           0       11.407442    0.365259   -2.201258
     14          6           0       12.366685    1.985634   -0.564825
     15          6           0      -12.898986   -1.108962    0.244889
     16          6           0      -11.354123   -0.605695    2.143412
     17          6           0        9.800282    0.899292    0.396792
     18          6           0       -9.849365   -0.572930   -0.314889
     19          6           0       10.200686   -1.553925    2.045269
     20          6           0       -9.977267    2.011367   -1.824227
     21          6           0        8.528379    0.492312    0.293275
     22          6           0       -8.535892   -0.321590   -0.242373
     23          6           0        7.343987    1.329464    0.428022
     24          6           0       -7.465260   -1.296183   -0.401880
     25          6           0        7.542640    2.790321    0.711948
     26          6           0       -7.845700   -2.721860   -0.679533
     27          6           0        6.131261    0.747374    0.289915
     28          6           0       -6.187638   -0.867005   -0.290935
     29          6           0        4.836121    1.370816    0.382468
     30          6           0       -4.980292   -1.643141   -0.410230
     31          6           0        3.683672    0.689818    0.226807
     32          6           0       -3.750319   -1.108591   -0.280917
     33          6           0        2.352112    1.257379    0.307612
     34          6           0       -2.489507   -1.818244   -0.386898
     35          6           0        2.229889    2.730640    0.587834
     36          6           0       -2.534758   -3.293515   -0.666488
     37          6           0        1.226723    0.518289    0.141773
     38          6           0       -1.343026   -1.112727   -0.228163
     39          6           0        1.139462   -0.892918   -0.130889
     40          6           0        0.004535   -1.611917   -0.293520
     41          1           0       13.876387    0.047032    0.182848
     42          1           0       13.928202   -0.094605   -1.566926
     43          1           0      -12.284142    1.793771    1.998686
     44          1           0      -13.731467    0.807727    1.871641
     45          1           0       14.008287   -2.342054   -0.525796
     46          1           0       12.496397   -2.168489   -1.394937
     47          1           0      -13.948993    2.847277    0.476530
     48          1           0      -13.906151    1.436118   -0.559610
     49          1           0       12.957998   -1.969832    1.608749
     50          1           0       11.907265   -3.075190    0.763915
     51          1           0      -11.672168    3.427234   -0.014432
     52          1           0      -12.377350    3.003257   -1.550991
     53          1           0       11.193648   -0.677144   -2.442363
     54          1           0       12.098347    0.756665   -2.952473
     55          1           0       10.470339    0.919149   -2.279832
     56          1           0       12.668270    2.164224    0.469754
     57          1           0       11.537159    2.652906   -0.802482
     58          1           0       13.201843    2.263145   -1.212197
     59          1           0      -13.415429   -0.736037   -0.640277
     60          1           0      -13.649055   -1.449770    0.963205
     61          1           0      -12.315504   -1.980562   -0.056758
     62          1           0      -10.651095    0.106250    2.580424
     63          1           0      -10.807680   -1.526637    1.935487
     64          1           0      -12.120612   -0.830859    2.889290
     65          1           0        9.995418    1.953909    0.561238
     66          1           0      -10.169892   -1.600268   -0.464356
     67          1           0        9.533085   -0.766535    2.386877
     68          1           0       10.786529   -1.910115    2.897944
     69          1           0        9.586472   -2.398400    1.717163
     70          1           0       -9.315011    1.208297   -2.137612
     71          1           0       -9.357088    2.827399   -1.438794
     72          1           0      -10.490684    2.402549   -2.706777
     73          1           0        8.340950   -0.556712    0.082158
     74          1           0       -8.216721    0.695370   -0.033915
     75          1           0        8.096612    2.928724    1.643787
     76          1           0        6.604889    3.333089    0.797227
     77          1           0        8.129133    3.258692   -0.082744
     78          1           0       -8.433493   -2.791253   -1.598325
     79          1           0       -8.465364   -3.118123    0.129215
     80          1           0       -6.982246   -3.373397   -0.785825
     81          1           0        6.118263   -0.320217    0.084181
     82          1           0       -6.039803    0.190830   -0.087285
     83          1           0        4.795466    2.433842    0.586323
     84          1           0       -5.072244   -2.703347   -0.613305
     85          1           0        3.760371   -0.372469    0.023700
     86          1           0       -3.676120   -0.043099   -0.077301
     87          1           0        2.693785    2.990342    1.543156
     88          1           0        1.185489    3.037071    0.625385
     89          1           0        2.728882    3.321804   -0.184703
     90          1           0       -3.048795   -3.488847   -1.610957
     91          1           0       -3.089783   -3.814890    0.117408
     92          1           0       -1.546594   -3.741001   -0.727374
     93          1           0        0.286548    1.052074    0.224434
     94          1           0       -1.460510   -0.052609   -0.030208
     95          1           0        2.068524   -1.443222   -0.216006
     96          1           0        0.132277   -2.669020   -0.493115
 ---------------------------------------------------------------------

 SCF Done:  E(UwB97XD) =  -1557.76746022     A.U. after   22 cycles

 Alpha virt. eigenvalues --    0.18261   0.18424   0.18532   0.18827   0.18995
 Alpha virt. eigenvalues --    0.19080   0.19151   0.19281   0.19335   0.19606
 Alpha virt. eigenvalues --    0.19911   0.20257   0.20614   0.20770   0.20799

  Beta  occ. eigenvalues --  -10.40039 -10.39831 -10.38894 -10.38667 -10.38485
  Beta  occ. eigenvalues --  -10.38314 -10.38216 -10.37837 -10.37821 -10.37777
  Beta  occ. eigenvalues --  -10.37394 -10.36727 -10.36281 -10.35841 -10.35561
  Beta  occ. eigenvalues --  -10.35540 -10.35480 -10.34726 -10.34713 -10.34661
  Beta  occ. eigenvalues --  -10.34157 -10.34106 -10.33988 -10.33883 -10.33465
  Beta  occ. eigenvalues --  -10.33349 -10.33227 -10.32627 -10.31868 -10.31627
  Beta  occ. eigenvalues --  -10.31450 -10.31185 -10.30966 -10.30921 -10.30614
  Beta  occ. eigenvalues --  -10.30607 -10.30592 -10.30489 -10.30364 -10.30082
  Beta  occ. eigenvalues --   -1.03136  -1.02113  -1.00889  -1.00304  -0.99520
  Beta  occ. eigenvalues --   -0.98960  -0.97542  -0.95006  -0.93868  -0.92997
  Beta  occ. eigenvalues --   -0.92589  -0.91843  -0.91268  -0.88713  -0.87950
  Beta  occ. eigenvalues --   -0.87489  -0.86635  -0.85783  -0.85440  -0.83081
  Beta  occ. eigenvalues --   -0.82603  -0.81879  -0.81487  -0.81060  -0.80627
  Beta  occ. eigenvalues --   -0.80030  -0.78890  -0.75943  -0.74589  -0.73106
  Beta  occ. eigenvalues --   -0.71929  -0.71460  -0.71078  -0.70499  -0.70193
  Beta  occ. eigenvalues --   -0.69145  -0.68710  -0.67348  -0.66961  -0.65580
  Beta  occ. eigenvalues --   -0.64609  -0.63839  -0.63162  -0.62586  -0.61542
  Beta  occ. eigenvalues --   -0.60709  -0.60400  -0.59714  -0.59282  -0.59138
  Beta  occ. eigenvalues --   -0.58696  -0.58604  -0.58294  -0.57881  -0.57663
  Beta  occ. eigenvalues --   -0.57526  -0.57313  -0.57062  -0.56731  -0.56438
  Beta  occ. eigenvalues --   -0.55530  -0.55439  -0.55060  -0.54982  -0.54691
  Beta  occ. eigenvalues --   -0.54231  -0.53990  -0.53802  -0.53725  -0.53281
  Beta  occ. eigenvalues --   -0.53152  -0.52706  -0.52636  -0.52404  -0.52209
  Beta  occ. eigenvalues --   -0.52078  -0.51774  -0.51693  -0.51554  -0.51094
  Beta  occ. eigenvalues --   -0.50595  -0.49942  -0.49822  -0.49499  -0.49172
  Beta  occ. eigenvalues --   -0.49103  -0.48981  -0.48702  -0.47831  -0.47397
  Beta  occ. eigenvalues --   -0.47370  -0.46966  -0.46895  -0.46575  -0.46247
  Beta  occ. eigenvalues --   -0.44932  -0.44052  -0.43699  -0.43512  -0.42964
  Beta  occ. eigenvalues --   -0.42281  -0.41840  -0.41486  -0.39046  -0.36913
  Beta  occ. eigenvalues --   -0.35103  -0.32851
  Beta virt. eigenvalues --   -0.21080  -0.12886  -0.08944  -0.05013  -0.02024
  Beta virt. eigenvalues --    0.00501   0.01542   0.01787   0.02368   0.02970
  Beta virt. eigenvalues --    0.03026   0.03504   0.03593   0.03851   0.04259

 Mulliken charges and spin densities:
               1          2
     1  C    0.184540   0.003655
     2  C    0.080841   0.004733
     3  C   -0.195102   0.000076
     4  C   -0.191014   0.000244
     5  C   -0.180290   0.000298
     6  C   -0.182230   0.000508
     7  C   -0.023422  -0.020325
     8  C    0.016411  -0.025333
     9  C   -0.169180  -0.001710
    10  C   -0.150943  -0.001918
    11  C   -0.022406   0.032610
    12  C   -0.035751   0.045232
    13  C   -0.398092   0.001268
    14  C   -0.413696  -0.000121
    15  C   -0.383002  -0.000872
    16  C   -0.342218   0.000768
    17  C   -0.241966   0.106090
    18  C   -0.202857   0.129801
    19  C   -0.386632  -0.001384
    20  C   -0.384247  -0.001839
    21  C   -0.237778  -0.043656
    22  C   -0.256874  -0.049352
    23  C    0.199282   0.123931
    24  C    0.208420   0.147001
    25  C   -0.378308  -0.005447
    26  C   -0.381293  -0.006430
    27  C   -0.180205  -0.048587
    28  C   -0.184323  -0.046420
    29  C   -0.023795   0.124161
    30  C   -0.008681   0.141850
    31  C   -0.160294  -0.041658
    32  C   -0.201015  -0.034569
    33  C    0.125713   0.114229
    34  C    0.127707   0.097392
    35  C   -0.388191  -0.006424
    36  C   -0.389524  -0.005390
    37  C   -0.118795   0.024582
    38  C   -0.031581   0.045114
    39  C   -0.097657   0.089729
    40  C   -0.149835   0.061658
    41  H    0.101175  -0.000012
    42  H    0.113575   0.000141
    43  H    0.096376   0.000031
    44  H    0.115103   0.000648
    45  H    0.111760  -0.000005
    46  H    0.095788   0.000030
    47  H    0.112692   0.000004
    48  H    0.103513   0.000024
    49  H    0.116796   0.001712
    50  H    0.115248   0.001735
    51  H    0.109943   0.003175
    52  H    0.112116   0.000823
    53  H    0.117183  -0.000011
    54  H    0.127371  -0.000192
    55  H    0.122665  -0.000233
    56  H    0.134291   0.000035
    57  H    0.114178  -0.000005
    58  H    0.136152  -0.000066
    59  H    0.125848   0.000054
    60  H    0.129618  -0.000178
    61  H    0.105482   0.000138
    62  H    0.122515  -0.000050
    63  H    0.113088  -0.000028
    64  H    0.133517  -0.000164
    65  H    0.162580  -0.003688
    66  H    0.152239  -0.004367
    67  H    0.139177   0.000093
    68  H    0.134803   0.001394
    69  H    0.130195   0.001345
    70  H    0.144563   0.000202
    71  H    0.130183   0.001896
    72  H    0.131605   0.001898
    73  H    0.133557   0.001390
    74  H    0.145179   0.001584
    75  H    0.154869   0.005598
    76  H    0.120447   0.000166
    77  H    0.153254   0.005742
    78  H    0.156790   0.006753
    79  H    0.155102   0.006938
    80  H    0.122139   0.000186
    81  H    0.111495   0.001332
    82  H    0.116095   0.001037
    83  H    0.129880  -0.003795
    84  H    0.131927  -0.004195
    85  H    0.113930   0.000749
    86  H    0.116369   0.001216
    87  H    0.155455   0.007380
    88  H    0.130859   0.000444
    89  H    0.155689   0.007395
    90  H    0.156718   0.005252
    91  H    0.156720   0.005257
    92  H    0.133403   0.000214
    93  H    0.111772  -0.001744
    94  H    0.129703  -0.002708
    95  H    0.130747  -0.003768
    96  H    0.114845  -0.002299
 Sum of Mulliken charges =   1.00000   1.00000

 Dipole moment (field-independent basis, Debye):
    X=             -1.8428    Y=             -0.7922    Z=             -0.0938  Tot=              2.0080
 Quadrupole moment (field-independent basis, Debye-Ang):
   XX=             52.0661   YY=           -208.8796   ZZ=           -247.6302
   XY=             12.2588   XZ=              9.6759   YZ=              4.8723

 Normal termination of Gaussian 16 at Wed Nov 13 10:21:21 2019.
