 Gaussian 16, Revision A.03,
 Gaussian 16:  ES64L-G16RevA.03 25-Dec-2016

 --------------------------------------------------------
 # wB97XD/Def2TZVP iop(3/107=0075000000,3/108=0075000000)
 --------------------------------------------------------

 -----
 TITLE
 -----
 Symbolic Z-matrix:
 Charge =  1 Multiplicity = 2

                         Standard orientation:
 ---------------------------------------------------------------------
 Center     Atomic      Atomic             Coordinates (Angstroms)
 Number     Number       Type             X           Y           Z
 ---------------------------------------------------------------------
      1          6           0      -12.016557   -0.499753   -0.828071
      2          6           0       12.021244   -0.005181    0.883460
      3          6           0      -13.318907    0.320668   -0.739437
      4          6           0       12.872080   -1.223272    1.292970
      5          6           0      -13.067153    1.811742   -0.569558
      6          6           0       13.311896   -2.064751    0.104468
      7          6           0      -10.994190   -0.030590    0.227124
      8          6           0       10.939217   -0.413650   -0.138602
      9          6           0      -12.305569    2.051384    0.726801
     10          6           0       12.089695   -2.589525   -0.638766
     11          6           0      -11.152533    1.099350    0.944047
     12          6           0       10.995212   -1.564073   -0.838749
     13          6           0      -11.391865   -0.357324   -2.232694
     14          6           0      -12.390325   -1.981523   -0.610097
     15          6           0       12.925528    1.087883    0.271725
     16          6           0       11.365651    0.555305    2.161573
     17          6           0       -9.819529   -0.907703    0.390032
     18          6           0        9.866897    0.582056   -0.315661
     19          6           0      -10.241909    1.532091    2.064894
     20          6           0        9.997295   -1.966642   -1.894652
     21          6           0       -8.538619   -0.510409    0.303098
     22          6           0        8.546048    0.344725   -0.247165
     23          6           0       -7.360443   -1.351565    0.445416
     24          6           0        7.483037    1.325798   -0.399009
     25          6           0       -7.560912   -2.815311    0.730478
     26          6           0        7.866366    2.754134   -0.676603
     27          6           0       -6.139389   -0.770248    0.312303
     28          6           0        6.197372    0.900780   -0.283122
     29          6           0       -4.847100   -1.389579    0.409650
     30          6           0        4.993228    1.675366   -0.394611
     31          6           0       -3.687717   -0.706782    0.257163
     32          6           0        3.755982    1.141545   -0.261532
     33          6           0       -2.357526   -1.266005    0.340515
     34          6           0        2.496588    1.846121   -0.360520
     35          6           0       -2.220490   -2.741840    0.620575
     36          6           0        2.528826    3.325833   -0.637476
     37          6           0       -1.228425   -0.517694    0.176364
     38          6           0        1.347093    1.131620   -0.198252
     39          6           0       -1.138671    0.888893   -0.092646
     40          6           0       -0.000448    1.616583   -0.256705
     41          1           0      -13.902641   -0.034322    0.115533
     42          1           0      -13.921060    0.126279   -1.630217
     43          1           0       12.283325   -1.850480    1.969164
     44          1           0       13.737072   -0.876745    1.864030
     45          1           0      -14.010277    2.361578   -0.562206
     46          1           0      -12.489973    2.195203   -1.413987
     47          1           0       13.937497   -2.896073    0.435527
     48          1           0       13.925494   -1.466999   -0.573170
     49          1           0      -12.988385    1.971430    1.581954
     50          1           0      -11.921895    3.075853    0.760099
     51          1           0       11.662039   -3.441576   -0.094975
     52          1           0       12.384931   -2.988935   -1.612729
     53          1           0      -11.160464    0.682474   -2.464626
     54          1           0      -12.076245   -0.733407   -2.996438
     55          1           0      -10.462275   -0.922837   -2.303624
     56          1           0      -12.711454   -2.161368    0.417421
     57          1           0      -11.563365   -2.654990   -0.834449
     58          1           0      -13.215425   -2.252333   -1.271698
     59          1           0       13.435555    0.732268   -0.623190
     60          1           0       13.681343    1.402992    0.994505
     61          1           0       12.352813    1.973008   -0.006748
     62          1           0       10.659698   -0.160696    2.584748
     63          1           0       10.823936    1.481760    1.971903
     64          1           0       12.130160    0.763313    2.913318
     65          1           0      -10.023225   -1.961264    0.543342
     66          1           0       10.197512    1.606956   -0.451041
     67          1           0       -9.575195    0.742520    2.400430
     68          1           0      -10.841968    1.864566    2.916700
     69          1           0       -9.628701    2.387624    1.766659
     70          1           0        9.328511   -1.158890   -2.177320
     71          1           0        9.384871   -2.806978   -1.553107
     72          1           0       10.521068   -2.310146   -2.790528
     73          1           0       -8.343053    0.536767    0.096672
     74          1           0        8.218884   -0.670130   -0.047076
     75          1           0       -8.123638   -2.954319    1.656284
     76          1           0       -6.623977   -3.356014    0.827606
     77          1           0       -8.135624   -3.287957   -0.069428
     78          1           0        8.452987    2.824635   -1.595387
     79          1           0        8.484838    3.151457    0.131666
     80          1           0        7.004291    3.406268   -0.782948
     81          1           0       -6.126932    0.296349    0.106178
     82          1           0        6.049719   -0.156562   -0.081663
     83          1           0       -4.805677   -2.451372    0.613981
     84          1           0        5.084992    2.734942   -0.595161
     85          1           0       -3.765638    0.354315    0.053099
     86          1           0        3.684162    0.076405   -0.060317
     87          1           0       -2.680115   -3.007768    1.575646
     88          1           0       -1.174158   -3.039256    0.658336
     89          1           0       -2.711942   -3.338581   -0.151742
     90          1           0        3.034840    3.529152   -1.583893
     91          1           0        3.081040    3.851470    0.144713
     92          1           0        1.537214    3.764714   -0.692716
     93          1           0       -0.289054   -1.050842    0.260130
     94          1           0        1.472985    0.072729   -0.003542
     95          1           0       -2.066405    1.440671   -0.175447
     96          1           0       -0.138888    2.672387   -0.452636
 ---------------------------------------------------------------------

 SCF Done:  E(UwB97XD) =  -1558.11076126     A.U. after   21 cycles

 Alpha virt. eigenvalues --    0.17174   0.17577   0.17829   0.17923   0.18100
 Alpha virt. eigenvalues --    0.18148   0.18218   0.18296   0.18412   0.18614
 Alpha virt. eigenvalues --    0.18788   0.19446   0.19635   0.19762   0.19817

  Beta  occ. eigenvalues --  -10.35887 -10.35783 -10.34848 -10.34710 -10.34531
  Beta  occ. eigenvalues --  -10.34463 -10.34230 -10.34214 -10.34020 -10.33941
  Beta  occ. eigenvalues --  -10.33582 -10.33163 -10.32771 -10.32323 -10.32196
  Beta  occ. eigenvalues --  -10.31938 -10.31698 -10.31630 -10.31388 -10.31098
  Beta  occ. eigenvalues --  -10.30985 -10.30808 -10.30793 -10.30724 -10.30444
  Beta  occ. eigenvalues --  -10.30342 -10.30085 -10.29647 -10.28621 -10.28349
  Beta  occ. eigenvalues --  -10.28325 -10.28046 -10.27680 -10.27628 -10.27409
  Beta  occ. eigenvalues --  -10.27302 -10.27289 -10.27257 -10.27148 -10.26888
  Beta  occ. eigenvalues --   -0.98679  -0.97837  -0.96852  -0.96393  -0.95519
  Beta  occ. eigenvalues --   -0.95044  -0.93317  -0.90962  -0.89864  -0.89164
  Beta  occ. eigenvalues --   -0.88889  -0.87943  -0.87416  -0.84575  -0.84108
  Beta  occ. eigenvalues --   -0.83863  -0.82553  -0.81985  -0.81314  -0.79356
  Beta  occ. eigenvalues --   -0.79028  -0.78217  -0.77953  -0.77432  -0.77126
  Beta  occ. eigenvalues --   -0.76184  -0.75125  -0.72126  -0.70927  -0.69314
  Beta  occ. eigenvalues --   -0.68229  -0.67754  -0.67294  -0.66766  -0.66552
  Beta  occ. eigenvalues --   -0.65504  -0.65017  -0.63768  -0.63092  -0.61687
  Beta  occ. eigenvalues --   -0.60862  -0.60180  -0.59496  -0.58904  -0.57939
  Beta  occ. eigenvalues --   -0.57141  -0.56693  -0.56165  -0.55780  -0.55129
  Beta  occ. eigenvalues --   -0.54987  -0.54802  -0.54728  -0.54373  -0.54172
  Beta  occ. eigenvalues --   -0.53943  -0.53879  -0.53630  -0.53118  -0.52771
  Beta  occ. eigenvalues --   -0.52108  -0.51877  -0.51729  -0.51696  -0.51036
  Beta  occ. eigenvalues --   -0.50535  -0.50471  -0.50303  -0.50245  -0.49910
  Beta  occ. eigenvalues --   -0.49776  -0.49493  -0.49315  -0.49151  -0.48993
  Beta  occ. eigenvalues --   -0.48658  -0.48418  -0.48233  -0.47756  -0.47717
  Beta  occ. eigenvalues --   -0.47364  -0.46603  -0.46216  -0.46188  -0.46018
  Beta  occ. eigenvalues --   -0.45921  -0.45529  -0.45341  -0.44649  -0.44342
  Beta  occ. eigenvalues --   -0.44203  -0.43824  -0.43816  -0.43537  -0.42788
  Beta  occ. eigenvalues --   -0.41659  -0.40941  -0.40671  -0.40406  -0.39891
  Beta  occ. eigenvalues --   -0.39243  -0.38843  -0.38545  -0.36210  -0.34166
  Beta  occ. eigenvalues --   -0.32548  -0.30344
  Beta virt. eigenvalues --   -0.21348  -0.14178  -0.10597  -0.06868  -0.03930
  Beta virt. eigenvalues --   -0.01482  -0.00165   0.01119   0.01341   0.01993
  Beta virt. eigenvalues --    0.02268   0.02776   0.03028   0.03290   0.03426

 Mulliken charges and spin densities:
               1          2
     1  C    0.130946   0.003320
     2  C    0.026480   0.003946
     3  C   -0.150460   0.000089
     4  C   -0.145491   0.000360
     5  C   -0.142201   0.000466
     6  C   -0.145575   0.000720
     7  C   -0.041019  -0.018303
     8  C    0.002259  -0.021681
     9  C   -0.141809  -0.002429
    10  C   -0.123649  -0.002407
    11  C   -0.008197   0.039519
    12  C   -0.019836   0.050144
    13  C   -0.359729   0.001855
    14  C   -0.379170  -0.000149
    15  C   -0.342330  -0.000676
    16  C   -0.308258   0.001312
    17  C   -0.240339   0.110137
    18  C   -0.209616   0.127299
    19  C   -0.355914  -0.001547
    20  C   -0.355396  -0.001934
    21  C   -0.219513  -0.037294
    22  C   -0.238104  -0.039968
    23  C    0.181683   0.114111
    24  C    0.191663   0.131754
    25  C   -0.353447  -0.005873
    26  C   -0.356608  -0.006783
    27  C   -0.154143  -0.029054
    28  C   -0.159531  -0.028254
    29  C   -0.033420   0.105493
    30  C   -0.019312   0.120993
    31  C   -0.143820  -0.016586
    32  C   -0.182107  -0.014987
    33  C    0.098281   0.093700
    34  C    0.110594   0.082353
    35  C   -0.359684  -0.007111
    36  C   -0.366685  -0.005612
    37  C   -0.103800   0.035354
    38  C   -0.020549   0.043246
    39  C   -0.097387   0.077065
    40  C   -0.156317   0.061299
    41  H    0.089260  -0.000017
    42  H    0.099960   0.000173
    43  H    0.084110   0.000027
    44  H    0.101273   0.000780
    45  H    0.093669  -0.000018
    46  H    0.085485   0.000015
    47  H    0.094323  -0.000000
    48  H    0.093109   0.000012
    49  H    0.105415   0.002276
    50  H    0.102719   0.002253
    51  H    0.097729   0.003727
    52  H    0.099217   0.000961
    53  H    0.109963  -0.000024
    54  H    0.118877  -0.000159
    55  H    0.117266  -0.000324
    56  H    0.126342   0.000077
    57  H    0.107844  -0.000052
    58  H    0.128094  -0.000073
    59  H    0.118568   0.000034
    60  H    0.120626  -0.000186
    61  H    0.096011   0.000192
    62  H    0.113690  -0.000070
    63  H    0.110474  -0.000187
    64  H    0.124857  -0.000236
    65  H    0.167984  -0.004698
    66  H    0.160230  -0.005225
    67  H    0.135544   0.000072
    68  H    0.127073   0.001922
    69  H    0.120253   0.001806
    70  H    0.140951   0.000211
    71  H    0.119367   0.002209
    72  H    0.123714   0.002416
    73  H    0.130417   0.001521
    74  H    0.141320   0.001684
    75  H    0.146081   0.005170
    76  H    0.110776   0.000264
    77  H    0.145563   0.005442
    78  H    0.147216   0.006031
    79  H    0.146351   0.006353
    80  H    0.112088   0.000300
    81  H    0.101822   0.000842
    82  H    0.105772   0.000572
    83  H    0.136672  -0.004197
    84  H    0.137313  -0.004649
    85  H    0.114061  -0.000049
    86  H    0.104968   0.000899
    87  H    0.145325   0.006023
    88  H    0.118987   0.000455
    89  H    0.145432   0.006045
    90  H    0.146093   0.004405
    91  H    0.146170   0.004404
    92  H    0.123409   0.000424
    93  H    0.107318  -0.002843
    94  H    0.123680  -0.003240
    95  H    0.115932  -0.004755
    96  H    0.104750  -0.002879
 Sum of Mulliken charges =   1.00000   1.00000

 Dipole moment (field-independent basis, Debye):
    X=              1.2709    Y=              0.5952    Z=             -0.0100  Tot=              1.4034
 Quadrupole moment (field-independent basis, Debye-Ang):
   XX=             76.6977   YY=           -206.9377   ZZ=           -244.6441
   XY=             10.4262   XZ=             -9.9845   YZ=             -4.3472

 Normal termination of Gaussian 16 at Thu Nov 14 18:58:16 2019.
