 Gaussian 16, Revision A.03,
 Gaussian 16:  ES64L-G16RevA.03 25-Dec-2016

 --------------------------------------------------------
 # wB97XD/Def2TZVP iop(3/107=0106300000,3/108=0106300000)
 --------------------------------------------------------

 -----
 TITLE
 -----
 Symbolic Z-matrix:
 Charge =  1 Multiplicity = 2

                         Standard orientation:
 ---------------------------------------------------------------------
 Center     Atomic      Atomic             Coordinates (Angstroms)
 Number     Number       Type             X           Y           Z
 ---------------------------------------------------------------------
      1          6           0       12.020006    0.506588   -0.801837
      2          6           0      -12.019908   -0.015205    0.878373
      3          6           0       13.320985   -0.310780   -0.704938
      4          6           0      -12.877739    1.190766    1.300439
      5          6           0       13.068422   -1.802556   -0.555884
      6          6           0      -13.315024    2.044440    0.121483
      7          6           0       10.988235    0.027299    0.235394
      8          6           0      -10.936260    0.412387   -0.129756
      9          6           0       12.294026   -2.056608    0.728464
     10          6           0      -12.091702    2.588421   -0.603072
     11          6           0       11.138377   -1.109143    0.941602
     12          6           0      -10.991304    1.573066   -0.810634
     13          6           0       11.413037    0.374729   -2.212531
     14          6           0       12.386548    1.985040   -0.567634
     15          6           0      -12.914132   -1.102023    0.247438
     16          6           0      -11.368478   -0.590450    2.149128
     17          6           0        9.811331    0.900805    0.392729
     18          6           0       -9.859275   -0.575557   -0.313800
     19          6           0       10.213882   -1.555497    2.043349
     20          6           0       -9.985232    1.998078   -1.847570
     21          6           0        8.534234    0.498904    0.297342
     22          6           0       -8.541649   -0.330399   -0.244136
     23          6           0        7.353877    1.338416    0.435245
     24          6           0       -7.475091   -1.307544   -0.400544
     25          6           0        7.553701    2.800658    0.719571
     26          6           0       -7.856367   -2.734593   -0.678495
     27          6           0        6.136094    0.757213    0.299303
     28          6           0       -6.192858   -0.880204   -0.287417
     29          6           0        4.843346    1.379243    0.393838
     30          6           0       -4.987739   -1.655345   -0.403374
     31          6           0        3.686403    0.697976    0.239656
     32          6           0       -3.753377   -1.121409   -0.272429
     33          6           0        2.356515    1.262219    0.321539
     34          6           0       -2.494183   -1.828900   -0.375375
     35          6           0        2.227645    2.736817    0.601514
     36          6           0       -2.533408   -3.306335   -0.653706
     37          6           0        1.228267    0.518920    0.156475
     38          6           0       -1.345138   -1.119403   -0.215132
     39          6           0        1.139052   -0.889340   -0.114265
     40          6           0        0.001487   -1.612276   -0.277467
     41          1           0       13.891829    0.035617    0.162961
     42          1           0       13.934496   -0.104272   -1.585741
     43          1           0      -12.294446    1.812040    1.987745
     44          1           0      -13.743541    0.830894    1.862800
     45          1           0       14.011355   -2.352943   -0.545669
     46          1           0       12.498801   -2.175007   -1.410980
     47          1           0      -13.950508    2.866024    0.458418
     48          1           0      -13.917385    1.449999   -0.569833
     49          1           0       12.967196   -1.983167    1.592271
     50          1           0       11.910873   -3.081957    0.748004
     51          1           0      -11.673024    3.434086   -0.041912
     52          1           0      -12.381141    3.001400   -1.573500
     53          1           0       11.190636   -0.664637   -2.457075
     54          1           0       12.104539    0.763008   -2.964253
     55          1           0       10.480399    0.935696   -2.287635
     56          1           0       12.693124    2.157029    0.466126
     57          1           0       11.560479    2.658257   -0.798373
     58          1           0       13.220333    2.262099   -1.216313
     59          1           0      -13.425586   -0.733945   -0.642156
     60          1           0      -13.668429   -1.434654    0.964563
     61          1           0      -12.333877   -1.978126   -0.045608
     62          1           0      -10.666395    0.122669    2.584627
     63          1           0      -10.822474   -1.512624    1.948117
     64          1           0      -12.136243   -0.811297    2.894442
     65          1           0       10.010522    1.955160    0.550598
     66          1           0      -10.183856   -1.602172   -0.455774
     67          1           0        9.547362   -0.767728    2.385028
     68          1           0       10.803173   -1.907117    2.895286
     69          1           0        9.599155   -2.402067    1.722443
     70          1           0       -9.320681    1.193089   -2.149589
     71          1           0       -9.367817    2.822734   -1.477037
     72          1           0      -10.501094    2.372794   -2.735659
     73          1           0        8.342296   -0.549123    0.088519
     74          1           0       -8.218794    0.685535   -0.039394
     75          1           0        8.111369    2.939441    1.648831
     76          1           0        6.616390    3.342694    0.809822
     77          1           0        8.135170    3.270836   -0.077353
     78          1           0       -8.443481   -2.804643   -1.597362
     79          1           0       -8.475408   -3.131846    0.129840
     80          1           0       -6.993268   -3.386030   -0.784801
     81          1           0        6.122979   -0.309937    0.093570
     82          1           0       -6.045297    0.177380   -0.084589
     83          1           0        4.802891    2.441787    0.597770
     84          1           0       -5.079780   -2.715259   -0.605395
     85          1           0        3.763025   -0.363851    0.036262
     86          1           0       -3.680028   -0.056137   -0.069823
     87          1           0        2.689665    2.999572    1.556635
     88          1           0        1.182430    3.039290    0.639185
     89          1           0        2.723199    3.330483   -0.170971
     90          1           0       -3.043628   -3.505559   -1.599106
     91          1           0       -3.087123   -3.829768    0.129350
     92          1           0       -1.543590   -3.749763   -0.711877
     93          1           0        0.288836    1.053093    0.239715
     94          1           0       -1.466233   -0.059788   -0.018652
     95          1           0        2.067118   -1.440961   -0.198447
     96          1           0        0.133859   -2.668837   -0.475363
 ---------------------------------------------------------------------

 SCF Done:  E(UwB97XD) =  -1557.91581071     A.U. after   21 cycles

 Alpha virt. eigenvalues --    0.17761   0.18129   0.18276   0.18348   0.18433
 Alpha virt. eigenvalues --    0.18548   0.18621   0.18711   0.18761   0.18957
 Alpha virt. eigenvalues --    0.19277   0.19887   0.20063   0.20148   0.20273

  Beta  occ. eigenvalues --  -10.37614 -10.37475 -10.36453 -10.36379 -10.36256
  Beta  occ. eigenvalues --  -10.35922 -10.35902 -10.35887 -10.35606 -10.35574
  Beta  occ. eigenvalues --  -10.35174 -10.34661 -10.34247 -10.33693 -10.33615
  Beta  occ. eigenvalues --  -10.33567 -10.33282 -10.32950 -10.32793 -10.32595
  Beta  occ. eigenvalues --  -10.32307 -10.32212 -10.32165 -10.32051 -10.31715
  Beta  occ. eigenvalues --  -10.31631 -10.31417 -10.30914 -10.29997 -10.29736
  Beta  occ. eigenvalues --  -10.29653 -10.29378 -10.29070 -10.29020 -10.28757
  Beta  occ. eigenvalues --  -10.28693 -10.28671 -10.28652 -10.28507 -10.28238
  Beta  occ. eigenvalues --   -1.00536  -0.99621  -0.98547  -0.98046  -0.97206
  Beta  occ. eigenvalues --   -0.96699  -0.95090  -0.92658  -0.91547  -0.90785
  Beta  occ. eigenvalues --   -0.90457  -0.89583  -0.89046  -0.86298  -0.85728
  Beta  occ. eigenvalues --   -0.85394  -0.84260  -0.83580  -0.83054  -0.80933
  Beta  occ. eigenvalues --   -0.80550  -0.79758  -0.79441  -0.78964  -0.78606
  Beta  occ. eigenvalues --   -0.77804  -0.76721  -0.73745  -0.72484  -0.70921
  Beta  occ. eigenvalues --   -0.69789  -0.69314  -0.68923  -0.68358  -0.68104
  Beta  occ. eigenvalues --   -0.67058  -0.66588  -0.65297  -0.64751  -0.63350
  Beta  occ. eigenvalues --   -0.62472  -0.61754  -0.61075  -0.60492  -0.59493
  Beta  occ. eigenvalues --   -0.58680  -0.58290  -0.57701  -0.57297  -0.56841
  Beta  occ. eigenvalues --   -0.56559  -0.56464  -0.56268  -0.55883  -0.55680
  Beta  occ. eigenvalues --   -0.55492  -0.55367  -0.55115  -0.54674  -0.54361
  Beta  occ. eigenvalues --   -0.53592  -0.53420  -0.53172  -0.53134  -0.52622
  Beta  occ. eigenvalues --   -0.52077  -0.52023  -0.51824  -0.51775  -0.51381
  Beta  occ. eigenvalues --   -0.51248  -0.50898  -0.50765  -0.50558  -0.50403
  Beta  occ. eigenvalues --   -0.50155  -0.49879  -0.49690  -0.49431  -0.49211
  Beta  occ. eigenvalues --   -0.48779  -0.48015  -0.47820  -0.47629  -0.47390
  Beta  occ. eigenvalues --   -0.47327  -0.46953  -0.46925  -0.46046  -0.45677
  Beta  occ. eigenvalues --   -0.45605  -0.45200  -0.45173  -0.44878  -0.44321
  Beta  occ. eigenvalues --   -0.43123  -0.42319  -0.42011  -0.41793  -0.41264
  Beta  occ. eigenvalues --   -0.40611  -0.40186  -0.39877  -0.37530  -0.35431
  Beta  occ. eigenvalues --   -0.33700  -0.31429
  Beta virt. eigenvalues --   -0.21157  -0.13540  -0.09802  -0.06002  -0.03065
  Beta virt. eigenvalues --   -0.00587   0.00713   0.01505   0.01920   0.02384
  Beta virt. eigenvalues --    0.02706   0.02991   0.03433   0.03496   0.03978

 Mulliken charges and spin densities:
               1          2
     1  C    0.154963   0.003494
     2  C    0.051171   0.004262
     3  C   -0.173444   0.000082
     4  C   -0.168660   0.000313
     5  C   -0.161573   0.000387
     6  C   -0.164246   0.000618
     7  C   -0.029777  -0.019392
     8  C    0.011469  -0.023245
     9  C   -0.156409  -0.002091
    10  C   -0.137711  -0.002172
    11  C   -0.014445   0.036792
    12  C   -0.027735   0.048238
    13  C   -0.380171   0.001555
    14  C   -0.396883  -0.000163
    15  C   -0.363934  -0.000780
    16  C   -0.325979   0.001053
    17  C   -0.241547   0.108261
    18  C   -0.206583   0.128020
    19  C   -0.374074  -0.001494
    20  C   -0.372094  -0.001905
    21  C   -0.230157  -0.039823
    22  C   -0.249144  -0.043549
    23  C    0.190286   0.117944
    24  C    0.200091   0.137637
    25  C   -0.366579  -0.005598
    26  C   -0.369655  -0.006527
    27  C   -0.166528  -0.036814
    28  C   -0.171563  -0.035300
    29  C   -0.028881   0.112823
    30  C   -0.014228   0.129320
    31  C   -0.151353  -0.026690
    32  C   -0.191796  -0.022962
    33  C    0.110672   0.101545
    34  C    0.118387   0.088268
    35  C   -0.374749  -0.006694
    36  C   -0.378827  -0.005495
    37  C   -0.111020   0.031653
    38  C   -0.025641   0.043915
    39  C   -0.098800   0.081892
    40  C   -0.153789   0.061788
    41  H    0.095643  -0.000014
    42  H    0.107251   0.000156
    43  H    0.090637   0.000029
    44  H    0.108620   0.000721
    45  H    0.103097  -0.000012
    46  H    0.091036   0.000025
    47  H    0.103859   0.000002
    48  H    0.098696   0.000020
    49  H    0.111748   0.002048
    50  H    0.109618   0.002037
    51  H    0.104421   0.003515
    52  H    0.106007   0.000909
    53  H    0.114116  -0.000016
    54  H    0.123686  -0.000183
    55  H    0.120554  -0.000272
    56  H    0.130957   0.000058
    57  H    0.111089  -0.000023
    58  H    0.132741  -0.000071
    59  H    0.122590   0.000045
    60  H    0.125636  -0.000186
    61  H    0.101417   0.000163
    62  H    0.118793  -0.000065
    63  H    0.112152  -0.000098
    64  H    0.129713  -0.000209
    65  H    0.165555  -0.004218
    66  H    0.156362  -0.004798
    67  H    0.138280   0.000096
    68  H    0.131584   0.001694
    69  H    0.126192   0.001624
    70  H    0.143690   0.000221
    71  H    0.125610   0.002105
    72  H    0.128084   0.002185
    73  H    0.132827   0.001442
    74  H    0.144051   0.001617
    75  H    0.150926   0.005375
    76  H    0.116272   0.000212
    77  H    0.149800   0.005586
    78  H    0.152351   0.006353
    79  H    0.151030   0.006608
    80  H    0.117702   0.000242
    81  H    0.106900   0.001047
    82  H    0.111016   0.000764
    83  H    0.132933  -0.003996
    84  H    0.134180  -0.004423
    85  H    0.114236   0.000293
    86  H    0.110625   0.001052
    87  H    0.150592   0.006591
    88  H    0.125216   0.000442
    89  H    0.150780   0.006610
    90  H    0.151591   0.004768
    91  H    0.151627   0.004770
    92  H    0.128659   0.000337
    93  H    0.109381  -0.002381
    94  H    0.126572  -0.003019
    95  H    0.122932  -0.004321
    96  H    0.109306  -0.002624
 Sum of Mulliken charges =   1.00000   1.00000

 Dipole moment (field-independent basis, Debye):
    X=             -1.4980    Y=             -0.6663    Z=             -0.0466  Tot=              1.6402
 Quadrupole moment (field-independent basis, Debye-Ang):
   XX=             67.0060   YY=           -207.8092   ZZ=           -246.0776
   XY=             11.0055   XZ=              9.8022   YZ=              4.5646

 Normal termination of Gaussian 16 at Fri Nov 15 20:53:54 2019.
