 Gaussian 16, Revision A.03,
 Gaussian 16:  ES64L-G16RevA.03 25-Dec-2016

 --------------------------------------------------------
 # wB97XD/Def2TZVP iop(3/107=0118700000,3/108=0118700000)
 --------------------------------------------------------

 -----
 TITLE
 -----
 Symbolic Z-matrix:
 Charge =  1 Multiplicity = 2

                         Standard orientation:
 ---------------------------------------------------------------------
 Center     Atomic      Atomic             Coordinates (Angstroms)
 Number     Number       Type             X           Y           Z
 ---------------------------------------------------------------------
      1          6           0       12.018508    0.508675   -0.796603
      2          6           0      -12.017317   -0.018752    0.877864
      3          6           0       13.319524   -0.307006   -0.698088
      4          6           0      -12.876042    1.184754    1.302414
      5          6           0       13.067678   -1.798848   -0.553256
      6          6           0      -13.313811    2.039896    0.125286
      7          6           0       10.985849    0.027193    0.237368
      8          6           0      -10.934486    0.412058   -0.128361
      9          6           0       12.291397   -2.056133    0.728762
     10          6           0      -12.090978    2.587535   -0.596354
     11          6           0       11.134931   -1.110205    0.941262
     12          6           0      -10.989656    1.574195   -0.805667
     13          6           0       11.414881    0.377882   -2.207929
     14          6           0       12.382349    1.986543   -0.559983
     15          6           0      -12.909861   -1.104393    0.244561
     16          6           0      -11.365673   -0.596282    2.146501
     17          6           0        9.808065    0.899463    0.393914
     18          6           0       -9.856470   -0.574333   -0.313950
     19          6           0       10.207981   -1.559874    2.038924
     20          6           0       -9.982518    2.003385   -1.839151
     21          6           0        8.532474    0.495883    0.295952
     22          6           0       -8.540058   -0.327016   -0.243530
     23          6           0        7.350993    1.334582    0.433269
     24          6           0       -7.472251   -1.303273   -0.400700
     25          6           0        7.550445    2.796257    0.718041
     26          6           0       -7.853148   -2.729965   -0.678217
     27          6           0        6.134636    0.753212    0.296412
     28          6           0       -6.191359   -0.875292   -0.288354
     29          6           0        4.841319    1.375781    0.390621
     30          6           0       -4.985676   -1.650804   -0.405180
     31          6           0        3.685580    0.694765    0.235828
     32          6           0       -3.752542   -1.116740   -0.274821
     33          6           0        2.355364    1.260245    0.317664
     34          6           0       -2.493038   -1.825109   -0.378578
     35          6           0        2.228873    2.734381    0.597950
     36          6           0       -2.534370   -3.301882   -0.657073
     37          6           0        1.227802    0.518382    0.152396
     38          6           0       -1.344549   -1.117044   -0.218905
     39          6           0        1.139092   -0.890687   -0.119039
     40          6           0        0.002152   -1.612236   -0.282140
     41          1           0       13.887511    0.038040    0.172476
     42          1           0       13.935119   -0.097590   -1.576932
     43          1           0      -12.293129    1.805347    1.990977
     44          1           0      -13.741461    0.822445    1.864080
     45          1           0       14.010860   -2.348917   -0.542864
     46          1           0       12.499361   -2.169237   -1.410330
     47          1           0      -13.951377    2.859520    0.463246
     48          1           0      -13.914078    1.445442   -0.568101
     49          1           0       12.962833   -1.983440    1.594118
     50          1           0       11.908806   -3.081840    0.745792
     51          1           0      -11.673693    3.431997   -0.032153
     52          1           0      -12.379794    3.002908   -1.566067
     53          1           0       11.195385   -0.661761   -2.454604
     54          1           0       12.107203    0.769206   -2.957519
     55          1           0       10.480943    0.936926   -2.283710
     56          1           0       12.685898    2.157669    0.474976
     57          1           0       11.555842    2.658933   -0.792336
     58          1           0       13.217661    2.265124   -1.206278
     59          1           0      -13.422635   -0.734213   -0.643581
     60          1           0      -13.663033   -1.440313    0.961552
     61          1           0      -12.328237   -1.978735   -0.051641
     62          1           0      -10.663747    0.116398    2.583368
     63          1           0      -10.819141   -1.517829    1.943110
     64          1           0      -12.133497   -0.819130    2.891357
     65          1           0       10.005747    1.953958    0.553966
     66          1           0      -10.179583   -1.601335   -0.457919
     67          1           0        9.541361   -0.772752    2.382351
     68          1           0       10.795365   -1.915772    2.890509
     69          1           0        9.593066   -2.404502    1.712970
     70          1           0       -9.318081    1.199319   -2.144396
     71          1           0       -9.364873    2.825702   -1.463539
     72          1           0      -10.497297    2.383103   -2.725826
     73          1           0        8.341890   -0.552359    0.085890
     74          1           0       -8.218445    0.689342   -0.037861
     75          1           0        8.107347    2.934572    1.647950
     76          1           0        6.612951    3.338395    0.807354
     77          1           0        8.133159    3.266286   -0.078217
     78          1           0       -8.440652   -2.800074   -1.596949
     79          1           0       -8.472235   -3.126827    0.130436
     80          1           0       -6.989853   -3.381356   -0.784533
     81          1           0        6.121454   -0.314011    0.090232
     82          1           0       -6.043696    0.182437   -0.085511
     83          1           0        4.800959    2.438457    0.594871
     84          1           0       -5.077779   -2.710876   -0.607346
     85          1           0        3.762047   -0.367176    0.032146
     86          1           0       -3.678789   -0.051350   -0.072101
     87          1           0        2.691636    2.995963    1.553144
     88          1           0        1.183960    3.038293    0.635714
     89          1           0        2.725596    3.327313   -0.174486
     90          1           0       -3.045799   -3.499984   -1.602181
     91          1           0       -3.088639   -3.824486    0.126298
     92          1           0       -1.545101   -3.746733   -0.715966
     93          1           0        0.288173    1.052525    0.235636
     94          1           0       -1.464264   -0.057179   -0.022124
     95          1           0        2.067437   -1.441993   -0.203492
     96          1           0        0.132809   -2.669018   -0.480606
 ---------------------------------------------------------------------

 SCF Done:  E(UwB97XD) =  -1557.86118097     A.U. after   21 cycles

 Alpha virt. eigenvalues --    0.17957   0.18226   0.18379   0.18493   0.18576
 Alpha virt. eigenvalues --    0.18686   0.18760   0.18894   0.18915   0.19147
 Alpha virt. eigenvalues --    0.19467   0.19992   0.20233   0.20319   0.20438

  Beta  occ. eigenvalues --  -10.38305 -10.38149 -10.37149 -10.36982 -10.36944
  Beta  occ. eigenvalues --  -10.36603 -10.36564 -10.36445 -10.36231 -10.36222
  Beta  occ. eigenvalues --  -10.35807 -10.35253 -10.34828 -10.34230 -10.34216
  Beta  occ. eigenvalues --  -10.34168 -10.33910 -10.33463 -10.33343 -10.33186
  Beta  occ. eigenvalues --  -10.32824 -10.32771 -10.32689 -10.32574 -10.32216
  Beta  occ. eigenvalues --  -10.32129 -10.31936 -10.31408 -10.30533 -10.30277
  Beta  occ. eigenvalues --  -10.30171 -10.29899 -10.29614 -10.29565 -10.29285
  Beta  occ. eigenvalues --  -10.29243 -10.29225 -10.29180 -10.29040 -10.28767
  Beta  occ. eigenvalues --   -1.01275  -1.00330  -0.99214  -0.98693  -0.97867
  Beta  occ. eigenvalues --   -0.97347  -0.95791  -0.93328  -0.92210  -0.91417
  Beta  occ. eigenvalues --   -0.91069  -0.90229  -0.89684  -0.86985  -0.86364
  Beta  occ. eigenvalues --   -0.85995  -0.84937  -0.84210  -0.83740  -0.81548
  Beta  occ. eigenvalues --   -0.81142  -0.80364  -0.80027  -0.79563  -0.79186
  Beta  occ. eigenvalues --   -0.78442  -0.77346  -0.74377  -0.73092  -0.71550
  Beta  occ. eigenvalues --   -0.70403  -0.69927  -0.69553  -0.68977  -0.68709
  Beta  occ. eigenvalues --   -0.67663  -0.67201  -0.65891  -0.65393  -0.63997
  Beta  occ. eigenvalues --   -0.63094  -0.62361  -0.61684  -0.61103  -0.60090
  Beta  occ. eigenvalues --   -0.59272  -0.58905  -0.58290  -0.57878  -0.57508
  Beta  occ. eigenvalues --   -0.57166  -0.57105  -0.56859  -0.56465  -0.56259
  Beta  occ. eigenvalues --   -0.56087  -0.55937  -0.55685  -0.55275  -0.54971
  Beta  occ. eigenvalues --   -0.54158  -0.54011  -0.53725  -0.53678  -0.53231
  Beta  occ. eigenvalues --   -0.52703  -0.52595  -0.52405  -0.52351  -0.51940
  Beta  occ. eigenvalues --   -0.51807  -0.51429  -0.51317  -0.51098  -0.50934
  Beta  occ. eigenvalues --   -0.50723  -0.50436  -0.50241  -0.50093  -0.49764
  Beta  occ. eigenvalues --   -0.49315  -0.48551  -0.48439  -0.48178  -0.47911
  Beta  occ. eigenvalues --   -0.47855  -0.47546  -0.47465  -0.46572  -0.46179
  Beta  occ. eigenvalues --   -0.46133  -0.45722  -0.45683  -0.45381  -0.44897
  Beta  occ. eigenvalues --   -0.43666  -0.42834  -0.42514  -0.42307  -0.41772
  Beta  occ. eigenvalues --   -0.41113  -0.40681  -0.40363  -0.37996  -0.35883
  Beta  occ. eigenvalues --   -0.34121  -0.31845
  Beta virt. eigenvalues --   -0.21120  -0.13333  -0.09533  -0.05696  -0.02750
  Beta virt. eigenvalues --   -0.00258   0.01023   0.01546   0.02151   0.02483
  Beta virt. eigenvalues --    0.02859   0.03112   0.03496   0.03589   0.04092

 Mulliken charges and spin densities:
               1          2
     1  C    0.163694   0.003552
     2  C    0.060312   0.004399
     3  C   -0.180609   0.000080
     4  C   -0.175964   0.000294
     5  C   -0.167623   0.000359
     6  C   -0.170088   0.000582
     7  C   -0.026887  -0.019733
     8  C    0.013640  -0.023823
     9  C   -0.160785  -0.001973
    10  C   -0.142143  -0.002085
    11  C   -0.016797   0.035656
    12  C   -0.030347   0.047325
    13  C   -0.386267   0.001458
    14  C   -0.402339  -0.000158
    15  C   -0.370492  -0.000811
    16  C   -0.331428   0.000966
    17  C   -0.241773   0.107587
    18  C   -0.205454   0.128410
    19  C   -0.378911  -0.001468
    20  C   -0.376502  -0.001880
    21  C   -0.232936  -0.040896
    22  C   -0.252169  -0.045107
    23  C    0.193178   0.119610
    24  C    0.202875   0.140195
    25  C   -0.370515  -0.005529
    26  C   -0.373552  -0.006468
    27  C   -0.170865  -0.040079
    28  C   -0.175664  -0.038348
    29  C   -0.027207   0.115944
    30  C   -0.012390   0.132818
    31  C   -0.154108  -0.030851
    32  C   -0.194910  -0.026244
    33  C    0.115265   0.104955
    34  C    0.121271   0.090800
    35  C   -0.379276  -0.006577
    36  C   -0.382423  -0.005455
    37  C   -0.113484   0.029896
    38  C   -0.027492   0.044211
    39  C   -0.098716   0.083972
    40  C   -0.152657   0.061878
    41  H    0.097522  -0.000013
    42  H    0.109408   0.000151
    43  H    0.092562   0.000029
    44  H    0.110810   0.000699
    45  H    0.105986  -0.000009
    46  H    0.092641   0.000027
    47  H    0.106791   0.000003
    48  H    0.100327   0.000022
    49  H    0.113530   0.001954
    50  H    0.111603   0.001951
    51  H    0.106338   0.003414
    52  H    0.108071   0.000882
    53  H    0.115241  -0.000014
    54  H    0.125017  -0.000188
    55  H    0.121369  -0.000257
    56  H    0.132190   0.000051
    57  H    0.112071  -0.000015
    58  H    0.133998  -0.000069
    59  H    0.123736   0.000048
    60  H    0.127048  -0.000184
    61  H    0.102916   0.000155
    62  H    0.120155  -0.000061
    63  H    0.112552  -0.000073
    64  H    0.131067  -0.000197
    65  H    0.164559  -0.004052
    66  H    0.154987  -0.004656
    67  H    0.138817   0.000099
    68  H    0.132797   0.001606
    69  H    0.127739   0.001547
    70  H    0.144157   0.000216
    71  H    0.127282   0.002042
    72  H    0.129347   0.002099
    73  H    0.133227   0.001422
    74  H    0.144589   0.001601
    75  H    0.152315   0.005443
    76  H    0.117810   0.000197
    77  H    0.151032   0.005638
    78  H    0.153867   0.006471
    79  H    0.152436   0.006707
    80  H    0.119296   0.000223
    81  H    0.108423   0.001129
    82  H    0.112655   0.000843
    83  H    0.131802  -0.003931
    84  H    0.133288  -0.004349
    85  H    0.114185   0.000426
    86  H    0.112448   0.001105
    87  H    0.152217   0.006816
    88  H    0.127133   0.000440
    89  H    0.152428   0.006833
    90  H    0.153299   0.004909
    91  H    0.153317   0.004912
    92  H    0.130269   0.000302
    93  H    0.110086  -0.002196
    94  H    0.127531  -0.002928
    95  H    0.125319  -0.004155
    96  H    0.110935  -0.002528
 Sum of Mulliken charges =   1.00000   1.00000

 Dipole moment (field-independent basis, Debye):
    X=             -1.5889    Y=             -0.7017    Z=             -0.0590  Tot=              1.7380
 Quadrupole moment (field-independent basis, Debye-Ang):
   XX=             62.8135   YY=           -208.1364   ZZ=           -246.5738
   XY=             11.3321   XZ=              9.7559   YZ=              4.6535

 Normal termination of Gaussian 16 at Fri Nov 15 11:54:35 2019.
