 Gaussian 16, Revision A.03,

 ------------------------------------------------------------
 # wB97XD/Def2TZVP iop(3/107=0106300000,3/108=0106300000) opt
 ------------------------------------------------------------

 -------------------------
 b-carotene-charged-tunado
 -------------------------
 Symbolic Z-matrix:
 Charge =  1 Multiplicity = 2

 SCF Done:  E(UwB97XD) =  -1557.91581011     A.U. after   21 cycles
 SCF Done:  E(UwB97XD) =  -1557.92281716     A.U. after   18 cycles
 SCF Done:  E(UwB97XD) =  -1557.92460589     A.U. after   20 cycles
 SCF Done:  E(UwB97XD) =  -1557.92456754     A.U. after   18 cycles
 SCF Done:  E(UwB97XD) =  -1557.92484288     A.U. after   16 cycles
 SCF Done:  E(UwB97XD) =  -1557.92490741     A.U. after   17 cycles
 SCF Done:  E(UwB97XD) =  -1557.92494506     A.U. after   16 cycles
 SCF Done:  E(UwB97XD) =  -1557.92495657     A.U. after   14 cycles
 SCF Done:  E(UwB97XD) =  -1557.92496080     A.U. after   12 cycles
 SCF Done:  E(UwB97XD) =  -1557.92496282     A.U. after   11 cycles
 SCF Done:  E(UwB97XD) =  -1557.92496397     A.U. after   11 cycles
 SCF Done:  E(UwB97XD) =  -1557.92496442     A.U. after    7 cycles
 SCF Done:  E(UwB97XD) =  -1557.92496479     A.U. after    8 cycles
 SCF Done:  E(UwB97XD) =  -1557.92496494     A.U. after   10 cycles
 SCF Done:  E(UwB97XD) =  -1557.92496501     A.U. after   10 cycles
 SCF Done:  E(UwB97XD) =  -1557.92496504     A.U. after   10 cycles
 Optimization completed.
    -- Stationary point found.

 Alpha virt. eigenvalues --    0.17987   0.18050   0.18295   0.18318   0.18456
 Alpha virt. eigenvalues --    0.18604   0.18841   0.18863   0.18993   0.19393
 Alpha virt. eigenvalues --    0.19890   0.20057   0.20198   0.20351   0.20587

  Beta  occ. eigenvalues --  -10.36879 -10.36837 -10.36230 -10.35983 -10.35575
  Beta  occ. eigenvalues --  -10.35331 -10.35272 -10.35223 -10.35107 -10.34837
  Beta  occ. eigenvalues --  -10.34492 -10.34134 -10.33888 -10.33641 -10.33533
  Beta  occ. eigenvalues --  -10.33193 -10.33031 -10.32822 -10.32714 -10.32703
  Beta  occ. eigenvalues --  -10.32450 -10.32439 -10.32400 -10.32229 -10.32215
  Beta  occ. eigenvalues --  -10.32061 -10.31644 -10.31400 -10.30243 -10.30080
  Beta  occ. eigenvalues --  -10.30065 -10.29933 -10.29255 -10.29160 -10.29089
  Beta  occ. eigenvalues --  -10.28947 -10.28838 -10.28807 -10.28796 -10.28517
  Beta  occ. eigenvalues --   -1.00020  -0.99301  -0.98534  -0.98156  -0.97235
  Beta  occ. eigenvalues --   -0.96744  -0.94716  -0.92429  -0.91366  -0.91031
  Beta  occ. eigenvalues --   -0.90902  -0.89500  -0.88863  -0.86253  -0.85611
  Beta  occ. eigenvalues --   -0.85499  -0.84011  -0.83554  -0.82326  -0.81340
  Beta  occ. eigenvalues --   -0.80805  -0.79926  -0.79749  -0.79202  -0.78997
  Beta  occ. eigenvalues --   -0.77807  -0.76690  -0.73634  -0.72576  -0.70713
  Beta  occ. eigenvalues --   -0.69856  -0.69335  -0.68635  -0.68363  -0.68224
  Beta  occ. eigenvalues --   -0.67023  -0.66421  -0.65236  -0.64523  -0.63149
  Beta  occ. eigenvalues --   -0.62354  -0.61770  -0.60978  -0.60359  -0.59531
  Beta  occ. eigenvalues --   -0.58782  -0.58209  -0.57761  -0.57541  -0.56400
  Beta  occ. eigenvalues --   -0.56343  -0.56218  -0.56100  -0.55958  -0.55656
  Beta  occ. eigenvalues --   -0.55423  -0.55325  -0.55163  -0.54236  -0.54091
  Beta  occ. eigenvalues --   -0.53755  -0.53620  -0.53543  -0.53278  -0.52157
  Beta  occ. eigenvalues --   -0.52088  -0.51991  -0.51761  -0.51489  -0.51339
  Beta  occ. eigenvalues --   -0.51110  -0.51020  -0.50873  -0.50823  -0.50286
  Beta  occ. eigenvalues --   -0.49879  -0.49810  -0.49560  -0.49311  -0.48982
  Beta  occ. eigenvalues --   -0.48960  -0.48313  -0.47967  -0.47647  -0.47603
  Beta  occ. eigenvalues --   -0.47524  -0.47286  -0.46718  -0.46199  -0.46078
  Beta  occ. eigenvalues --   -0.45837  -0.45454  -0.45361  -0.45199  -0.44200
  Beta  occ. eigenvalues --   -0.43223  -0.42541  -0.42308  -0.41888  -0.41482
  Beta  occ. eigenvalues --   -0.40838  -0.40451  -0.40235  -0.37839  -0.35766
  Beta  occ. eigenvalues --   -0.33581  -0.31281
  Beta virt. eigenvalues --   -0.19062  -0.13891  -0.09869  -0.06035  -0.03186
  Beta virt. eigenvalues --   -0.00636   0.00843   0.01883   0.02331   0.02601
  Beta virt. eigenvalues --    0.02959   0.03265   0.03612   0.03787   0.04105

 Mulliken charges and spin densities:
               1          2
     1  C    0.092539   0.004238
     2  C    0.030909   0.004743
     3  C   -0.182626   0.000055
     4  C   -0.171969   0.000170
     5  C   -0.158616   0.000678
     6  C   -0.164738   0.000942
     7  C   -0.007733  -0.036920
     8  C    0.015970  -0.039465
     9  C   -0.164527  -0.004249
    10  C   -0.136341  -0.004016
    11  C    0.027096   0.070549
    12  C   -0.011997   0.079384
    13  C   -0.370152   0.001486
    14  C   -0.371624  -0.000838
    15  C   -0.361694  -0.001228
    16  C   -0.321438   0.000453
    17  C   -0.221461   0.143087
    18  C   -0.189845   0.162951
    19  C   -0.411459  -0.003592
    20  C   -0.395074  -0.004062
    21  C   -0.238302  -0.061058
    22  C   -0.259826  -0.065152
    23  C    0.191778   0.147229
    24  C    0.207509   0.170321
    25  C   -0.367757  -0.006888
    26  C   -0.370762  -0.008079
    27  C   -0.177906  -0.062065
    28  C   -0.182186  -0.064247
    29  C   -0.027258   0.133341
    30  C   -0.017516   0.151247
    31  C   -0.149515  -0.055150
    32  C   -0.186438  -0.054506
    33  C    0.121532   0.108759
    34  C    0.121548   0.094986
    35  C   -0.377486  -0.007355
    36  C   -0.380418  -0.005842
    37  C   -0.123028   0.007480
    38  C   -0.031548   0.016984
    39  C   -0.104307   0.068746
    40  C   -0.157642   0.053544
    41  H    0.098294  -0.000006
    42  H    0.108589   0.000102
    43  H    0.092916   0.000067
    44  H    0.109277   0.000766
    45  H    0.104731  -0.000013
    46  H    0.093441   0.000058
    47  H    0.104992  -0.000005
    48  H    0.100455   0.000053
    49  H    0.115011   0.004245
    50  H    0.114927   0.003449
    51  H    0.105739   0.005810
    52  H    0.107303   0.001785
    53  H    0.116363  -0.000009
    54  H    0.124137  -0.000372
    55  H    0.119083  -0.000372
    56  H    0.132633   0.000063
    57  H    0.103488   0.000115
    58  H    0.134968  -0.000125
    59  H    0.122174   0.000051
    60  H    0.126297  -0.000321
    61  H    0.104710   0.000168
    62  H    0.122592  -0.000021
    63  H    0.106640   0.000045
    64  H    0.130069  -0.000265
    65  H    0.159032  -0.005858
    66  H    0.155120  -0.006055
    67  H    0.151454   0.000593
    68  H    0.135215   0.002660
    69  H    0.134805   0.003454
    70  H    0.154657   0.000709
    71  H    0.131849   0.003858
    72  H    0.128025   0.002921
    73  H    0.143720   0.002017
    74  H    0.152828   0.002212
    75  H    0.152017   0.006505
    76  H    0.119214   0.000290
    77  H    0.147604   0.006862
    78  H    0.152484   0.007618
    79  H    0.148995   0.008023
    80  H    0.119467   0.000315
    81  H    0.106738   0.001892
    82  H    0.109658   0.001740
    83  H    0.129749  -0.004654
    84  H    0.131217  -0.005137
    85  H    0.113029   0.001156
    86  H    0.109630   0.002145
    87  H    0.148108   0.006776
    88  H    0.124948   0.000529
    89  H    0.148334   0.006739
    90  H    0.149114   0.004867
    91  H    0.149653   0.004925
    92  H    0.128083   0.000416
    93  H    0.107362  -0.001321
    94  H    0.122466  -0.002147
    95  H    0.117179  -0.003802
    96  H    0.103730  -0.002175
 Sum of Mulliken charges =   1.00000   1.00000

 Dipole moment (field-independent basis, Debye):
    X=             -0.8168    Y=             -0.4190    Z=             -0.0991  Tot=              0.9233
 Quadrupole moment (field-independent basis, Debye-Ang):
   XX=            100.1236   YY=           -207.6752   ZZ=           -246.8747
   XY=              5.7515   XZ=              9.1647   YZ=              3.7263

 Normal termination of Gaussian 16 at Tue Dec  3 05:36:33 2019.
 Gaussian 16:  ES64L-G16RevA.03 25-Dec-2016

 ----------------------------------------------------------------------
 # wB97XD/Def2TZVP iop(3/107=0106300000,3/108=0106300000) Geom=Checkpoi
 nt Guess=Read
 ----------------------------------------------------------------------

 ----------------------------
 b-carotene-charged-tunado-sp
 ----------------------------
 Structure from the checkpoint file:  "b-carotene-charged-tunado-sp.chk"
 Charge =  0 Multiplicity = 1

                         Standard orientation:
 ---------------------------------------------------------------------
 Center     Atomic      Atomic             Coordinates (Angstroms)
 Number     Number       Type             X           Y           Z
 ---------------------------------------------------------------------
      1          6           0       12.165214    0.590019   -0.584188
      2          6           0      -12.125341   -0.140530    0.815034
      3          6           0       13.452875   -0.244436   -0.454847
      4          6           0      -13.038651    0.999795    1.298454
      5          6           0       13.198017   -1.740665   -0.529628
      6          6           0      -13.416680    1.964131    0.187318
      7          6           0       11.016977   -0.029596    0.239710
      8          6           0      -10.975593    0.420264   -0.046934
      9          6           0       12.299007   -2.149394    0.625427
     10          6           0      -12.162625    2.602496   -0.393423
     11          6           0       11.108041   -1.248825    0.822339
     12          6           0      -11.014745    1.648880   -0.615315
     13          6           0       11.731253    0.669638   -2.060971
     14          6           0       12.494935    2.012928   -0.090015
     15          6           0      -12.939834   -1.160282   -0.005625
     16          6           0      -11.561808   -0.842570    2.065090
     17          6           0        9.827421    0.804539    0.350174
     18          6           0       -9.876656   -0.513838   -0.247495
     19          6           0       10.091038   -1.829897    1.766504
     20          6           0       -9.956659    2.201991   -1.531354
     21          6           0        8.538672    0.393757    0.278133
     22          6           0       -8.548232   -0.244991   -0.224248
     23          6           0        7.389363    1.249736    0.376372
     24          6           0       -7.506511   -1.214283   -0.403739
     25          6           0        7.587025    2.718571    0.615680
     26          6           0       -7.871045   -2.643068   -0.684810
     27          6           0        6.146398    0.668991    0.242590
     28          6           0       -6.199971   -0.776204   -0.304474
     29          6           0        4.896146    1.313606    0.307112
     30          6           0       -5.034598   -1.548435   -0.439183
     31          6           0        3.699471    0.650673    0.157732
     32          6           0       -3.764656   -1.022451   -0.318318
     33          6           0        2.426289    1.254879    0.218490
     34          6           0       -2.560628   -1.745218   -0.437769
     35          6           0        2.313620    2.735941    0.468851
     36          6           0       -2.599104   -3.221278   -0.721722
     37          6           0        1.239546    0.532023    0.055649
     38          6           0       -1.367833   -1.035799   -0.280808
     39          6           0        1.113264   -0.832974   -0.194287
     40          6           0       -0.075226   -1.547626   -0.352409
     41          1           0       13.926686   -0.018464    0.505684
     42          1           0       14.153957    0.071974   -1.230094
     43          1           0      -12.521952    1.553911    2.088407
     44          1           0      -13.930683    0.565270    1.755268
     45          1           0       14.137856   -2.292928   -0.489282
     46          1           0       12.723875   -1.999290   -1.479490
     47          1           0      -14.088439    2.736947    0.563525
     48          1           0      -13.960648    1.438918   -0.600744
     49          1           0       12.872290   -2.168679    1.560816
     50          1           0       11.934070   -3.172702    0.492613
     51          1           0      -11.802921    3.394395    0.276659
     52          1           0      -12.392779    3.106369   -1.335191
     53          1           0       11.542320   -0.320201   -2.477973
     54          1           0       12.506479    1.150598   -2.660771
     55          1           0       10.813951    1.251686   -2.169745
     56          1           0       12.652874    2.031401    0.989840
     57          1           0       11.719967    2.738630   -0.339469
     58          1           0       13.413632    2.356557   -0.568334
     59          1           0      -13.388668   -0.701793   -0.886421
     60          1           0      -13.739427   -1.582054    0.606478
     61          1           0      -12.321740   -1.992056   -0.347915
     62          1           0      -10.912473   -0.173184    2.631976
     63          1           0      -10.988669   -1.737210    1.816869
     64          1           0      -12.380691   -1.151044    2.717676
     65          1           0       10.006552    1.870062    0.432498
     66          1           0      -10.171852   -1.552319   -0.357438
     67          1           0        9.417565   -1.087784    2.188074
     68          1           0       10.607482   -2.332385    2.587783
     69          1           0        9.488480   -2.596097    1.269215
     70          1           0       -9.298646    1.440529   -1.941807
     71          1           0       -9.338835    2.938209   -1.007496
     72          1           0      -10.426392    2.730490   -2.362882
     73          1           0        8.335231   -0.656042    0.104815
     74          1           0       -8.225648    0.768977   -0.021408
     75          1           0        8.134810    2.883827    1.544887
     76          1           0        6.652888    3.268179    0.678124
     77          1           0        8.176578    3.158409   -0.191152
     78          1           0       -8.468907   -2.712831   -1.595073
     79          1           0       -8.472299   -3.049269    0.130997
     80          1           0       -7.004805   -3.285947   -0.806562
     81          1           0        6.125435   -0.402579    0.068863
     82          1           0       -6.055647    0.279895   -0.097782
     83          1           0        4.874342    2.381148    0.483201
     84          1           0       -5.133386   -2.606104   -0.646277
     85          1           0        3.752552   -0.416760   -0.018122
     86          1           0       -3.680729    0.039839   -0.111297
     87          1           0        2.771203    3.009767    1.421511
     88          1           0        1.273989    3.054870    0.493975
     89          1           0        2.819383    3.305736   -0.313219
     90          1           0       -3.116212   -3.416760   -1.662736
     91          1           0       -3.138715   -3.748948    0.066662
     92          1           0       -1.610667   -3.663483   -0.794130
     93          1           0        0.326913    1.110789    0.132032
     94          1           0       -1.479895    0.023852   -0.080559
     95          1           0        2.017803   -1.421809   -0.281802
     96          1           0        0.043510   -2.605508   -0.547864
 ---------------------------------------------------------------------
