 Gaussian 16, Revision A.03,

 ----------------------------------------------------------------------
 # wB97XD/Def2TZVP Geom=Checkpoint Guess=Read iop(3/107=080000000,3/108
 =080000000)
 ----------------------------------------------------------------------

 ---------
 pheo-a-s0
 ---------
 Structure from the checkpoint file:  "pheo-a-s0-0800.chk"
 Charge =  0 Multiplicity = 1

 SCF Done:  E(RwB97XD) =  -2736.30283793     A.U. after   14 cycles
 Normal termination of Gaussian 16 at Thu Dec  5 23:57:22 2019.

 ----------------------------------------------------------------------
 # wB97XD/Def2TZVP Geom=Checkpoint iop(3/107=080000000,3/108=080000000)
 ----------------------------------------------------------------------

 ----------------
 pheo-a-s0-Cation
 ----------------
 Structure from the checkpoint file:  "/home/padawan/israel-mol/w-tuning/pheo-a/logs/Gau-16733.chk"
 Charge =  1 Multiplicity = 2

 SCF Done:  E(UwB97XD) =  -2736.07603650     A.U. after   29 cycles
 Normal termination of Gaussian 16 at Fri Dec  6 06:17:16 2019.
 Gaussian 16:  ES64L-G16RevA.03 25-Dec-2016

 ----------------------------------------------------------------------
 # wB97XD/Def2TZVP Geom=Checkpoint iop(3/107=080000000,3/108=080000000)
 ----------------------------------------------------------------------

 ---------------
 pheo-a-s0-Anion
 ---------------
 Structure from the checkpoint file:  "/home/padawan/israel-mol/w-tuning/pheo-a/logs/Gau-17367.chk"
 Charge = -1 Multiplicity = 2

                         Standard orientation:
 ---------------------------------------------------------------------
 Center     Atomic      Atomic             Coordinates (Angstroms)
 Number     Number       Type             X           Y           Z
 ---------------------------------------------------------------------
      1          6           0       -5.140457   -1.928461   -0.261709
      2          6           0       -3.548272    1.584282    2.527075
      3          6           0       -6.834760    4.526935    0.528386
      4          6           0       -8.694557    0.929350   -2.072345
      5          7           0       -4.517152   -0.000252    0.989230
      6          6           0       -4.344898   -1.315976    0.649227
      7          6           0       -3.213267   -1.961335    1.420041
      8          6           0       -2.855935   -0.868131    2.443060
      9          6           0       -3.682809    0.307536    1.956749
     10          6           0       -3.193363   -1.249116    3.883124
     11          6           0       -2.039453   -2.374341    0.530085
     12          6           0       -1.010192   -3.185814    1.298358
     13          6           0        0.188155   -3.567856    0.466633
     14          8           0        0.424773   -3.148049   -0.634183
     15          8           0        0.961097   -4.441409    1.120697
     16          7           0       -5.272442    2.816393    1.303409
     17          6           0       -4.261350    2.714047    2.204360
     18          6           0       -4.062904    4.035242    2.764085
     19          6           0       -4.949845    4.878353    2.171370
     20          6           0       -5.762655    4.097665    1.248624
     21          6           0       -3.017084    4.356469    3.774942
     22          6           0       -5.063462    6.316117    2.415024
     23          6           0       -5.253750    7.247556    1.487759
     24          7           0       -7.487332    2.492222   -0.647933
     25          6           0       -7.654127    3.776499   -0.354051
     26          6           0       -8.799402    4.348458   -1.048374
     27          6           0       -9.333288    3.340353   -1.781670
     28          6           0       -8.500796    2.175682   -1.525594
     29          6           0       -9.246092    5.768499   -0.944713
     30          6           0      -10.497745    3.387127   -2.717488
     31          6           0      -10.076728    3.621977   -4.169941
     32          7           0       -6.791543   -0.136275   -1.011033
     33          6           0       -7.901127   -0.200666   -1.836151
     34          6           0       -8.034875   -1.525974   -2.300608
     35          6           0       -6.974980   -2.227653   -1.721135
     36          6           0       -6.235997   -1.340324   -0.933304
     37          6           0       -9.104342   -2.064628   -3.185512
     38          6           0       -6.374834   -3.547999   -1.629601
     39          8           0       -6.707237   -4.592777   -2.125659
     40          6           0       -5.102358   -3.374202   -0.723280
     41          6           0       -5.123681   -4.383251    0.401148
     42          8           0       -5.874036   -4.353629    1.337084
     43          8           0       -4.189642   -5.324920    0.228263
     44          6           0       -4.159124   -6.351950    1.215155
     45          6           0        2.201526   -4.816866    0.486695
     46          6           0        3.291769   -3.856986    0.828487
     47          6           0        3.965744   -3.082188   -0.019806
     48          6           0        3.715115   -3.034660   -1.501122
     49          6           0        5.074596   -2.196321    0.480953
     50          6           0        6.447046   -2.561080   -0.089206
     51          6           0        7.555563   -1.673595    0.463646
     52          6           0        8.935998   -1.886584   -0.163782
     53          6           0        9.455187   -3.302325    0.075936
     54          6           0        9.910062   -0.825118    0.355336
     55          6           0       11.278181   -0.811359   -0.316998
     56          6           0       12.148753    0.346393    0.158175
     57          6           0       13.494017    0.491236   -0.558809
     58          6           0       14.393057   -0.722138   -0.333212
     59          6           0       14.175840    1.791971   -0.125797
     60          6           0       15.456079    2.139006   -0.877352
     61          6           0       15.984600    3.522824   -0.517092
     62          6           0       17.347535    3.874531   -1.117107
     63          6           0       17.325703    3.873467   -2.643450
     64          6           0       17.828740    5.223425   -0.590225
     65          1           0       -2.794080    1.699662    3.294331
     66          1           0       -7.103300    5.564938    0.666216
     67          1           0       -9.537749    0.797980   -2.738896
     68          1           0       -3.590148   -2.849333    1.937205
     69          1           0       -1.794107   -0.610794    2.385328
     70          1           0       -2.602729   -2.112148    4.196558
     71          1           0       -2.987878   -0.428819    4.572507
     72          1           0       -4.249835   -1.509978    3.971331
     73          1           0       -2.395572   -2.969694   -0.310617
     74          1           0       -1.573526   -1.485559    0.099090
     75          1           0       -0.632710   -2.636164    2.166325
     76          1           0       -1.455221   -4.101478    1.695896
     77          1           0       -2.018596    4.153943    3.380773
     78          1           0       -3.052561    5.405657    4.062861
     79          1           0       -3.142103    3.750977    4.675465
     80          1           0       -4.950016    6.629500    3.448456
     81          1           0       -5.330738    7.001950    0.435822
     82          1           0       -5.314319    8.293896    1.757509
     83          1           0       -8.473030    6.455645   -1.298486
     84          1           0      -10.140333    5.946749   -1.541393
     85          1           0       -9.475538    6.041922    0.088098
     86          1           0      -11.066316    2.456175   -2.648641
     87          1           0      -11.183046    4.178555   -2.406780
     88          1           0       -9.547943    4.571590   -4.267540
     89          1           0       -9.404302    2.833695   -4.512842
     90          1           0      -10.944733    3.643438   -4.831186
     91          1           0       -9.557189   -1.283800   -3.796552
     92          1           0       -8.701985   -2.834088   -3.843669
     93          1           0       -9.895016   -2.529366   -2.591644
     94          1           0       -4.241767   -3.580551   -1.361834
     95          1           0       -3.350568   -7.017328    0.924907
     96          1           0       -3.971077   -5.929241    2.202743
     97          1           0       -5.106789   -6.889195    1.235387
     98          1           0        2.416148   -5.803471    0.897349
     99          1           0        2.042745   -4.908415   -0.585279
    100          1           0        3.544939   -3.813235    1.884224
    101          1           0        2.696863   -3.320181   -1.756495
    102          1           0        3.882591   -2.022738   -1.876167
    103          1           0        4.408737   -3.690178   -2.034449
    104          1           0        4.846387   -1.158597    0.210636
    105          1           0        5.117234   -2.237923    1.572340
    106          1           0        6.648175   -3.611195    0.138343
    107          1           0        6.429249   -2.475935   -1.180337
    108          1           0        7.266852   -0.626687    0.320117
    109          1           0        7.631603   -1.821506    1.547858
    110          1           0        8.833786   -1.741357   -1.247028
    111          1           0        8.773513   -4.054358   -0.322590
    112          1           0       10.423379   -3.461740   -0.399401
    113          1           0        9.572372   -3.489419    1.147733
    114          1           0        9.448847    0.160148    0.227542
    115          1           0       10.039735   -0.960902    1.436165
    116          1           0       11.789660   -1.757163   -0.127563
    117          1           0       11.146524   -0.742286   -1.403242
    118          1           0       11.587520    1.278696    0.033070
    119          1           0       12.329902    0.244305    1.235318
    120          1           0       13.289871    0.566629   -1.634791
    121          1           0       13.917863   -1.644307   -0.669106
    122          1           0       15.335479   -0.630265   -0.873956
    123          1           0       14.625607   -0.832161    0.730459
    124          1           0       13.464392    2.615094   -0.253840
    125          1           0       14.388993    1.740774    0.949018
    126          1           0       16.232633    1.398603   -0.662672
    127          1           0       15.261838    2.079985   -1.952810
    128          1           0       15.255283    4.281826   -0.826241
    129          1           0       16.055108    3.597567    0.573667
    130          1           0       18.061480    3.109637   -0.788849
    131          1           0       16.583288    4.585495   -3.016409
    132          1           0       18.297641    4.164453   -3.047083
    133          1           0       17.080587    2.890862   -3.048512
    134          1           0       17.877827    5.229191    0.500704
    135          1           0       18.821338    5.467866   -0.973991
    136          1           0       17.147117    6.021746   -0.897832
    137          1           0       -5.666960    2.034297    0.806913
    138          1           0       -6.510218    0.731143   -0.574872
 ---------------------------------------------------------------------

 SCF Done:  E(UwB97XD) =  -2736.35388068     A.U. after   25 cycles

 Alpha virt. eigenvalues --    2.03621   2.03766   2.03881   2.04074   2.04125
 Alpha virt. eigenvalues --    2.04410   2.04444   2.04486   2.05002   2.05363
 Alpha virt. eigenvalues --    2.05557   2.05775   2.06193   2.06886   2.07062

  Beta  occ. eigenvalues --  -19.17737 -19.16068 -19.11242 -19.08706 -19.06022
  Beta  occ. eigenvalues --  -14.30248 -14.30246 -14.24725 -14.22640 -10.28919
  Beta  occ. eigenvalues --  -10.26600 -10.23172 -10.20853 -10.20570 -10.20374
  Beta  occ. eigenvalues --  -10.19819 -10.19293 -10.19188 -10.19184 -10.19136
  Beta  occ. eigenvalues --  -10.18958 -10.18854 -10.18808 -10.18716 -10.18643
  Beta  occ. eigenvalues --  -10.18441 -10.18408 -10.18245 -10.18191 -10.18180
  Beta  occ. eigenvalues --  -10.17854 -10.17150 -10.16953 -10.16899 -10.16067
  Beta  occ. eigenvalues --  -10.15866 -10.15785 -10.15751 -10.15701 -10.15482
  Beta  occ. eigenvalues --  -10.15242 -10.15076 -10.14843 -10.14800 -10.14775
  Beta  occ. eigenvalues --  -10.14292 -10.14059 -10.14042 -10.13885 -10.13877
  Beta  occ. eigenvalues --  -10.13636 -10.13620 -10.13519 -10.13095 -10.12838
  Beta  occ. eigenvalues --  -10.12748 -10.12625 -10.12610 -10.12278 -10.11982
  Beta  occ. eigenvalues --  -10.11550 -10.11417 -10.10815 -10.10795  -1.08912
  Beta  occ. eigenvalues --   -1.07131  -0.99889  -0.97684  -0.97065  -0.92342
  Beta  occ. eigenvalues --   -0.91633  -0.88386  -0.87071  -0.84005  -0.83163
  Beta  occ. eigenvalues --   -0.82262  -0.81269  -0.78510  -0.78150  -0.77545
  Beta  occ. eigenvalues --   -0.76232  -0.75997  -0.74914  -0.74315  -0.74079
  Beta  occ. eigenvalues --   -0.73451  -0.73138  -0.72571  -0.71784  -0.70866
  Beta  occ. eigenvalues --   -0.70622  -0.69716  -0.69665  -0.68854  -0.68285
  Beta  occ. eigenvalues --   -0.68177  -0.67701  -0.67008  -0.66029  -0.65074
  Beta  occ. eigenvalues --   -0.64641  -0.64004  -0.63517  -0.62711  -0.61859
  Beta  occ. eigenvalues --   -0.60096  -0.59011  -0.58466  -0.57971  -0.57626
  Beta  occ. eigenvalues --   -0.57057  -0.56819  -0.56511  -0.56023  -0.55662
  Beta  occ. eigenvalues --   -0.55359  -0.53531  -0.52207  -0.51803  -0.51556
  Beta  occ. eigenvalues --   -0.50850  -0.49751  -0.48991  -0.48794  -0.48502
  Beta  occ. eigenvalues --   -0.48057  -0.47765  -0.47503  -0.47343  -0.46785
  Beta  occ. eigenvalues --   -0.46203  -0.46032  -0.45440  -0.45246  -0.45009
  Beta  occ. eigenvalues --   -0.44960  -0.44814  -0.44671  -0.44393  -0.44005
  Beta  occ. eigenvalues --   -0.43589  -0.43451  -0.43123  -0.42977  -0.42693
  Beta  occ. eigenvalues --   -0.42266  -0.42124  -0.41658  -0.41000  -0.40976
  Beta  occ. eigenvalues --   -0.40537  -0.39966  -0.39692  -0.39487  -0.39296
  Beta  occ. eigenvalues --   -0.39262  -0.38820  -0.38592  -0.38469  -0.38214
  Beta  occ. eigenvalues --   -0.38078  -0.38011  -0.37814  -0.37521  -0.37377
  Beta  occ. eigenvalues --   -0.37194  -0.36971  -0.36678  -0.36548  -0.36404
  Beta  occ. eigenvalues --   -0.36348  -0.36021  -0.35927  -0.35859  -0.35632
  Beta  occ. eigenvalues --   -0.35529  -0.35264  -0.35234  -0.34877  -0.34846
  Beta  occ. eigenvalues --   -0.34522  -0.34265  -0.34214  -0.33975  -0.33781
  Beta  occ. eigenvalues --   -0.33653  -0.33423  -0.33181  -0.33083  -0.33010
  Beta  occ. eigenvalues --   -0.32690  -0.32589  -0.32510  -0.32406  -0.32257
  Beta  occ. eigenvalues --   -0.32160  -0.32066  -0.31870  -0.31765  -0.31594
  Beta  occ. eigenvalues --   -0.31495  -0.31432  -0.31258  -0.31198  -0.30767
  Beta  occ. eigenvalues --   -0.30619  -0.30510  -0.30268  -0.29877  -0.29521
  Beta  occ. eigenvalues --   -0.29329  -0.29041  -0.28776  -0.28190  -0.27867
  Beta  occ. eigenvalues --   -0.27805  -0.27666  -0.27130  -0.26888  -0.26404
  Beta  occ. eigenvalues --   -0.25889  -0.24848  -0.24128  -0.23325  -0.23009
  Beta  occ. eigenvalues --   -0.22289  -0.19587  -0.19134  -0.18505  -0.18331
  Beta  occ. eigenvalues --   -0.17364  -0.17220  -0.16755  -0.15076  -0.10539
  Beta  occ. eigenvalues --   -0.10211
  Beta virt. eigenvalues --    0.06309   0.08078   0.09825   0.11713   0.12123
  Beta virt. eigenvalues --    0.12628   0.13251   0.13325   0.14165   0.14375
  Beta virt. eigenvalues --    0.14740   0.14888   0.15673   0.15889   0.15934

 Mulliken charges and spin densities:
               1          2
     1  C   -0.267964   0.071400
     2  C   -0.620038   0.115375
     3  C   -0.502649   0.073249
     4  C   -0.393049   0.269936
     5  N   -0.504485   0.107533
     6  C    0.386997  -0.032478
     7  C   -0.027763  -0.000488
     8  C    0.121357   0.002355
     9  C    0.288759  -0.008425
    10  C   -0.362235   0.000391
    11  C   -0.286306   0.000908
    12  C   -0.209742  -0.000373
    13  C    0.470239   0.000042
    14  O   -0.424587   0.000007
    15  O   -0.313569  -0.000004
    16  N   -0.227187  -0.032845
    17  C    0.291568   0.040598
    18  C   -0.110000   0.086573
    19  C    0.076866   0.049831
    20  C    0.214221   0.045981
    21  C   -0.340707  -0.006195
    22  C   -0.192956  -0.016345
    23  C   -0.317050   0.036589
    24  N   -0.584506   0.114982
    25  C    0.293411   0.005045
    26  C    0.045474  -0.038517
    27  C   -0.118038   0.028246
    28  C    0.377831  -0.097240
    29  C   -0.362203   0.003064
    30  C   -0.248901  -0.001981
    31  C   -0.286721   0.001797
    32  N   -0.217429  -0.000287
    33  C    0.281630  -0.070047
    34  C   -0.198676   0.174806
    35  C   -0.040144   0.009221
    36  C    0.074388   0.006654
    37  C   -0.344322  -0.009934
    38  C    0.234421   0.019255
    39  O   -0.429426   0.044561
    40  C    0.061756   0.000437
    41  C    0.364802   0.001381
    42  O   -0.396738   0.001607
    43  O   -0.301779  -0.000142
    44  C   -0.167227   0.000014
    45  C    0.025254   0.000000
    46  C   -0.249303  -0.000003
    47  C    0.100983   0.000003
    48  C   -0.377027   0.000000
    49  C   -0.158019  -0.000000
    50  C   -0.237316   0.000000
    51  C   -0.154046   0.000000
    52  C    0.049261   0.000000
    53  C   -0.370635  -0.000000
    54  C   -0.161064   0.000000
    55  C   -0.215315   0.000000
    56  C   -0.160231  -0.000000
    57  C    0.053142   0.000000
    58  C   -0.370758  -0.000000
    59  C   -0.159779  -0.000000
    60  C   -0.216380   0.000000
    61  C   -0.166429  -0.000000
    62  C    0.014965   0.000000
    63  C   -0.339440  -0.000000
    64  C   -0.298615   0.000000
    65  H    0.114503  -0.005341
    66  H    0.189214  -0.003099
    67  H    0.111562  -0.011410
    68  H    0.112721  -0.000947
    69  H    0.042439  -0.000546
    70  H    0.086900   0.001323
    71  H    0.100735   0.000320
    72  H    0.130929  -0.000238
    73  H    0.129568  -0.000322
    74  H    0.117432   0.000074
    75  H    0.113829   0.000304
    76  H    0.118519  -0.000029
    77  H    0.111696   0.006180
    78  H    0.092338  -0.000081
    79  H    0.110823   0.004091
    80  H    0.095940   0.002803
    81  H    0.146720  -0.001619
    82  H    0.094975  -0.001293
    83  H    0.114863  -0.002023
    84  H    0.089620  -0.000117
    85  H    0.115909  -0.001476
    86  H    0.089900   0.001834
    87  H    0.076012   0.000246
    88  H    0.096305   0.000043
    89  H    0.119416  -0.000368
    90  H    0.075059  -0.000094
    91  H    0.090684   0.002268
    92  H    0.125554   0.003742
    93  H    0.102491   0.011023
    94  H    0.070099   0.000151
    95  H    0.106627   0.000008
    96  H    0.112420  -0.000015
    97  H    0.126631   0.000009
    98  H    0.080521  -0.000001
    99  H    0.119493   0.000000
   100  H    0.091558   0.000001
   101  H    0.166054  -0.000000
   102  H    0.109451   0.000000
   103  H    0.117610   0.000000
   104  H    0.103799   0.000000
   105  H    0.083424   0.000000
   106  H    0.100111  -0.000000
   107  H    0.096100   0.000000
   108  H    0.080267  -0.000000
   109  H    0.080464   0.000000
   110  H    0.042166  -0.000000
   111  H    0.117214   0.000000
   112  H    0.108689   0.000000
   113  H    0.093606   0.000000
   114  H    0.080551   0.000000
   115  H    0.077955  -0.000000
   116  H    0.097322  -0.000000
   117  H    0.074841  -0.000000
   118  H    0.079738  -0.000000
   119  H    0.077719   0.000000
   120  H    0.041411  -0.000000
   121  H    0.113509   0.000000
   122  H    0.112357   0.000000
   123  H    0.093580  -0.000000
   124  H    0.079984  -0.000000
   125  H    0.079670   0.000000
   126  H    0.085923  -0.000000
   127  H    0.090550  -0.000000
   128  H    0.082572  -0.000000
   129  H    0.077650   0.000000
   130  H    0.043356  -0.000000
   131  H    0.095324   0.000000
   132  H    0.100692   0.000000
   133  H    0.114739   0.000000
   134  H    0.099610  -0.000000
   135  H    0.100858  -0.000000
   136  H    0.094170  -0.000000
   137  H    0.241569  -0.000955
   138  H    0.244815  -0.000983
 Sum of Mulliken charges =  -1.00000   1.00000

 Dipole moment (field-independent basis, Debye):
    X=             31.2348    Y=             -1.4459    Z=              2.1592  Tot=             31.3427
 Quadrupole moment (field-independent basis, Debye-Ang):
   XX=           -609.3501   YY=           -447.7910   ZZ=           -406.1617
   XY=             -3.7427   XZ=            -12.8059   YZ=            -18.6100

 Normal termination of Gaussian 16 at Fri Dec  6 11:24:51 2019.
