 Gaussian 16, Revision A.03,

 ----------------------------------------------------------------------
 # wB97XD/Def2TZVP Geom=Checkpoint Guess=Read iop(3/107=0202200000,3/10
 8=0202200000)
 ----------------------------------------------------------------------

 ---------
 pheo-a-s0
 ---------
 Structure from the checkpoint file:  "pheo-a-s0-02022.chk"
 Charge =  0 Multiplicity = 1

 SCF Done:  E(RwB97XD) =  -2735.73758411     A.U. after    9 cycles
 Normal termination of Gaussian 16 at Tue Dec  3 12:40:27 2019.

 ----------------------------------------------------------------------
 # wB97XD/Def2TZVP Geom=Checkpoint iop(3/107=0202200000,3/108=020220000
 0)
 ----------------------------------------------------------------------

 ----------------
 pheo-a-s0-Cation
 ----------------
 Structure from the checkpoint file:  "/home/padawan/israel-mol/w-tuning/pheo-a/logs/Gau-3411.chk"
 Charge =  1 Multiplicity = 2

 SCF Done:  E(UwB97XD) =  -2735.50509230     A.U. after   30 cycles
 Normal termination of Gaussian 16 at Tue Dec  3 19:04:34 2019.
 Gaussian 16:  ES64L-G16RevA.03 25-Dec-2016

 ----------------------------------------------------------------------
 # wB97XD/Def2TZVP Geom=Checkpoint iop(3/107=0202200000,3/108=020220000
 0)
 ----------------------------------------------------------------------

 ---------------
 pheo-a-s0-Anion
 ---------------
 Structure from the checkpoint file:  "/home/padawan/israel-mol/w-tuning/pheo-a/logs/Gau-3861.chk"
 Charge = -1 Multiplicity = 2

                         Standard orientation:
 ---------------------------------------------------------------------
 Center     Atomic      Atomic             Coordinates (Angstroms)
 Number     Number       Type             X           Y           Z
 ---------------------------------------------------------------------
      1          6           0       -5.140457   -1.928461   -0.261709
      2          6           0       -3.548272    1.584282    2.527075
      3          6           0       -6.834760    4.526935    0.528386
      4          6           0       -8.694557    0.929350   -2.072345
      5          7           0       -4.517152   -0.000252    0.989230
      6          6           0       -4.344898   -1.315976    0.649227
      7          6           0       -3.213267   -1.961335    1.420041
      8          6           0       -2.855935   -0.868131    2.443060
      9          6           0       -3.682809    0.307536    1.956749
     10          6           0       -3.193363   -1.249116    3.883124
     11          6           0       -2.039453   -2.374341    0.530085
     12          6           0       -1.010192   -3.185814    1.298358
     13          6           0        0.188155   -3.567856    0.466633
     14          8           0        0.424773   -3.148049   -0.634183
     15          8           0        0.961097   -4.441409    1.120697
     16          7           0       -5.272442    2.816393    1.303409
     17          6           0       -4.261350    2.714047    2.204360
     18          6           0       -4.062904    4.035242    2.764085
     19          6           0       -4.949845    4.878353    2.171370
     20          6           0       -5.762655    4.097665    1.248624
     21          6           0       -3.017084    4.356469    3.774942
     22          6           0       -5.063462    6.316117    2.415024
     23          6           0       -5.253750    7.247556    1.487759
     24          7           0       -7.487332    2.492222   -0.647933
     25          6           0       -7.654127    3.776499   -0.354051
     26          6           0       -8.799402    4.348458   -1.048374
     27          6           0       -9.333288    3.340353   -1.781670
     28          6           0       -8.500796    2.175682   -1.525594
     29          6           0       -9.246092    5.768499   -0.944713
     30          6           0      -10.497745    3.387127   -2.717488
     31          6           0      -10.076728    3.621977   -4.169941
     32          7           0       -6.791543   -0.136275   -1.011033
     33          6           0       -7.901127   -0.200666   -1.836151
     34          6           0       -8.034875   -1.525974   -2.300608
     35          6           0       -6.974980   -2.227653   -1.721135
     36          6           0       -6.235997   -1.340324   -0.933304
     37          6           0       -9.104342   -2.064628   -3.185512
     38          6           0       -6.374834   -3.547999   -1.629601
     39          8           0       -6.707237   -4.592777   -2.125659
     40          6           0       -5.102358   -3.374202   -0.723280
     41          6           0       -5.123681   -4.383251    0.401148
     42          8           0       -5.874036   -4.353629    1.337084
     43          8           0       -4.189642   -5.324920    0.228263
     44          6           0       -4.159124   -6.351950    1.215155
     45          6           0        2.201526   -4.816866    0.486695
     46          6           0        3.291769   -3.856986    0.828487
     47          6           0        3.965744   -3.082188   -0.019806
     48          6           0        3.715115   -3.034660   -1.501122
     49          6           0        5.074596   -2.196321    0.480953
     50          6           0        6.447046   -2.561080   -0.089206
     51          6           0        7.555563   -1.673595    0.463646
     52          6           0        8.935998   -1.886584   -0.163782
     53          6           0        9.455187   -3.302325    0.075936
     54          6           0        9.910062   -0.825118    0.355336
     55          6           0       11.278181   -0.811359   -0.316998
     56          6           0       12.148753    0.346393    0.158175
     57          6           0       13.494017    0.491236   -0.558809
     58          6           0       14.393057   -0.722138   -0.333212
     59          6           0       14.175840    1.791971   -0.125797
     60          6           0       15.456079    2.139006   -0.877352
     61          6           0       15.984600    3.522824   -0.517092
     62          6           0       17.347535    3.874531   -1.117107
     63          6           0       17.325703    3.873467   -2.643450
     64          6           0       17.828740    5.223425   -0.590225
     65          1           0       -2.794080    1.699662    3.294331
     66          1           0       -7.103300    5.564938    0.666216
     67          1           0       -9.537749    0.797980   -2.738896
     68          1           0       -3.590148   -2.849333    1.937205
     69          1           0       -1.794107   -0.610794    2.385328
     70          1           0       -2.602729   -2.112148    4.196558
     71          1           0       -2.987878   -0.428819    4.572507
     72          1           0       -4.249835   -1.509978    3.971331
     73          1           0       -2.395572   -2.969694   -0.310617
     74          1           0       -1.573526   -1.485559    0.099090
     75          1           0       -0.632710   -2.636164    2.166325
     76          1           0       -1.455221   -4.101478    1.695896
     77          1           0       -2.018596    4.153943    3.380773
     78          1           0       -3.052561    5.405657    4.062861
     79          1           0       -3.142103    3.750977    4.675465
     80          1           0       -4.950016    6.629500    3.448456
     81          1           0       -5.330738    7.001950    0.435822
     82          1           0       -5.314319    8.293896    1.757509
     83          1           0       -8.473030    6.455645   -1.298486
     84          1           0      -10.140333    5.946749   -1.541393
     85          1           0       -9.475538    6.041922    0.088098
     86          1           0      -11.066316    2.456175   -2.648641
     87          1           0      -11.183046    4.178555   -2.406780
     88          1           0       -9.547943    4.571590   -4.267540
     89          1           0       -9.404302    2.833695   -4.512842
     90          1           0      -10.944733    3.643438   -4.831186
     91          1           0       -9.557189   -1.283800   -3.796552
     92          1           0       -8.701985   -2.834088   -3.843669
     93          1           0       -9.895016   -2.529366   -2.591644
     94          1           0       -4.241767   -3.580551   -1.361834
     95          1           0       -3.350568   -7.017328    0.924907
     96          1           0       -3.971077   -5.929241    2.202743
     97          1           0       -5.106789   -6.889195    1.235387
     98          1           0        2.416148   -5.803471    0.897349
     99          1           0        2.042745   -4.908415   -0.585279
    100          1           0        3.544939   -3.813235    1.884224
    101          1           0        2.696863   -3.320181   -1.756495
    102          1           0        3.882591   -2.022738   -1.876167
    103          1           0        4.408737   -3.690178   -2.034449
    104          1           0        4.846387   -1.158597    0.210636
    105          1           0        5.117234   -2.237923    1.572340
    106          1           0        6.648175   -3.611195    0.138343
    107          1           0        6.429249   -2.475935   -1.180337
    108          1           0        7.266852   -0.626687    0.320117
    109          1           0        7.631603   -1.821506    1.547858
    110          1           0        8.833786   -1.741357   -1.247028
    111          1           0        8.773513   -4.054358   -0.322590
    112          1           0       10.423379   -3.461740   -0.399401
    113          1           0        9.572372   -3.489419    1.147733
    114          1           0        9.448847    0.160148    0.227542
    115          1           0       10.039735   -0.960902    1.436165
    116          1           0       11.789660   -1.757163   -0.127563
    117          1           0       11.146524   -0.742286   -1.403242
    118          1           0       11.587520    1.278696    0.033070
    119          1           0       12.329902    0.244305    1.235318
    120          1           0       13.289871    0.566629   -1.634791
    121          1           0       13.917863   -1.644307   -0.669106
    122          1           0       15.335479   -0.630265   -0.873956
    123          1           0       14.625607   -0.832161    0.730459
    124          1           0       13.464392    2.615094   -0.253840
    125          1           0       14.388993    1.740774    0.949018
    126          1           0       16.232633    1.398603   -0.662672
    127          1           0       15.261838    2.079985   -1.952810
    128          1           0       15.255283    4.281826   -0.826241
    129          1           0       16.055108    3.597567    0.573667
    130          1           0       18.061480    3.109637   -0.788849
    131          1           0       16.583288    4.585495   -3.016409
    132          1           0       18.297641    4.164453   -3.047083
    133          1           0       17.080587    2.890862   -3.048512
    134          1           0       17.877827    5.229191    0.500704
    135          1           0       18.821338    5.467866   -0.973991
    136          1           0       17.147117    6.021746   -0.897832
    137          1           0       -5.666960    2.034297    0.806913
    138          1           0       -6.510218    0.731143   -0.574872
 ---------------------------------------------------------------------

 SCF Done:  E(UwB97XD) =  -2735.79869983     A.U. after   28 cycles

 Alpha virt. eigenvalues --    2.07555   2.07700   2.07910   2.08029   2.08117
 Alpha virt. eigenvalues --    2.08388   2.08528   2.08552   2.08949   2.09305
 Alpha virt. eigenvalues --    2.09460   2.09699   2.10013   2.10886   2.11125

  Beta  occ. eigenvalues --  -19.23463 -19.21868 -19.17065 -19.14599 -19.11951
  Beta  occ. eigenvalues --  -14.35818 -14.35782 -14.30051 -14.28224 -10.34823
  Beta  occ. eigenvalues --  -10.32533 -10.28784 -10.26637 -10.26459 -10.25940
  Beta  occ. eigenvalues --  -10.25407 -10.24892 -10.24878 -10.24755 -10.24718
  Beta  occ. eigenvalues --  -10.24534 -10.24381 -10.24340 -10.24294 -10.24228
  Beta  occ. eigenvalues --  -10.24016 -10.23956 -10.23820 -10.23755 -10.23750
  Beta  occ. eigenvalues --  -10.23399 -10.22760 -10.22586 -10.22442 -10.21760
  Beta  occ. eigenvalues --  -10.21708 -10.21528 -10.21320 -10.21268 -10.20917
  Beta  occ. eigenvalues --  -10.20868 -10.20826 -10.20443 -10.20400 -10.20369
  Beta  occ. eigenvalues --  -10.19900 -10.19776 -10.19575 -10.19520 -10.19423
  Beta  occ. eigenvalues --  -10.19243 -10.19236 -10.19192 -10.18703 -10.18347
  Beta  occ. eigenvalues --  -10.18295 -10.18236 -10.18051 -10.18002 -10.17705
  Beta  occ. eigenvalues --  -10.17264 -10.16958 -10.16174 -10.16009  -1.15116
  Beta  occ. eigenvalues --   -1.13375  -1.05991  -1.03848  -1.03317  -0.98444
  Beta  occ. eigenvalues --   -0.97750  -0.94520  -0.93323  -0.90252  -0.89402
  Beta  occ. eigenvalues --   -0.88487  -0.87487  -0.84717  -0.84337  -0.83731
  Beta  occ. eigenvalues --   -0.82413  -0.82133  -0.81120  -0.80419  -0.80197
  Beta  occ. eigenvalues --   -0.79545  -0.79226  -0.78726  -0.77877  -0.76962
  Beta  occ. eigenvalues --   -0.76707  -0.75756  -0.75697  -0.74851  -0.74288
  Beta  occ. eigenvalues --   -0.74215  -0.73706  -0.73011  -0.72023  -0.70999
  Beta  occ. eigenvalues --   -0.70609  -0.70000  -0.69490  -0.68628  -0.67802
  Beta  occ. eigenvalues --   -0.65941  -0.64840  -0.64325  -0.63863  -0.63439
  Beta  occ. eigenvalues --   -0.62884  -0.62704  -0.62332  -0.61857  -0.61449
  Beta  occ. eigenvalues --   -0.61145  -0.59222  -0.57932  -0.57553  -0.57242
  Beta  occ. eigenvalues --   -0.56594  -0.55421  -0.54656  -0.54456  -0.54170
  Beta  occ. eigenvalues --   -0.53687  -0.53408  -0.53103  -0.52966  -0.52433
  Beta  occ. eigenvalues --   -0.51934  -0.51673  -0.51052  -0.50858  -0.50607
  Beta  occ. eigenvalues --   -0.50545  -0.50500  -0.50225  -0.49920  -0.49500
  Beta  occ. eigenvalues --   -0.49198  -0.48999  -0.48674  -0.48366  -0.48160
  Beta  occ. eigenvalues --   -0.47781  -0.47521  -0.46962  -0.46503  -0.46306
  Beta  occ. eigenvalues --   -0.46010  -0.45305  -0.45022  -0.44830  -0.44794
  Beta  occ. eigenvalues --   -0.44408  -0.44353  -0.43993  -0.43840  -0.43530
  Beta  occ. eigenvalues --   -0.43408  -0.43225  -0.43006  -0.42895  -0.42732
  Beta  occ. eigenvalues --   -0.42619  -0.42067  -0.41999  -0.41915  -0.41625
  Beta  occ. eigenvalues --   -0.41448  -0.41258  -0.41120  -0.40953  -0.40774
  Beta  occ. eigenvalues --   -0.40705  -0.40622  -0.40348  -0.40056  -0.39914
  Beta  occ. eigenvalues --   -0.39662  -0.39502  -0.39346  -0.39257  -0.38965
  Beta  occ. eigenvalues --   -0.38897  -0.38540  -0.38278  -0.38242  -0.38053
  Beta  occ. eigenvalues --   -0.37748  -0.37619  -0.37544  -0.37428  -0.37340
  Beta  occ. eigenvalues --   -0.37215  -0.37071  -0.36838  -0.36707  -0.36624
  Beta  occ. eigenvalues --   -0.36531  -0.36390  -0.36267  -0.36152  -0.35858
  Beta  occ. eigenvalues --   -0.35660  -0.35629  -0.35510  -0.35167  -0.34594
  Beta  occ. eigenvalues --   -0.34312  -0.33903  -0.33738  -0.33154  -0.32908
  Beta  occ. eigenvalues --   -0.32838  -0.32661  -0.32127  -0.31851  -0.31322
  Beta  occ. eigenvalues --   -0.30998  -0.30075  -0.29249  -0.28420  -0.27724
  Beta  occ. eigenvalues --   -0.27562  -0.24149  -0.23978  -0.23437  -0.22999
  Beta  occ. eigenvalues --   -0.22313  -0.21855  -0.21249  -0.19602  -0.13730
  Beta  occ. eigenvalues --   -0.13286
  Beta virt. eigenvalues --    0.07880   0.09632   0.12381   0.13049   0.13798
  Beta virt. eigenvalues --    0.14134   0.14800   0.15042   0.15147   0.15311
  Beta virt. eigenvalues --    0.15719   0.16152   0.16304   0.16474   0.16844

 Mulliken charges and spin densities:
               1          2
     1  C   -0.236734   0.068819
     2  C   -0.619793   0.097673
     3  C   -0.496795   0.068279
     4  C   -0.417678   0.318325
     5  N   -0.409495   0.109750
     6  C    0.290143  -0.030857
     7  C    0.029612  -0.000510
     8  C    0.092163   0.004464
     9  C    0.258867  -0.001172
    10  C   -0.394305  -0.000217
    11  C   -0.311286   0.000193
    12  C   -0.228979  -0.000452
    13  C    0.399889   0.000013
    14  O   -0.389210   0.000009
    15  O   -0.281378  -0.000004
    16  N   -0.180208  -0.053542
    17  C    0.279173   0.070416
    18  C   -0.126298   0.089529
    19  C    0.085858   0.060408
    20  C    0.190709   0.057849
    21  C   -0.361436  -0.006381
    22  C   -0.212712  -0.019048
    23  C   -0.318313   0.034234
    24  N   -0.495075   0.145526
    25  C    0.292021  -0.014882
    26  C    0.009599  -0.064090
    27  C   -0.092886   0.037029
    28  C    0.360305  -0.144889
    29  C   -0.383623   0.005617
    30  C   -0.275444  -0.002821
    31  C   -0.324824   0.001606
    32  N   -0.163027   0.006205
    33  C    0.293722  -0.090606
    34  C   -0.191613   0.182437
    35  C   -0.018305   0.006061
    36  C    0.019791   0.012103
    37  C   -0.377335  -0.010234
    38  C    0.115288   0.012746
    39  O   -0.372175   0.038107
    40  C    0.097840  -0.000793
    41  C    0.278198   0.002000
    42  O   -0.354055   0.001211
    43  O   -0.267537  -0.000135
    44  C   -0.208553   0.000022
    45  C   -0.033583  -0.000001
    46  C   -0.252140  -0.000003
    47  C    0.132773   0.000002
    48  C   -0.410029  -0.000000
    49  C   -0.215007   0.000000
    50  C   -0.246722   0.000000
    51  C   -0.199669   0.000000
    52  C    0.054833   0.000000
    53  C   -0.409505  -0.000000
    54  C   -0.205271  -0.000000
    55  C   -0.224594   0.000000
    56  C   -0.204878  -0.000000
    57  C    0.059083  -0.000000
    58  C   -0.409406   0.000000
    59  C   -0.203625   0.000000
    60  C   -0.229483  -0.000000
    61  C   -0.204021   0.000000
    62  C    0.015277  -0.000000
    63  C   -0.378627   0.000000
    64  C   -0.341875  -0.000000
    65  H    0.103640  -0.003436
    66  H    0.155107  -0.001901
    67  H    0.100638  -0.010029
    68  H    0.095790  -0.000686
    69  H    0.063346  -0.000039
    70  H    0.096792   0.001598
    71  H    0.111038   0.000796
    72  H    0.140876  -0.000134
    73  H    0.126267  -0.000190
    74  H    0.134936   0.000117
    75  H    0.127043   0.000328
    76  H    0.126018  -0.000016
    77  H    0.123238   0.005891
    78  H    0.100642  -0.000139
    79  H    0.120644   0.003907
    80  H    0.106022   0.002872
    81  H    0.147967  -0.001073
    82  H    0.102009  -0.000665
    83  H    0.125162  -0.003190
    84  H    0.100294  -0.000076
    85  H    0.126900  -0.002490
    86  H    0.103163   0.002239
    87  H    0.091645   0.000311
    88  H    0.105999   0.000146
    89  H    0.126384  -0.000067
    90  H    0.090407  -0.000193
    91  H    0.101782   0.002311
    92  H    0.134765   0.003717
    93  H    0.119452   0.010709
    94  H    0.091438   0.000950
    95  H    0.121395   0.000010
    96  H    0.125435  -0.000024
    97  H    0.138601   0.000009
    98  H    0.103777  -0.000001
    99  H    0.131601  -0.000000
   100  H    0.108427   0.000000
   101  H    0.166927   0.000000
   102  H    0.121890   0.000000
   103  H    0.128105  -0.000000
   104  H    0.119888  -0.000000
   105  H    0.100771   0.000000
   106  H    0.107691  -0.000000
   107  H    0.105137   0.000000
   108  H    0.096607  -0.000000
   109  H    0.095643   0.000000
   110  H    0.062057  -0.000000
   111  H    0.127621   0.000000
   112  H    0.119586   0.000000
   113  H    0.105630   0.000000
   114  H    0.096164   0.000000
   115  H    0.093208   0.000000
   116  H    0.096909  -0.000000
   117  H    0.091863  -0.000000
   118  H    0.095420   0.000000
   119  H    0.093036  -0.000000
   120  H    0.061024   0.000000
   121  H    0.124445   0.000000
   122  H    0.122499  -0.000000
   123  H    0.105595  -0.000000
   124  H    0.096047   0.000000
   125  H    0.094252   0.000000
   126  H    0.095140   0.000000
   127  H    0.099947   0.000000
   128  H    0.096039   0.000000
   129  H    0.092783  -0.000000
   130  H    0.061711   0.000000
   131  H    0.106886   0.000000
   132  H    0.113672  -0.000000
   133  H    0.123662  -0.000000
   134  H    0.112102   0.000000
   135  H    0.113627  -0.000000
   136  H    0.105548   0.000000
   137  H    0.222371  -0.000296
   138  H    0.222219  -0.001260
 Sum of Mulliken charges =  -1.00000   1.00000

 Dipole moment (field-independent basis, Debye):
    X=             31.1600    Y=             -1.3710    Z=              2.0944  Tot=             31.2604
 Quadrupole moment (field-independent basis, Debye-Ang):
   XX=           -611.9029   YY=           -450.2139   ZZ=           -411.1216
   XY=             -4.9178   XZ=            -12.4363   YZ=            -18.6778

 Normal termination of Gaussian 16 at Wed Dec  4 00:53:15 2019.
