 Gaussian 16, Revision A.03,

 ----------------------------------------------------------------------
 # wB97XD/Def2TZVP Geom=Checkpoint Guess=Read iop(3/107=0128800000,3/10
 8=0128800000)
 ----------------------------------------------------------------------

 ---------
 pheo-a-s0
 ---------
 Structure from the checkpoint file:  "pheo-a-s0-01288.chk"
 Charge =  0 Multiplicity = 1

 SCF Done:  E(RwB97XD) =  -2735.91769580     A.U. after   14 cycles
 Normal termination of Gaussian 16 at Sat Dec  7 08:19:21 2019.

 ----------------------------------------------------------------------
 # wB97XD/Def2TZVP Geom=Checkpoint iop(3/107=0128800000,3/108=012880000
 0)
 ----------------------------------------------------------------------

 ----------------
 pheo-a-s0-Cation
 ----------------
 Structure from the checkpoint file:  "/home/padawan/israel-mol/w-tuning/pheo-a/logs/Gau-3677.chk"
 Charge =  1 Multiplicity = 2

 SCF Done:  E(UwB97XD) =  -2735.68798503     A.U. after   28 cycles
 Normal termination of Gaussian 16 at Sat Dec  7 14:15:53 2019.
 Gaussian 16:  ES64L-G16RevA.03 25-Dec-2016

 ----------------------------------------------------------------------
 # wB97XD/Def2TZVP Geom=Checkpoint iop(3/107=0128800000,3/108=012880000
 0)
 ----------------------------------------------------------------------

 ---------------
 pheo-a-s0-Anion
 ---------------
 Structure from the checkpoint file:  "/home/padawan/israel-mol/w-tuning/pheo-a/logs/Gau-4188.chk"
 Charge = -1 Multiplicity = 2

                         Standard orientation:
 ---------------------------------------------------------------------
 Center     Atomic      Atomic             Coordinates (Angstroms)
 Number     Number       Type             X           Y           Z
 ---------------------------------------------------------------------
      1          6           0       -5.140457   -1.928461   -0.261709
      2          6           0       -3.548272    1.584282    2.527075
      3          6           0       -6.834760    4.526935    0.528386
      4          6           0       -8.694557    0.929350   -2.072345
      5          7           0       -4.517152   -0.000252    0.989230
      6          6           0       -4.344898   -1.315976    0.649227
      7          6           0       -3.213267   -1.961335    1.420041
      8          6           0       -2.855935   -0.868131    2.443060
      9          6           0       -3.682809    0.307536    1.956749
     10          6           0       -3.193363   -1.249116    3.883124
     11          6           0       -2.039453   -2.374341    0.530085
     12          6           0       -1.010192   -3.185814    1.298358
     13          6           0        0.188155   -3.567856    0.466633
     14          8           0        0.424773   -3.148049   -0.634183
     15          8           0        0.961097   -4.441409    1.120697
     16          7           0       -5.272442    2.816393    1.303409
     17          6           0       -4.261350    2.714047    2.204360
     18          6           0       -4.062904    4.035242    2.764085
     19          6           0       -4.949845    4.878353    2.171370
     20          6           0       -5.762655    4.097665    1.248624
     21          6           0       -3.017084    4.356469    3.774942
     22          6           0       -5.063462    6.316117    2.415024
     23          6           0       -5.253750    7.247556    1.487759
     24          7           0       -7.487332    2.492222   -0.647933
     25          6           0       -7.654127    3.776499   -0.354051
     26          6           0       -8.799402    4.348458   -1.048374
     27          6           0       -9.333288    3.340353   -1.781670
     28          6           0       -8.500796    2.175682   -1.525594
     29          6           0       -9.246092    5.768499   -0.944713
     30          6           0      -10.497745    3.387127   -2.717488
     31          6           0      -10.076728    3.621977   -4.169941
     32          7           0       -6.791543   -0.136275   -1.011033
     33          6           0       -7.901127   -0.200666   -1.836151
     34          6           0       -8.034875   -1.525974   -2.300608
     35          6           0       -6.974980   -2.227653   -1.721135
     36          6           0       -6.235997   -1.340324   -0.933304
     37          6           0       -9.104342   -2.064628   -3.185512
     38          6           0       -6.374834   -3.547999   -1.629601
     39          8           0       -6.707237   -4.592777   -2.125659
     40          6           0       -5.102358   -3.374202   -0.723280
     41          6           0       -5.123681   -4.383251    0.401148
     42          8           0       -5.874036   -4.353629    1.337084
     43          8           0       -4.189642   -5.324920    0.228263
     44          6           0       -4.159124   -6.351950    1.215155
     45          6           0        2.201526   -4.816866    0.486695
     46          6           0        3.291769   -3.856986    0.828487
     47          6           0        3.965744   -3.082188   -0.019806
     48          6           0        3.715115   -3.034660   -1.501122
     49          6           0        5.074596   -2.196321    0.480953
     50          6           0        6.447046   -2.561080   -0.089206
     51          6           0        7.555563   -1.673595    0.463646
     52          6           0        8.935998   -1.886584   -0.163782
     53          6           0        9.455187   -3.302325    0.075936
     54          6           0        9.910062   -0.825118    0.355336
     55          6           0       11.278181   -0.811359   -0.316998
     56          6           0       12.148753    0.346393    0.158175
     57          6           0       13.494017    0.491236   -0.558809
     58          6           0       14.393057   -0.722138   -0.333212
     59          6           0       14.175840    1.791971   -0.125797
     60          6           0       15.456079    2.139006   -0.877352
     61          6           0       15.984600    3.522824   -0.517092
     62          6           0       17.347535    3.874531   -1.117107
     63          6           0       17.325703    3.873467   -2.643450
     64          6           0       17.828740    5.223425   -0.590225
     65          1           0       -2.794080    1.699662    3.294331
     66          1           0       -7.103300    5.564938    0.666216
     67          1           0       -9.537749    0.797980   -2.738896
     68          1           0       -3.590148   -2.849333    1.937205
     69          1           0       -1.794107   -0.610794    2.385328
     70          1           0       -2.602729   -2.112148    4.196558
     71          1           0       -2.987878   -0.428819    4.572507
     72          1           0       -4.249835   -1.509978    3.971331
     73          1           0       -2.395572   -2.969694   -0.310617
     74          1           0       -1.573526   -1.485559    0.099090
     75          1           0       -0.632710   -2.636164    2.166325
     76          1           0       -1.455221   -4.101478    1.695896
     77          1           0       -2.018596    4.153943    3.380773
     78          1           0       -3.052561    5.405657    4.062861
     79          1           0       -3.142103    3.750977    4.675465
     80          1           0       -4.950016    6.629500    3.448456
     81          1           0       -5.330738    7.001950    0.435822
     82          1           0       -5.314319    8.293896    1.757509
     83          1           0       -8.473030    6.455645   -1.298486
     84          1           0      -10.140333    5.946749   -1.541393
     85          1           0       -9.475538    6.041922    0.088098
     86          1           0      -11.066316    2.456175   -2.648641
     87          1           0      -11.183046    4.178555   -2.406780
     88          1           0       -9.547943    4.571590   -4.267540
     89          1           0       -9.404302    2.833695   -4.512842
     90          1           0      -10.944733    3.643438   -4.831186
     91          1           0       -9.557189   -1.283800   -3.796552
     92          1           0       -8.701985   -2.834088   -3.843669
     93          1           0       -9.895016   -2.529366   -2.591644
     94          1           0       -4.241767   -3.580551   -1.361834
     95          1           0       -3.350568   -7.017328    0.924907
     96          1           0       -3.971077   -5.929241    2.202743
     97          1           0       -5.106789   -6.889195    1.235387
     98          1           0        2.416148   -5.803471    0.897349
     99          1           0        2.042745   -4.908415   -0.585279
    100          1           0        3.544939   -3.813235    1.884224
    101          1           0        2.696863   -3.320181   -1.756495
    102          1           0        3.882591   -2.022738   -1.876167
    103          1           0        4.408737   -3.690178   -2.034449
    104          1           0        4.846387   -1.158597    0.210636
    105          1           0        5.117234   -2.237923    1.572340
    106          1           0        6.648175   -3.611195    0.138343
    107          1           0        6.429249   -2.475935   -1.180337
    108          1           0        7.266852   -0.626687    0.320117
    109          1           0        7.631603   -1.821506    1.547858
    110          1           0        8.833786   -1.741357   -1.247028
    111          1           0        8.773513   -4.054358   -0.322590
    112          1           0       10.423379   -3.461740   -0.399401
    113          1           0        9.572372   -3.489419    1.147733
    114          1           0        9.448847    0.160148    0.227542
    115          1           0       10.039735   -0.960902    1.436165
    116          1           0       11.789660   -1.757163   -0.127563
    117          1           0       11.146524   -0.742286   -1.403242
    118          1           0       11.587520    1.278696    0.033070
    119          1           0       12.329902    0.244305    1.235318
    120          1           0       13.289871    0.566629   -1.634791
    121          1           0       13.917863   -1.644307   -0.669106
    122          1           0       15.335479   -0.630265   -0.873956
    123          1           0       14.625607   -0.832161    0.730459
    124          1           0       13.464392    2.615094   -0.253840
    125          1           0       14.388993    1.740774    0.949018
    126          1           0       16.232633    1.398603   -0.662672
    127          1           0       15.261838    2.079985   -1.952810
    128          1           0       15.255283    4.281826   -0.826241
    129          1           0       16.055108    3.597567    0.573667
    130          1           0       18.061480    3.109637   -0.788849
    131          1           0       16.583288    4.585495   -3.016409
    132          1           0       18.297641    4.164453   -3.047083
    133          1           0       17.080587    2.890862   -3.048512
    134          1           0       17.877827    5.229191    0.500704
    135          1           0       18.821338    5.467866   -0.973991
    136          1           0       17.147117    6.021746   -0.897832
    137          1           0       -5.666960    2.034297    0.806913
    138          1           0       -6.510218    0.731143   -0.574872
 ---------------------------------------------------------------------

 SCF Done:  E(UwB97XD) =  -2735.97302773     A.U. after   22 cycles

 Alpha virt. eigenvalues --    2.05201   2.05325   2.05502   2.05673   2.05743
 Alpha virt. eigenvalues --    2.06023   2.06082   2.06126   2.06591   2.06953
 Alpha virt. eigenvalues --    2.07132   2.07356   2.07719   2.08503   2.08709

  Beta  occ. eigenvalues --  -19.20122 -19.18489 -19.13673 -19.11166 -19.08511
  Beta  occ. eigenvalues --  -14.32568 -14.32564 -14.26973 -14.24988 -10.31292
  Beta  occ. eigenvalues --  -10.28983 -10.25443 -10.23111 -10.23039 -10.22653
  Beta  occ. eigenvalues --  -10.22114 -10.21587 -10.21530 -10.21469 -10.21427
  Beta  occ. eigenvalues --  -10.21245 -10.21102 -10.21061 -10.21005 -10.20937
  Beta  occ. eigenvalues --  -10.20728 -10.20673 -10.20531 -10.20468 -10.20464
  Beta  occ. eigenvalues --  -10.20118 -10.19454 -10.19252 -10.19161 -10.18388
  Beta  occ. eigenvalues --  -10.18244 -10.18128 -10.18010 -10.17994 -10.17723
  Beta  occ. eigenvalues --  -10.17542 -10.17438 -10.17134 -10.17094 -10.17063
  Beta  occ. eigenvalues --  -10.16582 -10.16415 -10.16275 -10.16215 -10.16135
  Beta  occ. eigenvalues --  -10.15924 -10.15883 -10.15863 -10.15407 -10.15087
  Beta  occ. eigenvalues --  -10.15037 -10.14944 -10.14845 -10.14663 -10.14342
  Beta  occ. eigenvalues --  -10.13892 -10.13721 -10.13033 -10.12978  -1.11430
  Beta  occ. eigenvalues --   -1.09665  -1.02385  -1.00205  -0.99631  -0.94830
  Beta  occ. eigenvalues --   -0.94127  -0.90882  -0.89624  -0.86532  -0.85686
  Beta  occ. eigenvalues --   -0.84781  -0.83788  -0.81035  -0.80662  -0.80055
  Beta  occ. eigenvalues --   -0.78748  -0.78494  -0.77435  -0.76803  -0.76574
  Beta  occ. eigenvalues --   -0.75940  -0.75620  -0.75082  -0.74271  -0.73356
  Beta  occ. eigenvalues --   -0.73112  -0.72156  -0.72155  -0.71310  -0.70743
  Beta  occ. eigenvalues --   -0.70656  -0.70165  -0.69475  -0.68495  -0.67511
  Beta  occ. eigenvalues --   -0.67095  -0.66474  -0.65976  -0.65158  -0.64315
  Beta  occ. eigenvalues --   -0.62522  -0.61433  -0.60900  -0.60415  -0.60045
  Beta  occ. eigenvalues --   -0.59483  -0.59265  -0.58938  -0.58459  -0.58080
  Beta  occ. eigenvalues --   -0.57787  -0.55926  -0.54614  -0.54218  -0.53948
  Beta  occ. eigenvalues --   -0.53274  -0.52155  -0.51387  -0.51200  -0.50903
  Beta  occ. eigenvalues --   -0.50451  -0.50159  -0.49881  -0.49736  -0.49187
  Beta  occ. eigenvalues --   -0.48632  -0.48432  -0.47828  -0.47641  -0.47369
  Beta  occ. eigenvalues --   -0.47349  -0.47237  -0.47045  -0.46762  -0.46362
  Beta  occ. eigenvalues --   -0.45977  -0.45821  -0.45490  -0.45296  -0.45034
  Beta  occ. eigenvalues --   -0.44632  -0.44446  -0.43942  -0.43357  -0.43279
  Beta  occ. eigenvalues --   -0.42888  -0.42264  -0.41994  -0.41788  -0.41656
  Beta  occ. eigenvalues --   -0.41483  -0.41183  -0.40910  -0.40785  -0.40501
  Beta  occ. eigenvalues --   -0.40381  -0.40278  -0.40033  -0.39856  -0.39688
  Beta  occ. eigenvalues --   -0.39526  -0.39155  -0.38987  -0.38849  -0.38672
  Beta  occ. eigenvalues --   -0.38577  -0.38287  -0.38165  -0.38090  -0.37860
  Beta  occ. eigenvalues --   -0.37781  -0.37584  -0.37467  -0.37122  -0.37060
  Beta  occ. eigenvalues --   -0.36757  -0.36514  -0.36464  -0.36272  -0.36041
  Beta  occ. eigenvalues --   -0.35925  -0.35633  -0.35416  -0.35328  -0.35228
  Beta  occ. eigenvalues --   -0.34865  -0.34809  -0.34716  -0.34588  -0.34504
  Beta  occ. eigenvalues --   -0.34328  -0.34311  -0.34047  -0.33953  -0.33800
  Beta  occ. eigenvalues --   -0.33658  -0.33651  -0.33458  -0.33396  -0.32930
  Beta  occ. eigenvalues --   -0.32882  -0.32752  -0.32578  -0.32189  -0.31753
  Beta  occ. eigenvalues --   -0.31525  -0.31198  -0.30961  -0.30375  -0.30077
  Beta  occ. eigenvalues --   -0.30040  -0.29872  -0.29337  -0.29076  -0.28570
  Beta  occ. eigenvalues --   -0.28137  -0.27133  -0.26422  -0.25607  -0.25144
  Beta  occ. eigenvalues --   -0.24598  -0.21719  -0.21292  -0.20700  -0.20491
  Beta  occ. eigenvalues --   -0.19507  -0.19425  -0.18830  -0.17165  -0.12091
  Beta  occ. eigenvalues --   -0.11715
  Beta virt. eigenvalues --    0.07091   0.08882   0.11025   0.12833   0.12876
  Beta virt. eigenvalues --    0.13431   0.13556   0.14417   0.14594   0.14956
  Beta virt. eigenvalues --    0.15092   0.15470   0.15903   0.16094   0.16214

 Mulliken charges and spin densities:
               1          2
     1  C   -0.248519   0.070532
     2  C   -0.621552   0.108562
     3  C   -0.500138   0.070570
     4  C   -0.410857   0.284239
     5  N   -0.453093   0.109020
     6  C    0.333716  -0.032455
     7  C    0.009214  -0.000477
     8  C    0.104860   0.003361
     9  C    0.273257  -0.006523
    10  C   -0.381955  -0.000019
    11  C   -0.303133   0.000513
    12  C   -0.220932  -0.000419
    13  C    0.433734   0.000030
    14  O   -0.405739   0.000007
    15  O   -0.295501  -0.000004
    16  N   -0.201153  -0.039975
    17  C    0.286607   0.052457
    18  C   -0.121007   0.087434
    19  C    0.082469   0.053124
    20  C    0.203475   0.051936
    21  C   -0.352734  -0.006145
    22  C   -0.203940  -0.016493
    23  C   -0.319841   0.034461
    24  N   -0.537097   0.126229
    25  C    0.295475  -0.002446
    26  C    0.024584  -0.047229
    27  C   -0.103967   0.030563
    28  C    0.371974  -0.112805
    29  C   -0.375205   0.003917
    30  C   -0.265304  -0.002220
    31  C   -0.309353   0.001659
    32  N   -0.188191   0.002193
    33  C    0.291119  -0.074559
    34  C   -0.195937   0.174701
    35  C   -0.026516   0.009038
    36  C    0.043272   0.008596
    37  C   -0.365603  -0.009606
    38  C    0.173865   0.016605
    39  O   -0.399934   0.041928
    40  C    0.079072  -0.000186
    41  C    0.318971   0.001672
    42  O   -0.374205   0.001438
    43  O   -0.282377  -0.000148
    44  C   -0.192244   0.000016
    45  C   -0.005909  -0.000001
    46  C   -0.252811  -0.000003
    47  C    0.119569   0.000002
    48  C   -0.396459   0.000000
    49  C   -0.190055   0.000000
    50  C   -0.244108   0.000000
    51  C   -0.178044   0.000000
    52  C    0.051720   0.000000
    53  C   -0.393352  -0.000000
    54  C   -0.185232  -0.000000
    55  C   -0.220960   0.000000
    56  C   -0.184670  -0.000000
    57  C    0.056067   0.000000
    58  C   -0.393383  -0.000000
    59  C   -0.183716   0.000000
    60  C   -0.224444  -0.000000
    61  C   -0.187122  -0.000000
    62  C    0.012873   0.000000
    63  C   -0.362177  -0.000000
    64  C   -0.323188  -0.000000
    65  H    0.109220  -0.004413
    66  H    0.169231  -0.002451
    67  H    0.104566  -0.010547
    68  H    0.101682  -0.000872
    69  H    0.053506  -0.000336
    70  H    0.092995   0.001448
    71  H    0.106830   0.000581
    72  H    0.137162  -0.000181
    73  H    0.128141  -0.000257
    74  H    0.127078   0.000101
    75  H    0.121023   0.000317
    76  H    0.122693  -0.000027
    77  H    0.118599   0.006082
    78  H    0.097316  -0.000115
    79  H    0.116778   0.004031
    80  H    0.101804   0.002784
    81  H    0.148067  -0.001308
    82  H    0.099271  -0.000932
    83  H    0.121096  -0.002435
    84  H    0.095806  -0.000092
    85  H    0.122498  -0.001798
    86  H    0.097427   0.002034
    87  H    0.084759   0.000259
    88  H    0.102325   0.000079
    89  H    0.123919  -0.000162
    90  H    0.084076  -0.000150
    91  H    0.097657   0.002245
    92  H    0.131297   0.003664
    93  H    0.112806   0.010742
    94  H    0.081321   0.000478
    95  H    0.115180   0.000010
    96  H    0.120254  -0.000022
    97  H    0.133730   0.000010
    98  H    0.093349  -0.000001
    99  H    0.125361  -0.000000
   100  H    0.100914   0.000000
   101  H    0.166902  -0.000000
   102  H    0.116850   0.000000
   103  H    0.124161   0.000000
   104  H    0.112974   0.000000
   105  H    0.092993   0.000000
   106  H    0.104507  -0.000000
   107  H    0.101281   0.000000
   108  H    0.089087  -0.000000
   109  H    0.088831   0.000000
   110  H    0.052880  -0.000000
   111  H    0.123590   0.000000
   112  H    0.115416   0.000000
   113  H    0.100731   0.000000
   114  H    0.089068   0.000000
   115  H    0.086423   0.000000
   116  H    0.096999  -0.000000
   117  H    0.084318  -0.000000
   118  H    0.088283   0.000000
   119  H    0.086220   0.000000
   120  H    0.051958  -0.000000
   121  H    0.120274   0.000000
   122  H    0.118590   0.000000
   123  H    0.100698  -0.000000
   124  H    0.088776  -0.000000
   125  H    0.087799  -0.000000
   126  H    0.091144  -0.000000
   127  H    0.095933  -0.000000
   128  H    0.090102  -0.000000
   129  H    0.086088   0.000000
   130  H    0.053902  -0.000000
   131  H    0.102234   0.000000
   132  H    0.108417   0.000000
   133  H    0.120555  -0.000000
   134  H    0.107183   0.000000
   135  H    0.108586   0.000000
   136  H    0.100952   0.000000
   137  H    0.230013  -0.000748
   138  H    0.231315  -0.001106
 Sum of Mulliken charges =  -1.00000   1.00000

 Dipole moment (field-independent basis, Debye):
    X=             31.1896    Y=             -1.4218    Z=              2.1189  Tot=             31.2938
 Quadrupole moment (field-independent basis, Debye-Ang):
   XX=           -610.6426   YY=           -449.0910   ZZ=           -408.6996
   XY=             -4.0874   XZ=            -12.6498   YZ=            -18.5349

 Normal termination of Gaussian 16 at Sat Dec  7 18:54:07 2019.
