 Gaussian 16, Revision A.03,

 ----------------------------------------------------------------------
 # wB97XD/Def2TZVP Geom=Checkpoint Guess=Read iop(3/107=0177700000,3/10
 8=0177700000)
 ----------------------------------------------------------------------

 ---------
 pheo-a-s0
 ---------
 Structure from the checkpoint file:  "pheo-a-s0-01777.chk"
 Charge =  0 Multiplicity = 1

 SCF Done:  E(RwB97XD) =  -2735.76145232     A.U. after   13 cycles
 Normal termination of Gaussian 16 at Sat Dec  7 20:54:03 2019.

 ----------------------------------------------------------------------
 # wB97XD/Def2TZVP Geom=Checkpoint iop(3/107=0177700000,3/108=017770000
 0)
 ----------------------------------------------------------------------

 ----------------
 pheo-a-s0-Cation
 ----------------
 Structure from the checkpoint file:  "/home/padawan/israel-mol/w-tuning/pheo-a/logs/Gau-4962.chk"
 Charge =  1 Multiplicity = 2

 SCF Done:  E(UwB97XD) =  -2735.52968625     A.U. after   30 cycles
 Normal termination of Gaussian 16 at Sun Dec  8 03:11:26 2019.
 Gaussian 16:  ES64L-G16RevA.03 25-Dec-2016

 ----------------------------------------------------------------------
 # wB97XD/Def2TZVP Geom=Checkpoint iop(3/107=0177700000,3/108=017770000
 0)
 ----------------------------------------------------------------------

 ---------------
 pheo-a-s0-Anion
 ---------------
 Structure from the checkpoint file:  "/home/padawan/israel-mol/w-tuning/pheo-a/logs/Gau-5789.chk"
 Charge = -1 Multiplicity = 2

                         Standard orientation:
 ---------------------------------------------------------------------
 Center     Atomic      Atomic             Coordinates (Angstroms)
 Number     Number       Type             X           Y           Z
 ---------------------------------------------------------------------
      1          6           0       -5.140457   -1.928461   -0.261709
      2          6           0       -3.548272    1.584282    2.527075
      3          6           0       -6.834760    4.526935    0.528386
      4          6           0       -8.694557    0.929350   -2.072345
      5          7           0       -4.517152   -0.000252    0.989230
      6          6           0       -4.344898   -1.315976    0.649227
      7          6           0       -3.213267   -1.961335    1.420041
      8          6           0       -2.855935   -0.868131    2.443060
      9          6           0       -3.682809    0.307536    1.956749
     10          6           0       -3.193363   -1.249116    3.883124
     11          6           0       -2.039453   -2.374341    0.530085
     12          6           0       -1.010192   -3.185814    1.298358
     13          6           0        0.188155   -3.567856    0.466633
     14          8           0        0.424773   -3.148049   -0.634183
     15          8           0        0.961097   -4.441409    1.120697
     16          7           0       -5.272442    2.816393    1.303409
     17          6           0       -4.261350    2.714047    2.204360
     18          6           0       -4.062904    4.035242    2.764085
     19          6           0       -4.949845    4.878353    2.171370
     20          6           0       -5.762655    4.097665    1.248624
     21          6           0       -3.017084    4.356469    3.774942
     22          6           0       -5.063462    6.316117    2.415024
     23          6           0       -5.253750    7.247556    1.487759
     24          7           0       -7.487332    2.492222   -0.647933
     25          6           0       -7.654127    3.776499   -0.354051
     26          6           0       -8.799402    4.348458   -1.048374
     27          6           0       -9.333288    3.340353   -1.781670
     28          6           0       -8.500796    2.175682   -1.525594
     29          6           0       -9.246092    5.768499   -0.944713
     30          6           0      -10.497745    3.387127   -2.717488
     31          6           0      -10.076728    3.621977   -4.169941
     32          7           0       -6.791543   -0.136275   -1.011033
     33          6           0       -7.901127   -0.200666   -1.836151
     34          6           0       -8.034875   -1.525974   -2.300608
     35          6           0       -6.974980   -2.227653   -1.721135
     36          6           0       -6.235997   -1.340324   -0.933304
     37          6           0       -9.104342   -2.064628   -3.185512
     38          6           0       -6.374834   -3.547999   -1.629601
     39          8           0       -6.707237   -4.592777   -2.125659
     40          6           0       -5.102358   -3.374202   -0.723280
     41          6           0       -5.123681   -4.383251    0.401148
     42          8           0       -5.874036   -4.353629    1.337084
     43          8           0       -4.189642   -5.324920    0.228263
     44          6           0       -4.159124   -6.351950    1.215155
     45          6           0        2.201526   -4.816866    0.486695
     46          6           0        3.291769   -3.856986    0.828487
     47          6           0        3.965744   -3.082188   -0.019806
     48          6           0        3.715115   -3.034660   -1.501122
     49          6           0        5.074596   -2.196321    0.480953
     50          6           0        6.447046   -2.561080   -0.089206
     51          6           0        7.555563   -1.673595    0.463646
     52          6           0        8.935998   -1.886584   -0.163782
     53          6           0        9.455187   -3.302325    0.075936
     54          6           0        9.910062   -0.825118    0.355336
     55          6           0       11.278181   -0.811359   -0.316998
     56          6           0       12.148753    0.346393    0.158175
     57          6           0       13.494017    0.491236   -0.558809
     58          6           0       14.393057   -0.722138   -0.333212
     59          6           0       14.175840    1.791971   -0.125797
     60          6           0       15.456079    2.139006   -0.877352
     61          6           0       15.984600    3.522824   -0.517092
     62          6           0       17.347535    3.874531   -1.117107
     63          6           0       17.325703    3.873467   -2.643450
     64          6           0       17.828740    5.223425   -0.590225
     65          1           0       -2.794080    1.699662    3.294331
     66          1           0       -7.103300    5.564938    0.666216
     67          1           0       -9.537749    0.797980   -2.738896
     68          1           0       -3.590148   -2.849333    1.937205
     69          1           0       -1.794107   -0.610794    2.385328
     70          1           0       -2.602729   -2.112148    4.196558
     71          1           0       -2.987878   -0.428819    4.572507
     72          1           0       -4.249835   -1.509978    3.971331
     73          1           0       -2.395572   -2.969694   -0.310617
     74          1           0       -1.573526   -1.485559    0.099090
     75          1           0       -0.632710   -2.636164    2.166325
     76          1           0       -1.455221   -4.101478    1.695896
     77          1           0       -2.018596    4.153943    3.380773
     78          1           0       -3.052561    5.405657    4.062861
     79          1           0       -3.142103    3.750977    4.675465
     80          1           0       -4.950016    6.629500    3.448456
     81          1           0       -5.330738    7.001950    0.435822
     82          1           0       -5.314319    8.293896    1.757509
     83          1           0       -8.473030    6.455645   -1.298486
     84          1           0      -10.140333    5.946749   -1.541393
     85          1           0       -9.475538    6.041922    0.088098
     86          1           0      -11.066316    2.456175   -2.648641
     87          1           0      -11.183046    4.178555   -2.406780
     88          1           0       -9.547943    4.571590   -4.267540
     89          1           0       -9.404302    2.833695   -4.512842
     90          1           0      -10.944733    3.643438   -4.831186
     91          1           0       -9.557189   -1.283800   -3.796552
     92          1           0       -8.701985   -2.834088   -3.843669
     93          1           0       -9.895016   -2.529366   -2.591644
     94          1           0       -4.241767   -3.580551   -1.361834
     95          1           0       -3.350568   -7.017328    0.924907
     96          1           0       -3.971077   -5.929241    2.202743
     97          1           0       -5.106789   -6.889195    1.235387
     98          1           0        2.416148   -5.803471    0.897349
     99          1           0        2.042745   -4.908415   -0.585279
    100          1           0        3.544939   -3.813235    1.884224
    101          1           0        2.696863   -3.320181   -1.756495
    102          1           0        3.882591   -2.022738   -1.876167
    103          1           0        4.408737   -3.690178   -2.034449
    104          1           0        4.846387   -1.158597    0.210636
    105          1           0        5.117234   -2.237923    1.572340
    106          1           0        6.648175   -3.611195    0.138343
    107          1           0        6.429249   -2.475935   -1.180337
    108          1           0        7.266852   -0.626687    0.320117
    109          1           0        7.631603   -1.821506    1.547858
    110          1           0        8.833786   -1.741357   -1.247028
    111          1           0        8.773513   -4.054358   -0.322590
    112          1           0       10.423379   -3.461740   -0.399401
    113          1           0        9.572372   -3.489419    1.147733
    114          1           0        9.448847    0.160148    0.227542
    115          1           0       10.039735   -0.960902    1.436165
    116          1           0       11.789660   -1.757163   -0.127563
    117          1           0       11.146524   -0.742286   -1.403242
    118          1           0       11.587520    1.278696    0.033070
    119          1           0       12.329902    0.244305    1.235318
    120          1           0       13.289871    0.566629   -1.634791
    121          1           0       13.917863   -1.644307   -0.669106
    122          1           0       15.335479   -0.630265   -0.873956
    123          1           0       14.625607   -0.832161    0.730459
    124          1           0       13.464392    2.615094   -0.253840
    125          1           0       14.388993    1.740774    0.949018
    126          1           0       16.232633    1.398603   -0.662672
    127          1           0       15.261838    2.079985   -1.952810
    128          1           0       15.255283    4.281826   -0.826241
    129          1           0       16.055108    3.597567    0.573667
    130          1           0       18.061480    3.109637   -0.788849
    131          1           0       16.583288    4.585495   -3.016409
    132          1           0       18.297641    4.164453   -3.047083
    133          1           0       17.080587    2.890862   -3.048512
    134          1           0       17.877827    5.229191    0.500704
    135          1           0       18.821338    5.467866   -0.973991
    136          1           0       17.147117    6.021746   -0.897832
    137          1           0       -5.666960    2.034297    0.806913
    138          1           0       -6.510218    0.731143   -0.574872
 ---------------------------------------------------------------------

 SCF Done:  E(UwB97XD) =  -2735.82078301     A.U. after   25 cycles

 Alpha virt. eigenvalues --    2.06771   2.06905   2.07114   2.07248   2.07333
 Alpha virt. eigenvalues --    2.07605   2.07719   2.07750   2.08168   2.08527
 Alpha virt. eigenvalues --    2.08690   2.08924   2.09250   2.10098   2.10331

  Beta  occ. eigenvalues --  -19.22382 -19.20776 -19.15970 -19.13491 -19.10845
  Beta  occ. eigenvalues --  -14.34764 -14.34741 -14.29056 -14.27181 -10.33651
  Beta  occ. eigenvalues --  -10.31356 -10.27682 -10.25453 -10.25353 -10.24864
  Beta  occ. eigenvalues --  -10.24330 -10.23801 -10.23792 -10.23679 -10.23641
  Beta  occ. eigenvalues --  -10.23457 -10.23304 -10.23263 -10.23217 -10.23151
  Beta  occ. eigenvalues --  -10.22940 -10.22879 -10.22743 -10.22678 -10.22673
  Beta  occ. eigenvalues --  -10.22323 -10.21679 -10.21491 -10.21366 -10.20651
  Beta  occ. eigenvalues --  -10.20569 -10.20409 -10.20224 -10.20197 -10.19869
  Beta  occ. eigenvalues --  -10.19775 -10.19718 -10.19357 -10.19315 -10.19283
  Beta  occ. eigenvalues --  -10.18812 -10.18677 -10.18474 -10.18453 -10.18341
  Beta  occ. eigenvalues --  -10.18154 -10.18133 -10.18104 -10.17625 -10.17277
  Beta  occ. eigenvalues --  -10.17229 -10.17162 -10.16969 -10.16947 -10.16608
  Beta  occ. eigenvalues --  -10.16161 -10.15905 -10.15149 -10.15019  -1.13903
  Beta  occ. eigenvalues --   -1.12155  -1.04812  -1.02657  -1.02114  -0.97256
  Beta  occ. eigenvalues --   -0.96559  -0.93322  -0.92110  -0.89027  -0.88178
  Beta  occ. eigenvalues --   -0.87267  -0.86270  -0.83507  -0.83130  -0.82524
  Beta  occ. eigenvalues --   -0.81211  -0.80941  -0.79911  -0.79236  -0.79010
  Beta  occ. eigenvalues --   -0.78365  -0.78047  -0.77534  -0.76699  -0.75786
  Beta  occ. eigenvalues --   -0.75534  -0.74581  -0.74543  -0.73700  -0.73135
  Beta  occ. eigenvalues --   -0.73058  -0.72556  -0.71861  -0.70877  -0.69866
  Beta  occ. eigenvalues --   -0.69469  -0.68857  -0.68351  -0.67509  -0.66674
  Beta  occ. eigenvalues --   -0.64841  -0.63743  -0.63222  -0.62752  -0.62350
  Beta  occ. eigenvalues --   -0.61795  -0.61598  -0.61245  -0.60767  -0.60372
  Beta  occ. eigenvalues --   -0.60072  -0.58172  -0.56873  -0.56489  -0.56194
  Beta  occ. eigenvalues --   -0.55537  -0.54385  -0.53618  -0.53429  -0.53135
  Beta  occ. eigenvalues --   -0.52667  -0.52379  -0.52083  -0.51948  -0.51409
  Beta  occ. eigenvalues --   -0.50888  -0.50651  -0.50034  -0.49846  -0.49574
  Beta  occ. eigenvalues --   -0.49529  -0.49487  -0.49226  -0.48929  -0.48516
  Beta  occ. eigenvalues --   -0.48182  -0.47999  -0.47669  -0.47406  -0.47178
  Beta  occ. eigenvalues --   -0.46792  -0.46559  -0.46018  -0.45514  -0.45361
  Beta  occ. eigenvalues --   -0.45032  -0.44352  -0.44078  -0.43875  -0.43815
  Beta  occ. eigenvalues --   -0.43492  -0.43357  -0.43026  -0.42884  -0.42581
  Beta  occ. eigenvalues --   -0.42462  -0.42310  -0.42050  -0.41972  -0.41780
  Beta  occ. eigenvalues --   -0.41651  -0.41115  -0.41099  -0.40953  -0.40708
  Beta  occ. eigenvalues --   -0.40558  -0.40331  -0.40195  -0.40066  -0.39860
  Beta  occ. eigenvalues --   -0.39799  -0.39675  -0.39454  -0.39142  -0.39029
  Beta  occ. eigenvalues --   -0.38759  -0.38570  -0.38444  -0.38340  -0.38057
  Beta  occ. eigenvalues --   -0.37973  -0.37629  -0.37394  -0.37339  -0.37181
  Beta  occ. eigenvalues --   -0.36837  -0.36763  -0.36666  -0.36530  -0.36486
  Beta  occ. eigenvalues --   -0.36314  -0.36228  -0.35973  -0.35861  -0.35754
  Beta  occ. eigenvalues --   -0.35638  -0.35549  -0.35397  -0.35309  -0.34930
  Beta  occ. eigenvalues --   -0.34814  -0.34745  -0.34608  -0.34246  -0.33717
  Beta  occ. eigenvalues --   -0.33452  -0.33072  -0.32881  -0.32296  -0.32035
  Beta  occ. eigenvalues --   -0.31980  -0.31803  -0.31268  -0.30994  -0.30471
  Beta  occ. eigenvalues --   -0.30117  -0.29162  -0.28396  -0.27570  -0.26947
  Beta  occ. eigenvalues --   -0.26646  -0.23436  -0.23154  -0.22596  -0.22257
  Beta  occ. eigenvalues --   -0.21451  -0.21142  -0.20531  -0.18882  -0.13249
  Beta  occ. eigenvalues --   -0.12826
  Beta virt. eigenvalues --    0.07643   0.09416   0.11980   0.12979   0.13717
  Beta virt. eigenvalues --    0.13767   0.14507   0.14789   0.15084   0.15239
  Beta virt. eigenvalues --    0.15337   0.16066   0.16235   0.16386   0.16529

 Mulliken charges and spin densities:
               1          2
     1  C   -0.238956   0.069417
     2  C   -0.621089   0.101145
     3  C   -0.498700   0.068815
     4  C   -0.418101   0.306246
     5  N   -0.420059   0.109587
     6  C    0.300869  -0.031541
     7  C    0.026005  -0.000501
     8  C    0.095781   0.004145
     9  C    0.262582  -0.003090
    10  C   -0.391361  -0.000195
    11  C   -0.309849   0.000267
    12  C   -0.226508  -0.000445
    13  C    0.408351   0.000018
    14  O   -0.393225   0.000008
    15  O   -0.284499  -0.000004
    16  N   -0.184798  -0.048977
    17  C    0.281709   0.064739
    18  C   -0.125791   0.088866
    19  C    0.085402   0.057897
    20  C    0.194910   0.056366
    21  C   -0.358776  -0.006272
    22  C   -0.210761  -0.017975
    23  C   -0.318945   0.034018
    24  N   -0.505444   0.139128
    25  C    0.293882  -0.010793
    26  C    0.012634  -0.058312
    27  C   -0.095502   0.034574
    28  C    0.364507  -0.133743
    29  C   -0.381278   0.005024
    30  C   -0.272775  -0.002587
    31  C   -0.321171   0.001605
    32  N   -0.168867   0.004913
    33  C    0.294291  -0.084502
    34  C   -0.193224   0.179078
    35  C   -0.019251   0.007240
    36  C    0.024780   0.010882
    37  C   -0.374922  -0.009907
    38  C    0.130088   0.013972
    39  O   -0.379219   0.039293
    40  C    0.093201  -0.000645
    41  C    0.288322   0.001908
    42  O   -0.359073   0.001278
    43  O   -0.270831  -0.000141
    44  C   -0.204977   0.000021
    45  C   -0.026100  -0.000001
    46  C   -0.252862  -0.000003
    47  C    0.129808   0.000002
    48  C   -0.406449   0.000000
    49  C   -0.208504   0.000000
    50  C   -0.246407   0.000000
    51  C   -0.193419   0.000000
    52  C    0.053983   0.000000
    53  C   -0.405423  -0.000000
    54  C   -0.199708  -0.000000
    55  C   -0.223683   0.000000
    56  C   -0.199278  -0.000000
    57  C    0.058339   0.000000
    58  C   -0.405370  -0.000000
    59  C   -0.198099   0.000000
    60  C   -0.228283  -0.000000
    61  C   -0.199534   0.000000
    62  C    0.014402   0.000000
    63  C   -0.374555   0.000000
    64  C   -0.337052   0.000000
    65  H    0.104904  -0.003704
    66  H    0.158208  -0.002042
    67  H    0.101079  -0.010124
    68  H    0.096606  -0.000751
    69  H    0.060436  -0.000133
    70  H    0.095884   0.001554
    71  H    0.109979   0.000744
    72  H    0.140013  -0.000145
    73  H    0.126690  -0.000207
    74  H    0.132742   0.000113
    75  H    0.125324   0.000325
    76  H    0.125007  -0.000020
    77  H    0.122068   0.005956
    78  H    0.099841  -0.000133
    79  H    0.119687   0.003949
    80  H    0.104863   0.002833
    81  H    0.148026  -0.001132
    82  H    0.101306  -0.000725
    83  H    0.124141  -0.002933
    84  H    0.099178  -0.000078
    85  H    0.125801  -0.002246
    86  H    0.101626   0.002181
    87  H    0.089802   0.000289
    88  H    0.105173   0.000124
    89  H    0.125861  -0.000081
    90  H    0.088883  -0.000184
    91  H    0.100912   0.002279
    92  H    0.133990   0.003679
    93  H    0.117920   0.010666
    94  H    0.088462   0.000804
    95  H    0.119891   0.000010
    96  H    0.124247  -0.000024
    97  H    0.137466   0.000009
    98  H    0.101053  -0.000001
    99  H    0.129682  -0.000000
   100  H    0.106335   0.000000
   101  H    0.166948   0.000000
   102  H    0.120653   0.000000
   103  H    0.127182  -0.000000
   104  H    0.118053   0.000000
   105  H    0.098666   0.000000
   106  H    0.106798  -0.000000
   107  H    0.104067   0.000000
   108  H    0.094491  -0.000000
   109  H    0.093743   0.000000
   110  H    0.059419  -0.000000
   111  H    0.126681   0.000000
   112  H    0.118634   0.000000
   113  H    0.104404   0.000000
   114  H    0.094191   0.000000
   115  H    0.091329   0.000000
   116  H    0.096814  -0.000000
   117  H    0.089803  -0.000000
   118  H    0.093434   0.000000
   119  H    0.091148   0.000000
   120  H    0.058410  -0.000000
   121  H    0.123502   0.000000
   122  H    0.121589   0.000000
   123  H    0.104368  -0.000000
   124  H    0.094036  -0.000000
   125  H    0.092470  -0.000000
   126  H    0.094034  -0.000000
   127  H    0.098848   0.000000
   128  H    0.094409   0.000000
   129  H    0.090989  -0.000000
   130  H    0.059648  -0.000000
   131  H    0.105754  -0.000000
   132  H    0.112409   0.000000
   133  H    0.123055  -0.000000
   134  H    0.110965  -0.000000
   135  H    0.112465   0.000000
   136  H    0.104428  -0.000000
   137  H    0.223878  -0.000456
   138  H    0.224035  -0.001214
 Sum of Mulliken charges =  -1.00000   1.00000

 Dipole moment (field-independent basis, Debye):
    X=             31.1635    Y=             -1.3889    Z=              2.0972  Tot=             31.2649
 Quadrupole moment (field-independent basis, Debye-Ang):
   XX=           -611.5913   YY=           -449.9778   ZZ=           -410.5158
   XY=             -4.6238   XZ=            -12.5066   YZ=            -18.6090

 Normal termination of Gaussian 16 at Sun Dec  8 08:22:59 2019.
