 Gaussian 16, Revision A.03,

 ----------------------------------------------------------------------
 # wB97XD/Def2TZVP Geom=Checkpoint Guess=Read iop(3/107=0226600000,3/10
 8=0226600000)
 ----------------------------------------------------------------------

 ---------
 pheo-a-s0
 ---------
 Structure from the checkpoint file:  "pheo-a-s0-02266.chk"
 Charge =  0 Multiplicity = 1

 SCF Done:  E(RwB97XD) =  -2735.73755556     A.U. after   14 cycles
 Normal termination of Gaussian 16 at Sun Dec  8 10:32:31 2019.

 ----------------------------------------------------------------------
 # wB97XD/Def2TZVP Geom=Checkpoint iop(3/107=0226600000,3/108=022660000
 0)
 ----------------------------------------------------------------------

 ----------------
 pheo-a-s0-Cation
 ----------------
 Structure from the checkpoint file:  "/home/padawan/israel-mol/w-tuning/pheo-a/logs/Gau-6479.chk"
 Charge =  1 Multiplicity = 2

 SCF Done:  E(UwB97XD) =  -2735.50451876     A.U. after   31 cycles
 Normal termination of Gaussian 16 at Sun Dec  8 17:02:06 2019.
 Gaussian 16:  ES64L-G16RevA.03 25-Dec-2016

 ----------------------------------------------------------------------
 # wB97XD/Def2TZVP Geom=Checkpoint iop(3/107=0226600000,3/108=022660000
 0)
 ----------------------------------------------------------------------

 ---------------
 pheo-a-s0-Anion
 ---------------
 Structure from the checkpoint file:  "/home/padawan/israel-mol/w-tuning/pheo-a/logs/Gau-6804.chk"
 Charge = -1 Multiplicity = 2

                         Standard orientation:
 ---------------------------------------------------------------------
 Center     Atomic      Atomic             Coordinates (Angstroms)
 Number     Number       Type             X           Y           Z
 ---------------------------------------------------------------------
      1          6           0       -5.140457   -1.928461   -0.261709
      2          6           0       -3.548272    1.584282    2.527075
      3          6           0       -6.834760    4.526935    0.528386
      4          6           0       -8.694557    0.929350   -2.072345
      5          7           0       -4.517152   -0.000252    0.989230
      6          6           0       -4.344898   -1.315976    0.649227
      7          6           0       -3.213267   -1.961335    1.420041
      8          6           0       -2.855935   -0.868131    2.443060
      9          6           0       -3.682809    0.307536    1.956749
     10          6           0       -3.193363   -1.249116    3.883124
     11          6           0       -2.039453   -2.374341    0.530085
     12          6           0       -1.010192   -3.185814    1.298358
     13          6           0        0.188155   -3.567856    0.466633
     14          8           0        0.424773   -3.148049   -0.634183
     15          8           0        0.961097   -4.441409    1.120697
     16          7           0       -5.272442    2.816393    1.303409
     17          6           0       -4.261350    2.714047    2.204360
     18          6           0       -4.062904    4.035242    2.764085
     19          6           0       -4.949845    4.878353    2.171370
     20          6           0       -5.762655    4.097665    1.248624
     21          6           0       -3.017084    4.356469    3.774942
     22          6           0       -5.063462    6.316117    2.415024
     23          6           0       -5.253750    7.247556    1.487759
     24          7           0       -7.487332    2.492222   -0.647933
     25          6           0       -7.654127    3.776499   -0.354051
     26          6           0       -8.799402    4.348458   -1.048374
     27          6           0       -9.333288    3.340353   -1.781670
     28          6           0       -8.500796    2.175682   -1.525594
     29          6           0       -9.246092    5.768499   -0.944713
     30          6           0      -10.497745    3.387127   -2.717488
     31          6           0      -10.076728    3.621977   -4.169941
     32          7           0       -6.791543   -0.136275   -1.011033
     33          6           0       -7.901127   -0.200666   -1.836151
     34          6           0       -8.034875   -1.525974   -2.300608
     35          6           0       -6.974980   -2.227653   -1.721135
     36          6           0       -6.235997   -1.340324   -0.933304
     37          6           0       -9.104342   -2.064628   -3.185512
     38          6           0       -6.374834   -3.547999   -1.629601
     39          8           0       -6.707237   -4.592777   -2.125659
     40          6           0       -5.102358   -3.374202   -0.723280
     41          6           0       -5.123681   -4.383251    0.401148
     42          8           0       -5.874036   -4.353629    1.337084
     43          8           0       -4.189642   -5.324920    0.228263
     44          6           0       -4.159124   -6.351950    1.215155
     45          6           0        2.201526   -4.816866    0.486695
     46          6           0        3.291769   -3.856986    0.828487
     47          6           0        3.965744   -3.082188   -0.019806
     48          6           0        3.715115   -3.034660   -1.501122
     49          6           0        5.074596   -2.196321    0.480953
     50          6           0        6.447046   -2.561080   -0.089206
     51          6           0        7.555563   -1.673595    0.463646
     52          6           0        8.935998   -1.886584   -0.163782
     53          6           0        9.455187   -3.302325    0.075936
     54          6           0        9.910062   -0.825118    0.355336
     55          6           0       11.278181   -0.811359   -0.316998
     56          6           0       12.148753    0.346393    0.158175
     57          6           0       13.494017    0.491236   -0.558809
     58          6           0       14.393057   -0.722138   -0.333212
     59          6           0       14.175840    1.791971   -0.125797
     60          6           0       15.456079    2.139006   -0.877352
     61          6           0       15.984600    3.522824   -0.517092
     62          6           0       17.347535    3.874531   -1.117107
     63          6           0       17.325703    3.873467   -2.643450
     64          6           0       17.828740    5.223425   -0.590225
     65          1           0       -2.794080    1.699662    3.294331
     66          1           0       -7.103300    5.564938    0.666216
     67          1           0       -9.537749    0.797980   -2.738896
     68          1           0       -3.590148   -2.849333    1.937205
     69          1           0       -1.794107   -0.610794    2.385328
     70          1           0       -2.602729   -2.112148    4.196558
     71          1           0       -2.987878   -0.428819    4.572507
     72          1           0       -4.249835   -1.509978    3.971331
     73          1           0       -2.395572   -2.969694   -0.310617
     74          1           0       -1.573526   -1.485559    0.099090
     75          1           0       -0.632710   -2.636164    2.166325
     76          1           0       -1.455221   -4.101478    1.695896
     77          1           0       -2.018596    4.153943    3.380773
     78          1           0       -3.052561    5.405657    4.062861
     79          1           0       -3.142103    3.750977    4.675465
     80          1           0       -4.950016    6.629500    3.448456
     81          1           0       -5.330738    7.001950    0.435822
     82          1           0       -5.314319    8.293896    1.757509
     83          1           0       -8.473030    6.455645   -1.298486
     84          1           0      -10.140333    5.946749   -1.541393
     85          1           0       -9.475538    6.041922    0.088098
     86          1           0      -11.066316    2.456175   -2.648641
     87          1           0      -11.183046    4.178555   -2.406780
     88          1           0       -9.547943    4.571590   -4.267540
     89          1           0       -9.404302    2.833695   -4.512842
     90          1           0      -10.944733    3.643438   -4.831186
     91          1           0       -9.557189   -1.283800   -3.796552
     92          1           0       -8.701985   -2.834088   -3.843669
     93          1           0       -9.895016   -2.529366   -2.591644
     94          1           0       -4.241767   -3.580551   -1.361834
     95          1           0       -3.350568   -7.017328    0.924907
     96          1           0       -3.971077   -5.929241    2.202743
     97          1           0       -5.106789   -6.889195    1.235387
     98          1           0        2.416148   -5.803471    0.897349
     99          1           0        2.042745   -4.908415   -0.585279
    100          1           0        3.544939   -3.813235    1.884224
    101          1           0        2.696863   -3.320181   -1.756495
    102          1           0        3.882591   -2.022738   -1.876167
    103          1           0        4.408737   -3.690178   -2.034449
    104          1           0        4.846387   -1.158597    0.210636
    105          1           0        5.117234   -2.237923    1.572340
    106          1           0        6.648175   -3.611195    0.138343
    107          1           0        6.429249   -2.475935   -1.180337
    108          1           0        7.266852   -0.626687    0.320117
    109          1           0        7.631603   -1.821506    1.547858
    110          1           0        8.833786   -1.741357   -1.247028
    111          1           0        8.773513   -4.054358   -0.322590
    112          1           0       10.423379   -3.461740   -0.399401
    113          1           0        9.572372   -3.489419    1.147733
    114          1           0        9.448847    0.160148    0.227542
    115          1           0       10.039735   -0.960902    1.436165
    116          1           0       11.789660   -1.757163   -0.127563
    117          1           0       11.146524   -0.742286   -1.403242
    118          1           0       11.587520    1.278696    0.033070
    119          1           0       12.329902    0.244305    1.235318
    120          1           0       13.289871    0.566629   -1.634791
    121          1           0       13.917863   -1.644307   -0.669106
    122          1           0       15.335479   -0.630265   -0.873956
    123          1           0       14.625607   -0.832161    0.730459
    124          1           0       13.464392    2.615094   -0.253840
    125          1           0       14.388993    1.740774    0.949018
    126          1           0       16.232633    1.398603   -0.662672
    127          1           0       15.261838    2.079985   -1.952810
    128          1           0       15.255283    4.281826   -0.826241
    129          1           0       16.055108    3.597567    0.573667
    130          1           0       18.061480    3.109637   -0.788849
    131          1           0       16.583288    4.585495   -3.016409
    132          1           0       18.297641    4.164453   -3.047083
    133          1           0       17.080587    2.890862   -3.048512
    134          1           0       17.877827    5.229191    0.500704
    135          1           0       18.821338    5.467866   -0.973991
    136          1           0       17.147117    6.021746   -0.897832
    137          1           0       -5.666960    2.034297    0.806913
    138          1           0       -6.510218    0.731143   -0.574872
 ---------------------------------------------------------------------

 SCF Done:  E(UwB97XD) =  -2735.80028848     A.U. after   29 cycles

 Alpha virt. eigenvalues --    2.08324   2.08486   2.08692   2.08797   2.08887
 Alpha virt. eigenvalues --    2.09157   2.09321   2.09341   2.09716   2.10070
 Alpha virt. eigenvalues --    2.10218   2.10460   2.10765   2.11660   2.11895

  Beta  occ. eigenvalues --  -19.24508 -19.22921 -19.18122 -19.15667 -19.13016
  Beta  occ. eigenvalues --  -14.36842 -14.36793 -14.31018 -14.29232 -10.35982
  Beta  occ. eigenvalues --  -10.33698 -10.29869 -10.27801 -10.27549 -10.26994
  Beta  occ. eigenvalues --  -10.26460 -10.25967 -10.25931 -10.25808 -10.25771
  Beta  occ. eigenvalues --  -10.25587 -10.25436 -10.25394 -10.25347 -10.25281
  Beta  occ. eigenvalues --  -10.25070 -10.25010 -10.24874 -10.24809 -10.24805
  Beta  occ. eigenvalues --  -10.24453 -10.23818 -10.23662 -10.23496 -10.22850
  Beta  occ. eigenvalues --  -10.22829 -10.22628 -10.22400 -10.22321 -10.21947
  Beta  occ. eigenvalues --  -10.21943 -10.21909 -10.21510 -10.21465 -10.21435
  Beta  occ. eigenvalues --  -10.20965 -10.20852 -10.20654 -10.20567 -10.20487
  Beta  occ. eigenvalues --  -10.20315 -10.20309 -10.20258 -10.19759 -10.19396
  Beta  occ. eigenvalues --  -10.19339 -10.19287 -10.19129 -10.19015 -10.18777
  Beta  occ. eigenvalues --  -10.18341 -10.17985 -10.17177 -10.16980  -1.16306
  Beta  occ. eigenvalues --   -1.14570  -1.07138  -1.05007  -1.04487  -0.99609
  Beta  occ. eigenvalues --   -0.98916  -0.95695  -0.94507  -0.91452  -0.90600
  Beta  occ. eigenvalues --   -0.89679  -0.88674  -0.85897  -0.85513  -0.84908
  Beta  occ. eigenvalues --   -0.83585  -0.83291  -0.82298  -0.81566  -0.81351
  Beta  occ. eigenvalues --   -0.80692  -0.80371  -0.79883  -0.79018  -0.78101
  Beta  occ. eigenvalues --   -0.77844  -0.76893  -0.76811  -0.75961  -0.75399
  Beta  occ. eigenvalues --   -0.75332  -0.74813  -0.74119  -0.73126  -0.72091
  Beta  occ. eigenvalues --   -0.71704  -0.71100  -0.70585  -0.69697  -0.68884
  Beta  occ. eigenvalues --   -0.66989  -0.65889  -0.65376  -0.64923  -0.64475
  Beta  occ. eigenvalues --   -0.63916  -0.63757  -0.63360  -0.62893  -0.62468
  Beta  occ. eigenvalues --   -0.62162  -0.60214  -0.58933  -0.58559  -0.58230
  Beta  occ. eigenvalues --   -0.57591  -0.56395  -0.55633  -0.55414  -0.55143
  Beta  occ. eigenvalues --   -0.54638  -0.54373  -0.54061  -0.53917  -0.53388
  Beta  occ. eigenvalues --   -0.52915  -0.52626  -0.52008  -0.51799  -0.51584
  Beta  occ. eigenvalues --   -0.51510  -0.51423  -0.51156  -0.50842  -0.50413
  Beta  occ. eigenvalues --   -0.50146  -0.49932  -0.49614  -0.49256  -0.49075
  Beta  occ. eigenvalues --   -0.48704  -0.48412  -0.47839  -0.47424  -0.47183
  Beta  occ. eigenvalues --   -0.46916  -0.46192  -0.45896  -0.45733  -0.45686
  Beta  occ. eigenvalues --   -0.45305  -0.45234  -0.44892  -0.44726  -0.44411
  Beta  occ. eigenvalues --   -0.44286  -0.44069  -0.43912  -0.43731  -0.43616
  Beta  occ. eigenvalues --   -0.43516  -0.42967  -0.42819  -0.42804  -0.42470
  Beta  occ. eigenvalues --   -0.42270  -0.42117  -0.41976  -0.41771  -0.41631
  Beta  occ. eigenvalues --   -0.41536  -0.41494  -0.41172  -0.40903  -0.40731
  Beta  occ. eigenvalues --   -0.40495  -0.40364  -0.40199  -0.40079  -0.39804
  Beta  occ. eigenvalues --   -0.39749  -0.39388  -0.39099  -0.39063  -0.38856
  Beta  occ. eigenvalues --   -0.38592  -0.38407  -0.38352  -0.38255  -0.38116
  Beta  occ. eigenvalues --   -0.38047  -0.37841  -0.37637  -0.37482  -0.37419
  Beta  occ. eigenvalues --   -0.37353  -0.37160  -0.37070  -0.36919  -0.36714
  Beta  occ. eigenvalues --   -0.36477  -0.36401  -0.36337  -0.36012  -0.35398
  Beta  occ. eigenvalues --   -0.35103  -0.34663  -0.34524  -0.33943  -0.33707
  Beta  occ. eigenvalues --   -0.33624  -0.33446  -0.32914  -0.32639  -0.32106
  Beta  occ. eigenvalues --   -0.31805  -0.30919  -0.30012  -0.29185  -0.28434
  Beta  occ. eigenvalues --   -0.28385  -0.24792  -0.24715  -0.24206  -0.23664
  Beta  occ. eigenvalues --   -0.23093  -0.22483  -0.21884  -0.20234  -0.14159
  Beta  occ. eigenvalues --   -0.13696
  Beta virt. eigenvalues --    0.08099   0.09825   0.12736   0.13120   0.13876
  Beta virt. eigenvalues --    0.14459   0.14905   0.15203   0.15379   0.15441
  Beta virt. eigenvalues --    0.16052   0.16239   0.16374   0.16554   0.16999

 Mulliken charges and spin densities:
               1          2
     1  C   -0.235611   0.068214
     2  C   -0.617635   0.094541
     3  C   -0.493509   0.067891
     4  C   -0.414592   0.330550
     5  N   -0.402336   0.109937
     6  C    0.282371  -0.030130
     7  C    0.031204  -0.000515
     8  C    0.088740   0.004745
     9  C    0.256028   0.000708
    10  C   -0.396841  -0.000213
    11  C   -0.312068   0.000141
    12  C   -0.231672  -0.000455
    13  C    0.394027   0.000008
    14  O   -0.386561   0.000010
    15  O   -0.279608  -0.000004
    16  N   -0.177754  -0.057917
    17  C    0.276601   0.075587
    18  C   -0.125898   0.090115
    19  C    0.085796   0.062806
    20  C    0.186232   0.058903
    21  C   -0.364489  -0.006511
    22  C   -0.213767  -0.020277
    23  C   -0.317904   0.034669
    24  N   -0.487948   0.151713
    25  C    0.289601  -0.018777
    26  C    0.008273  -0.069812
    27  C   -0.091133   0.039698
    28  C    0.355896  -0.156062
    29  C   -0.386189   0.006213
    30  C   -0.278039  -0.003078
    31  C   -0.327716   0.001625
    32  N   -0.159535   0.007416
    33  C    0.291862  -0.097151
    34  C   -0.189799   0.186411
    35  C   -0.018891   0.004780
    36  C    0.017080   0.013357
    37  C   -0.379175  -0.010647
    38  C    0.105041   0.011586
    39  O   -0.367199   0.037039
    40  C    0.100724  -0.000890
    41  C    0.271166   0.002075
    42  O   -0.350582   0.001154
    43  O   -0.265618  -0.000129
    44  C   -0.211005   0.000024
    45  C   -0.039849  -0.000002
    46  C   -0.251107  -0.000003
    47  C    0.134815   0.000001
    48  C   -0.413389  -0.000000
    49  C   -0.220497   0.000000
    50  C   -0.246772   0.000000
    51  C   -0.205413   0.000000
    52  C    0.055509   0.000000
    53  C   -0.413002  -0.000000
    54  C   -0.210250  -0.000000
    55  C   -0.225432   0.000000
    56  C   -0.209881   0.000000
    57  C    0.059609  -0.000000
    58  C   -0.412856   0.000000
    59  C   -0.208567   0.000000
    60  C   -0.230502  -0.000000
    61  C   -0.207805   0.000000
    62  C    0.016002  -0.000000
    63  C   -0.381965   0.000000
    64  C   -0.346003  -0.000000
    65  H    0.103002  -0.003221
    66  H    0.153189  -0.001792
    67  H    0.100906  -0.010007
    68  H    0.095829  -0.000624
    69  H    0.066117   0.000045
    70  H    0.097563   0.001634
    71  H    0.111950   0.000832
    72  H    0.141597  -0.000126
    73  H    0.126104  -0.000177
    74  H    0.136932   0.000120
    75  H    0.128649   0.000331
    76  H    0.127069  -0.000012
    77  H    0.124266   0.005829
    78  H    0.101301  -0.000143
    79  H    0.121484   0.003867
    80  H    0.107113   0.002916
    81  H    0.148007  -0.001027
    82  H    0.102656  -0.000628
    83  H    0.126078  -0.003447
    84  H    0.101214  -0.000076
    85  H    0.127860  -0.002738
    86  H    0.104535   0.002292
    87  H    0.093260   0.000336
    88  H    0.106646   0.000166
    89  H    0.126798  -0.000064
    90  H    0.091608  -0.000196
    91  H    0.102396   0.002350
    92  H    0.135373   0.003774
    93  H    0.120631   0.010801
    94  H    0.094236   0.001080
    95  H    0.122558   0.000010
    96  H    0.126323  -0.000024
    97  H    0.139455   0.000009
    98  H    0.106022  -0.000000
    99  H    0.133428  -0.000000
   100  H    0.110330   0.000000
   101  H    0.166969   0.000000
   102  H    0.122915   0.000000
   103  H    0.128881  -0.000000
   104  H    0.121494  -0.000000
   105  H    0.102612   0.000000
   106  H    0.108553  -0.000000
   107  H    0.106146   0.000000
   108  H    0.098523  -0.000000
   109  H    0.097372   0.000000
   110  H    0.064508   0.000000
   111  H    0.128374   0.000000
   112  H    0.120331   0.000000
   113  H    0.106674   0.000000
   114  H    0.097935   0.000000
   115  H    0.094913   0.000000
   116  H    0.097149  -0.000000
   117  H    0.093701  -0.000000
   118  H    0.097203  -0.000000
   119  H    0.094749  -0.000000
   120  H    0.063457  -0.000000
   121  H    0.125175   0.000000
   122  H    0.123230  -0.000000
   123  H    0.106641   0.000000
   124  H    0.097847  -0.000000
   125  H    0.095867  -0.000000
   126  H    0.096172   0.000000
   127  H    0.100967   0.000000
   128  H    0.097510   0.000000
   129  H    0.094342  -0.000000
   130  H    0.063518   0.000000
   131  H    0.107820  -0.000000
   132  H    0.114683  -0.000000
   133  H    0.124066  -0.000000
   134  H    0.112981   0.000000
   135  H    0.114515  -0.000000
   136  H    0.106474   0.000000
   137  H    0.221674  -0.000137
   138  H    0.221364  -0.001297
 Sum of Mulliken charges =  -1.00000   1.00000

 Dipole moment (field-independent basis, Debye):
    X=             31.1619    Y=             -1.3527    Z=              2.0958  Tot=             31.2615
 Quadrupole moment (field-independent basis, Debye-Ang):
   XX=           -612.1019   YY=           -450.3175   ZZ=           -411.5407
   XY=             -5.2149   XZ=            -12.3643   YZ=            -18.7590

 Normal termination of Gaussian 16 at Sun Dec  8 22:57:34 2019.
