 Gaussian 16, Revision A.03,

 ----------------------------------------------------------------------
 # wB97XD/Def2TZVP Geom=Checkpoint Guess=Read iop(3/107=0300000000,3/10
 8=0300000000)
 ----------------------------------------------------------------------

 ---------
 pheo-a-s0
 ---------
 Structure from the checkpoint file:  "pheo-a-s0-03000.chk"
 Charge =  0 Multiplicity = 1

 SCF Done:  E(RwB97XD) =  -2735.81726809     A.U. after   17 cycles
 Normal termination of Gaussian 16 at Thu Dec  5 08:24:59 2019.

 ----------------------------------------------------------------------
 # wB97XD/Def2TZVP Geom=Checkpoint iop(3/107=0300000000,3/108=030000000
 0)
 ----------------------------------------------------------------------

 ----------------
 pheo-a-s0-Cation
 ----------------
 Structure from the checkpoint file:  "/home/padawan/israel-mol/w-tuning/pheo-a/logs/Gau-15227.chk"
 Charge =  1 Multiplicity = 2

 SCF Done:  E(UwB97XD) =  -2735.58348271     A.U. after   33 cycles
 Normal termination of Gaussian 16 at Thu Dec  5 15:21:55 2019.
 Gaussian 16:  ES64L-G16RevA.03 25-Dec-2016

 ----------------------------------------------------------------------
 # wB97XD/Def2TZVP Geom=Checkpoint iop(3/107=0300000000,3/108=030000000
 0)
 ----------------------------------------------------------------------

 ---------------
 pheo-a-s0-Anion
 ---------------
 Structure from the checkpoint file:  "/home/padawan/israel-mol/w-tuning/pheo-a/logs/Gau-15850.chk"
 Charge = -1 Multiplicity = 2

                         Standard orientation:
 ---------------------------------------------------------------------
 Center     Atomic      Atomic             Coordinates (Angstroms)
 Number     Number       Type             X           Y           Z
 ---------------------------------------------------------------------
      1          6           0       -5.140457   -1.928461   -0.261709
      2          6           0       -3.548272    1.584282    2.527075
      3          6           0       -6.834760    4.526935    0.528386
      4          6           0       -8.694557    0.929350   -2.072345
      5          7           0       -4.517152   -0.000252    0.989230
      6          6           0       -4.344898   -1.315976    0.649227
      7          6           0       -3.213267   -1.961335    1.420041
      8          6           0       -2.855935   -0.868131    2.443060
      9          6           0       -3.682809    0.307536    1.956749
     10          6           0       -3.193363   -1.249116    3.883124
     11          6           0       -2.039453   -2.374341    0.530085
     12          6           0       -1.010192   -3.185814    1.298358
     13          6           0        0.188155   -3.567856    0.466633
     14          8           0        0.424773   -3.148049   -0.634183
     15          8           0        0.961097   -4.441409    1.120697
     16          7           0       -5.272442    2.816393    1.303409
     17          6           0       -4.261350    2.714047    2.204360
     18          6           0       -4.062904    4.035242    2.764085
     19          6           0       -4.949845    4.878353    2.171370
     20          6           0       -5.762655    4.097665    1.248624
     21          6           0       -3.017084    4.356469    3.774942
     22          6           0       -5.063462    6.316117    2.415024
     23          6           0       -5.253750    7.247556    1.487759
     24          7           0       -7.487332    2.492222   -0.647933
     25          6           0       -7.654127    3.776499   -0.354051
     26          6           0       -8.799402    4.348458   -1.048374
     27          6           0       -9.333288    3.340353   -1.781670
     28          6           0       -8.500796    2.175682   -1.525594
     29          6           0       -9.246092    5.768499   -0.944713
     30          6           0      -10.497745    3.387127   -2.717488
     31          6           0      -10.076728    3.621977   -4.169941
     32          7           0       -6.791543   -0.136275   -1.011033
     33          6           0       -7.901127   -0.200666   -1.836151
     34          6           0       -8.034875   -1.525974   -2.300608
     35          6           0       -6.974980   -2.227653   -1.721135
     36          6           0       -6.235997   -1.340324   -0.933304
     37          6           0       -9.104342   -2.064628   -3.185512
     38          6           0       -6.374834   -3.547999   -1.629601
     39          8           0       -6.707237   -4.592777   -2.125659
     40          6           0       -5.102358   -3.374202   -0.723280
     41          6           0       -5.123681   -4.383251    0.401148
     42          8           0       -5.874036   -4.353629    1.337084
     43          8           0       -4.189642   -5.324920    0.228263
     44          6           0       -4.159124   -6.351950    1.215155
     45          6           0        2.201526   -4.816866    0.486695
     46          6           0        3.291769   -3.856986    0.828487
     47          6           0        3.965744   -3.082188   -0.019806
     48          6           0        3.715115   -3.034660   -1.501122
     49          6           0        5.074596   -2.196321    0.480953
     50          6           0        6.447046   -2.561080   -0.089206
     51          6           0        7.555563   -1.673595    0.463646
     52          6           0        8.935998   -1.886584   -0.163782
     53          6           0        9.455187   -3.302325    0.075936
     54          6           0        9.910062   -0.825118    0.355336
     55          6           0       11.278181   -0.811359   -0.316998
     56          6           0       12.148753    0.346393    0.158175
     57          6           0       13.494017    0.491236   -0.558809
     58          6           0       14.393057   -0.722138   -0.333212
     59          6           0       14.175840    1.791971   -0.125797
     60          6           0       15.456079    2.139006   -0.877352
     61          6           0       15.984600    3.522824   -0.517092
     62          6           0       17.347535    3.874531   -1.117107
     63          6           0       17.325703    3.873467   -2.643450
     64          6           0       17.828740    5.223425   -0.590225
     65          1           0       -2.794080    1.699662    3.294331
     66          1           0       -7.103300    5.564938    0.666216
     67          1           0       -9.537749    0.797980   -2.738896
     68          1           0       -3.590148   -2.849333    1.937205
     69          1           0       -1.794107   -0.610794    2.385328
     70          1           0       -2.602729   -2.112148    4.196558
     71          1           0       -2.987878   -0.428819    4.572507
     72          1           0       -4.249835   -1.509978    3.971331
     73          1           0       -2.395572   -2.969694   -0.310617
     74          1           0       -1.573526   -1.485559    0.099090
     75          1           0       -0.632710   -2.636164    2.166325
     76          1           0       -1.455221   -4.101478    1.695896
     77          1           0       -2.018596    4.153943    3.380773
     78          1           0       -3.052561    5.405657    4.062861
     79          1           0       -3.142103    3.750977    4.675465
     80          1           0       -4.950016    6.629500    3.448456
     81          1           0       -5.330738    7.001950    0.435822
     82          1           0       -5.314319    8.293896    1.757509
     83          1           0       -8.473030    6.455645   -1.298486
     84          1           0      -10.140333    5.946749   -1.541393
     85          1           0       -9.475538    6.041922    0.088098
     86          1           0      -11.066316    2.456175   -2.648641
     87          1           0      -11.183046    4.178555   -2.406780
     88          1           0       -9.547943    4.571590   -4.267540
     89          1           0       -9.404302    2.833695   -4.512842
     90          1           0      -10.944733    3.643438   -4.831186
     91          1           0       -9.557189   -1.283800   -3.796552
     92          1           0       -8.701985   -2.834088   -3.843669
     93          1           0       -9.895016   -2.529366   -2.591644
     94          1           0       -4.241767   -3.580551   -1.361834
     95          1           0       -3.350568   -7.017328    0.924907
     96          1           0       -3.971077   -5.929241    2.202743
     97          1           0       -5.106789   -6.889195    1.235387
     98          1           0        2.416148   -5.803471    0.897349
     99          1           0        2.042745   -4.908415   -0.585279
    100          1           0        3.544939   -3.813235    1.884224
    101          1           0        2.696863   -3.320181   -1.756495
    102          1           0        3.882591   -2.022738   -1.876167
    103          1           0        4.408737   -3.690178   -2.034449
    104          1           0        4.846387   -1.158597    0.210636
    105          1           0        5.117234   -2.237923    1.572340
    106          1           0        6.648175   -3.611195    0.138343
    107          1           0        6.429249   -2.475935   -1.180337
    108          1           0        7.266852   -0.626687    0.320117
    109          1           0        7.631603   -1.821506    1.547858
    110          1           0        8.833786   -1.741357   -1.247028
    111          1           0        8.773513   -4.054358   -0.322590
    112          1           0       10.423379   -3.461740   -0.399401
    113          1           0        9.572372   -3.489419    1.147733
    114          1           0        9.448847    0.160148    0.227542
    115          1           0       10.039735   -0.960902    1.436165
    116          1           0       11.789660   -1.757163   -0.127563
    117          1           0       11.146524   -0.742286   -1.403242
    118          1           0       11.587520    1.278696    0.033070
    119          1           0       12.329902    0.244305    1.235318
    120          1           0       13.289871    0.566629   -1.634791
    121          1           0       13.917863   -1.644307   -0.669106
    122          1           0       15.335479   -0.630265   -0.873956
    123          1           0       14.625607   -0.832161    0.730459
    124          1           0       13.464392    2.615094   -0.253840
    125          1           0       14.388993    1.740774    0.949018
    126          1           0       16.232633    1.398603   -0.662672
    127          1           0       15.261838    2.079985   -1.952810
    128          1           0       15.255283    4.281826   -0.826241
    129          1           0       16.055108    3.597567    0.573667
    130          1           0       18.061480    3.109637   -0.788849
    131          1           0       16.583288    4.585495   -3.016409
    132          1           0       18.297641    4.164453   -3.047083
    133          1           0       17.080587    2.890862   -3.048512
    134          1           0       17.877827    5.229191    0.500704
    135          1           0       18.821338    5.467866   -0.973991
    136          1           0       17.147117    6.021746   -0.897832
    137          1           0       -5.666960    2.034297    0.806913
    138          1           0       -6.510218    0.731143   -0.574872
 ---------------------------------------------------------------------

 SCF Done:  E(UwB97XD) =  -2735.88397057     A.U. after   30 cycles

 Alpha virt. eigenvalues --    2.10541   2.10770   2.10935   2.11033   2.11119
 Alpha virt. eigenvalues --    2.11376   2.11590   2.11639   2.11929   2.12281
 Alpha virt. eigenvalues --    2.12409   2.12659   2.12949   2.13892   2.14095

  Beta  occ. eigenvalues --  -19.27496 -19.25926 -19.21129 -19.18697 -19.16022
  Beta  occ. eigenvalues --  -14.39799 -14.39716 -14.33831 -14.32133 -10.39427
  Beta  occ. eigenvalues --  -10.37157 -10.33067 -10.31218 -10.30759 -10.30077
  Beta  occ. eigenvalues --  -10.29540 -10.29114 -10.29013 -10.28892 -10.28854
  Beta  occ. eigenvalues --  -10.28671 -10.28529 -10.28485 -10.28430 -10.28363
  Beta  occ. eigenvalues --  -10.28154 -10.28097 -10.27964 -10.27903 -10.27894
  Beta  occ. eigenvalues --  -10.27542 -10.26914 -10.26830 -10.26589 -10.26128
  Beta  occ. eigenvalues --  -10.26064 -10.25882 -10.25606 -10.25439 -10.25115
  Beta  occ. eigenvalues --  -10.25074 -10.25004 -10.24647 -10.24604 -10.24575
  Beta  occ. eigenvalues --  -10.24088 -10.24013 -10.23827 -10.23647 -10.23617
  Beta  occ. eigenvalues --  -10.23467 -10.23433 -10.23384 -10.22861 -10.22477
  Beta  occ. eigenvalues --  -10.22406 -10.22369 -10.22282 -10.22007 -10.21909
  Beta  occ. eigenvalues --  -10.21488 -10.20991 -10.20136 -10.19856  -1.19752
  Beta  occ. eigenvalues --   -1.18028  -1.10414  -1.08317  -1.07828  -1.02985
  Beta  occ. eigenvalues --   -1.02289  -0.99103  -0.97923  -0.94899  -0.94037
  Beta  occ. eigenvalues --   -0.93091  -0.92066  -0.89272  -0.88859  -0.88253
  Beta  occ. eigenvalues --   -0.86923  -0.86559  -0.85652  -0.84796  -0.84623
  Beta  occ. eigenvalues --   -0.83944  -0.83605  -0.83151  -0.82221  -0.81287
  Beta  occ. eigenvalues --   -0.81036  -0.80084  -0.79907  -0.79037  -0.78487
  Beta  occ. eigenvalues --   -0.78442  -0.77879  -0.77210  -0.76188  -0.75124
  Beta  occ. eigenvalues --   -0.74725  -0.74145  -0.73615  -0.72614  -0.71865
  Beta  occ. eigenvalues --   -0.69837  -0.68758  -0.68243  -0.67815  -0.67273
  Beta  occ. eigenvalues --   -0.66676  -0.66617  -0.66110  -0.65696  -0.65192
  Beta  occ. eigenvalues --   -0.64901  -0.62869  -0.61619  -0.61252  -0.60854
  Beta  occ. eigenvalues --   -0.60251  -0.58980  -0.58224  -0.57905  -0.57720
  Beta  occ. eigenvalues --   -0.57109  -0.56926  -0.56595  -0.56398  -0.55878
  Beta  occ. eigenvalues --   -0.55510  -0.55104  -0.54535  -0.54264  -0.54170
  Beta  occ. eigenvalues --   -0.54039  -0.53807  -0.53573  -0.53226  -0.52795
  Beta  occ. eigenvalues --   -0.52615  -0.52370  -0.52085  -0.51552  -0.51458
  Beta  occ. eigenvalues --   -0.51116  -0.50714  -0.50105  -0.49823  -0.49465
  Beta  occ. eigenvalues --   -0.49234  -0.48503  -0.48151  -0.48091  -0.47964
  Beta  occ. eigenvalues --   -0.47732  -0.47403  -0.47225  -0.47022  -0.46695
  Beta  occ. eigenvalues --   -0.46558  -0.46282  -0.46207  -0.45911  -0.45865
  Beta  occ. eigenvalues --   -0.45809  -0.45301  -0.45108  -0.44914  -0.44647
  Beta  occ. eigenvalues --   -0.44382  -0.44334  -0.44190  -0.43952  -0.43836
  Beta  occ. eigenvalues --   -0.43698  -0.43662  -0.43292  -0.43091  -0.42831
  Beta  occ. eigenvalues --   -0.42620  -0.42579  -0.42408  -0.42141  -0.41967
  Beta  occ. eigenvalues --   -0.41915  -0.41593  -0.41241  -0.41110  -0.40925
  Beta  occ. eigenvalues --   -0.40779  -0.40483  -0.40409  -0.40306  -0.40180
  Beta  occ. eigenvalues --   -0.40073  -0.39793  -0.39700  -0.39525  -0.39449
  Beta  occ. eigenvalues --   -0.39354  -0.39142  -0.39109  -0.38886  -0.38843
  Beta  occ. eigenvalues --   -0.38599  -0.38450  -0.38320  -0.38160  -0.37446
  Beta  occ. eigenvalues --   -0.37132  -0.36610  -0.36518  -0.35967  -0.35713
  Beta  occ. eigenvalues --   -0.35625  -0.35433  -0.34921  -0.34663  -0.34125
  Beta  occ. eigenvalues --   -0.33852  -0.33093  -0.31854  -0.31091  -0.30488
  Beta  occ. eigenvalues --   -0.30087  -0.26698  -0.26218  -0.26157  -0.25407
  Beta  occ. eigenvalues --   -0.24914  -0.23966  -0.23388  -0.21713  -0.15211
  Beta  occ. eigenvalues --   -0.14692
  Beta virt. eigenvalues --    0.08683   0.10316   0.13302   0.13601   0.14105
  Beta virt. eigenvalues --    0.15135   0.15252   0.15385   0.15584   0.16327
  Beta virt. eigenvalues --    0.16546   0.16582   0.16749   0.16853   0.17291

 Mulliken charges and spin densities:
               1          2
     1  C   -0.236370   0.066251
     2  C   -0.606951   0.087019
     3  C   -0.475515   0.067334
     4  C   -0.392550   0.366836
     5  N   -0.396618   0.110712
     6  C    0.272053  -0.027945
     7  C    0.029470  -0.000512
     8  C    0.079205   0.005415
     9  C    0.251164   0.005873
    10  C   -0.404594  -0.000133
    11  C   -0.313114   0.000071
    12  C   -0.241521  -0.000447
    13  C    0.388960  -0.000004
    14  O   -0.385452   0.000012
    15  O   -0.280561  -0.000004
    16  N   -0.180247  -0.069459
    17  C    0.269326   0.088401
    18  C   -0.122061   0.091285
    19  C    0.083461   0.068917
    20  C    0.170738   0.060235
    21  C   -0.376947  -0.006982
    22  C   -0.212881  -0.024710
    23  C   -0.318595   0.037058
    24  N   -0.481700   0.169026
    25  C    0.280627  -0.029371
    26  C    0.011329  -0.086322
    27  C   -0.089612   0.048701
    28  C    0.342289  -0.189012
    29  C   -0.396646   0.007955
    30  C   -0.286641  -0.003919
    31  C   -0.334948   0.001766
    32  N   -0.160201   0.010539
    33  C    0.280460  -0.118564
    34  C   -0.183704   0.201551
    35  C   -0.026944   0.000363
    36  C    0.018155   0.017369
    37  C   -0.384470  -0.012235
    38  C    0.096520   0.008463
    39  O   -0.362662   0.034462
    40  C    0.101062  -0.000982
    41  C    0.264881   0.002222
    42  O   -0.347909   0.001036
    43  O   -0.266198  -0.000112
    44  C   -0.214899   0.000026
    45  C   -0.053593  -0.000002
    46  C   -0.247223  -0.000002
    47  C    0.137731   0.000001
    48  C   -0.424088  -0.000000
    49  C   -0.234044   0.000000
    50  C   -0.246602   0.000000
    51  C   -0.221037   0.000000
    52  C    0.056880   0.000000
    53  C   -0.422630  -0.000000
    54  C   -0.223471  -0.000000
    55  C   -0.228308   0.000000
    56  C   -0.223135  -0.000000
    57  C    0.060448   0.000000
    58  C   -0.422336  -0.000000
    59  C   -0.221684   0.000000
    60  C   -0.233562  -0.000000
    61  C   -0.217005  -0.000000
    62  C    0.017325   0.000000
    63  C   -0.390392  -0.000000
    64  C   -0.356905  -0.000000
    65  H    0.104117  -0.002807
    66  H    0.152142  -0.001612
    67  H    0.104606  -0.010352
    68  H    0.099277  -0.000462
    69  H    0.074181   0.000257
    70  H    0.099825   0.001713
    71  H    0.114521   0.000890
    72  H    0.143694  -0.000115
    73  H    0.127076  -0.000157
    74  H    0.142463   0.000125
    75  H    0.133305   0.000335
    76  H    0.130722  -0.000003
    77  H    0.127273   0.005677
    78  H    0.103093  -0.000152
    79  H    0.124015   0.003772
    80  H    0.110527   0.003072
    81  H    0.148987  -0.000956
    82  H    0.104732  -0.000622
    83  H    0.128930  -0.004207
    84  H    0.103605  -0.000090
    85  H    0.130680  -0.003480
    86  H    0.108379   0.002430
    87  H    0.097608   0.000426
    88  H    0.108351   0.000210
    89  H    0.128058  -0.000089
    90  H    0.094398  -0.000180
    91  H    0.103744   0.002504
    92  H    0.137038   0.004031
    93  H    0.123382   0.011335
    94  H    0.102122   0.001383
    95  H    0.125047   0.000009
    96  H    0.128210  -0.000023
    97  H    0.141274   0.000008
    98  H    0.111159  -0.000000
    99  H    0.138543  -0.000000
   100  H    0.115624   0.000000
   101  H    0.167760   0.000000
   102  H    0.125585  -0.000000
   103  H    0.131127  -0.000000
   104  H    0.125765  -0.000000
   105  H    0.107399   0.000000
   106  H    0.111290  -0.000000
   107  H    0.109228   0.000000
   108  H    0.103696  -0.000000
   109  H    0.102159   0.000000
   110  H    0.071338   0.000000
   111  H    0.130351   0.000000
   112  H    0.122237   0.000000
   113  H    0.109479   0.000000
   114  H    0.102686   0.000000
   115  H    0.099640   0.000000
   116  H    0.098624  -0.000000
   117  H    0.098656  -0.000000
   118  H    0.101984   0.000000
   119  H    0.099496   0.000000
   120  H    0.070259  -0.000000
   121  H    0.127002   0.000000
   122  H    0.125177   0.000000
   123  H    0.109453   0.000000
   124  H    0.102658   0.000000
   125  H    0.100349   0.000000
   126  H    0.099257  -0.000000
   127  H    0.104006   0.000000
   128  H    0.101571   0.000000
   129  H    0.098384  -0.000000
   130  H    0.068305  -0.000000
   131  H    0.110236  -0.000000
   132  H    0.117147   0.000000
   133  H    0.124972   0.000000
   134  H    0.115050  -0.000000
   135  H    0.116552  -0.000000
   136  H    0.108890   0.000000
   137  H    0.223033   0.000304
   138  H    0.222936  -0.001357
 Sum of Mulliken charges =  -1.00000   1.00000

 Dipole moment (field-independent basis, Debye):
    X=             31.1878    Y=             -1.2954    Z=              2.1157  Tot=             31.2863
 Quadrupole moment (field-independent basis, Debye-Ang):
   XX=           -612.0821   YY=           -449.9936   ZZ=           -411.9133
   XY=             -6.1092   XZ=            -12.1184   YZ=            -19.0446

 Normal termination of Gaussian 16 at Thu Dec  5 21:40:08 2019.
