 Gaussian 16, Revision A.03,

 ----------------------------------------------------------------------
 # wB97XD/Def2TZVP Geom=Checkpoint Guess=Read iop(3/107=0104400000,3/10
 8=0104400000)
 ----------------------------------------------------------------------

 ---------
 pheo-a-s0
 ---------
 Structure from the checkpoint file:  "pheo-a-s0-01044.chk"
 Charge =  0 Multiplicity = 1

 SCF Done:  E(RwB97XD) =  -2736.07393858     A.U. after   14 cycles
 Normal termination of Gaussian 16 at Fri Dec  6 19:23:37 2019.

 ----------------------------------------------------------------------
 # wB97XD/Def2TZVP Geom=Checkpoint iop(3/107=0104400000,3/108=010440000
 0)
 ----------------------------------------------------------------------

 ----------------
 pheo-a-s0-Cation
 ----------------
 Structure from the checkpoint file:  "/home/padawan/israel-mol/w-tuning/pheo-a/logs/Gau-2155.chk"
 Charge =  1 Multiplicity = 2

 SCF Done:  E(UwB97XD) =  -2735.84557875     A.U. after   28 cycles
 Normal termination of Gaussian 16 at Sat Dec  7 01:19:47 2019.
 Gaussian 16:  ES64L-G16RevA.03 25-Dec-2016

 ----------------------------------------------------------------------
 # wB97XD/Def2TZVP Geom=Checkpoint iop(3/107=0104400000,3/108=010440000
 0)
 ----------------------------------------------------------------------

 ---------------
 pheo-a-s0-Anion
 ---------------
 Structure from the checkpoint file:  "/home/padawan/israel-mol/w-tuning/pheo-a/logs/Gau-2712.chk"
 Charge = -1 Multiplicity = 2

                         Standard orientation:
 ---------------------------------------------------------------------
 Center     Atomic      Atomic             Coordinates (Angstroms)
 Number     Number       Type             X           Y           Z
 ---------------------------------------------------------------------
      1          6           0       -5.140457   -1.928461   -0.261709
      2          6           0       -3.548272    1.584282    2.527075
      3          6           0       -6.834760    4.526935    0.528386
      4          6           0       -8.694557    0.929350   -2.072345
      5          7           0       -4.517152   -0.000252    0.989230
      6          6           0       -4.344898   -1.315976    0.649227
      7          6           0       -3.213267   -1.961335    1.420041
      8          6           0       -2.855935   -0.868131    2.443060
      9          6           0       -3.682809    0.307536    1.956749
     10          6           0       -3.193363   -1.249116    3.883124
     11          6           0       -2.039453   -2.374341    0.530085
     12          6           0       -1.010192   -3.185814    1.298358
     13          6           0        0.188155   -3.567856    0.466633
     14          8           0        0.424773   -3.148049   -0.634183
     15          8           0        0.961097   -4.441409    1.120697
     16          7           0       -5.272442    2.816393    1.303409
     17          6           0       -4.261350    2.714047    2.204360
     18          6           0       -4.062904    4.035242    2.764085
     19          6           0       -4.949845    4.878353    2.171370
     20          6           0       -5.762655    4.097665    1.248624
     21          6           0       -3.017084    4.356469    3.774942
     22          6           0       -5.063462    6.316117    2.415024
     23          6           0       -5.253750    7.247556    1.487759
     24          7           0       -7.487332    2.492222   -0.647933
     25          6           0       -7.654127    3.776499   -0.354051
     26          6           0       -8.799402    4.348458   -1.048374
     27          6           0       -9.333288    3.340353   -1.781670
     28          6           0       -8.500796    2.175682   -1.525594
     29          6           0       -9.246092    5.768499   -0.944713
     30          6           0      -10.497745    3.387127   -2.717488
     31          6           0      -10.076728    3.621977   -4.169941
     32          7           0       -6.791543   -0.136275   -1.011033
     33          6           0       -7.901127   -0.200666   -1.836151
     34          6           0       -8.034875   -1.525974   -2.300608
     35          6           0       -6.974980   -2.227653   -1.721135
     36          6           0       -6.235997   -1.340324   -0.933304
     37          6           0       -9.104342   -2.064628   -3.185512
     38          6           0       -6.374834   -3.547999   -1.629601
     39          8           0       -6.707237   -4.592777   -2.125659
     40          6           0       -5.102358   -3.374202   -0.723280
     41          6           0       -5.123681   -4.383251    0.401148
     42          8           0       -5.874036   -4.353629    1.337084
     43          8           0       -4.189642   -5.324920    0.228263
     44          6           0       -4.159124   -6.351950    1.215155
     45          6           0        2.201526   -4.816866    0.486695
     46          6           0        3.291769   -3.856986    0.828487
     47          6           0        3.965744   -3.082188   -0.019806
     48          6           0        3.715115   -3.034660   -1.501122
     49          6           0        5.074596   -2.196321    0.480953
     50          6           0        6.447046   -2.561080   -0.089206
     51          6           0        7.555563   -1.673595    0.463646
     52          6           0        8.935998   -1.886584   -0.163782
     53          6           0        9.455187   -3.302325    0.075936
     54          6           0        9.910062   -0.825118    0.355336
     55          6           0       11.278181   -0.811359   -0.316998
     56          6           0       12.148753    0.346393    0.158175
     57          6           0       13.494017    0.491236   -0.558809
     58          6           0       14.393057   -0.722138   -0.333212
     59          6           0       14.175840    1.791971   -0.125797
     60          6           0       15.456079    2.139006   -0.877352
     61          6           0       15.984600    3.522824   -0.517092
     62          6           0       17.347535    3.874531   -1.117107
     63          6           0       17.325703    3.873467   -2.643450
     64          6           0       17.828740    5.223425   -0.590225
     65          1           0       -2.794080    1.699662    3.294331
     66          1           0       -7.103300    5.564938    0.666216
     67          1           0       -9.537749    0.797980   -2.738896
     68          1           0       -3.590148   -2.849333    1.937205
     69          1           0       -1.794107   -0.610794    2.385328
     70          1           0       -2.602729   -2.112148    4.196558
     71          1           0       -2.987878   -0.428819    4.572507
     72          1           0       -4.249835   -1.509978    3.971331
     73          1           0       -2.395572   -2.969694   -0.310617
     74          1           0       -1.573526   -1.485559    0.099090
     75          1           0       -0.632710   -2.636164    2.166325
     76          1           0       -1.455221   -4.101478    1.695896
     77          1           0       -2.018596    4.153943    3.380773
     78          1           0       -3.052561    5.405657    4.062861
     79          1           0       -3.142103    3.750977    4.675465
     80          1           0       -4.950016    6.629500    3.448456
     81          1           0       -5.330738    7.001950    0.435822
     82          1           0       -5.314319    8.293896    1.757509
     83          1           0       -8.473030    6.455645   -1.298486
     84          1           0      -10.140333    5.946749   -1.541393
     85          1           0       -9.475538    6.041922    0.088098
     86          1           0      -11.066316    2.456175   -2.648641
     87          1           0      -11.183046    4.178555   -2.406780
     88          1           0       -9.547943    4.571590   -4.267540
     89          1           0       -9.404302    2.833695   -4.512842
     90          1           0      -10.944733    3.643438   -4.831186
     91          1           0       -9.557189   -1.283800   -3.796552
     92          1           0       -8.701985   -2.834088   -3.843669
     93          1           0       -9.895016   -2.529366   -2.591644
     94          1           0       -4.241767   -3.580551   -1.361834
     95          1           0       -3.350568   -7.017328    0.924907
     96          1           0       -3.971077   -5.929241    2.202743
     97          1           0       -5.106789   -6.889195    1.235387
     98          1           0        2.416148   -5.803471    0.897349
     99          1           0        2.042745   -4.908415   -0.585279
    100          1           0        3.544939   -3.813235    1.884224
    101          1           0        2.696863   -3.320181   -1.756495
    102          1           0        3.882591   -2.022738   -1.876167
    103          1           0        4.408737   -3.690178   -2.034449
    104          1           0        4.846387   -1.158597    0.210636
    105          1           0        5.117234   -2.237923    1.572340
    106          1           0        6.648175   -3.611195    0.138343
    107          1           0        6.429249   -2.475935   -1.180337
    108          1           0        7.266852   -0.626687    0.320117
    109          1           0        7.631603   -1.821506    1.547858
    110          1           0        8.833786   -1.741357   -1.247028
    111          1           0        8.773513   -4.054358   -0.322590
    112          1           0       10.423379   -3.461740   -0.399401
    113          1           0        9.572372   -3.489419    1.147733
    114          1           0        9.448847    0.160148    0.227542
    115          1           0       10.039735   -0.960902    1.436165
    116          1           0       11.789660   -1.757163   -0.127563
    117          1           0       11.146524   -0.742286   -1.403242
    118          1           0       11.587520    1.278696    0.033070
    119          1           0       12.329902    0.244305    1.235318
    120          1           0       13.289871    0.566629   -1.634791
    121          1           0       13.917863   -1.644307   -0.669106
    122          1           0       15.335479   -0.630265   -0.873956
    123          1           0       14.625607   -0.832161    0.730459
    124          1           0       13.464392    2.615094   -0.253840
    125          1           0       14.388993    1.740774    0.949018
    126          1           0       16.232633    1.398603   -0.662672
    127          1           0       15.261838    2.079985   -1.952810
    128          1           0       15.255283    4.281826   -0.826241
    129          1           0       16.055108    3.597567    0.573667
    130          1           0       18.061480    3.109637   -0.788849
    131          1           0       16.583288    4.585495   -3.016409
    132          1           0       18.297641    4.164453   -3.047083
    133          1           0       17.080587    2.890862   -3.048512
    134          1           0       17.877827    5.229191    0.500704
    135          1           0       18.821338    5.467866   -0.973991
    136          1           0       17.147117    6.021746   -0.897832
    137          1           0       -5.666960    2.034297    0.806913
    138          1           0       -6.510218    0.731143   -0.574872
 ---------------------------------------------------------------------

 SCF Done:  E(UwB97XD) =  -2736.12713179     A.U. after   23 cycles

 Alpha virt. eigenvalues --    2.04416   2.04547   2.04692   2.04878   2.04939
 Alpha virt. eigenvalues --    2.05223   2.05262   2.05307   2.05798   2.06161
 Alpha virt. eigenvalues --    2.06348   2.06567   2.06956   2.07698   2.07889

  Beta  occ. eigenvalues --  -19.18944 -19.17293 -19.12473 -19.09951 -19.07284
  Beta  occ. eigenvalues --  -14.31424 -14.31422 -14.25873 -14.23833 -10.30107
  Beta  occ. eigenvalues --  -10.27792 -10.24310 -10.21981 -10.21809 -10.21520
  Beta  occ. eigenvalues --  -10.20975 -10.20448 -10.20366 -10.20335 -10.20289
  Beta  occ. eigenvalues --  -10.20109 -10.19981 -10.19939 -10.19869 -10.19799
  Beta  occ. eigenvalues --  -10.19593 -10.19546 -10.19396 -10.19337 -10.19330
  Beta  occ. eigenvalues --  -10.18991 -10.18311 -10.18110 -10.18036 -10.17235
  Beta  occ. eigenvalues --  -10.17061 -10.16964 -10.16891 -10.16856 -10.16616
  Beta  occ. eigenvalues --  -10.16400 -10.16265 -10.15997 -10.15956 -10.15927
  Beta  occ. eigenvalues --  -10.15442 -10.15248 -10.15164 -10.15055 -10.15014
  Beta  occ. eigenvalues --  -10.14785 -10.14753 -10.14699 -10.14263 -10.13968
  Beta  occ. eigenvalues --  -10.13906 -10.13798 -10.13744 -10.13481 -10.13172
  Beta  occ. eigenvalues --  -10.12728 -10.12584 -10.11931 -10.11915  -1.10175
  Beta  occ. eigenvalues --   -1.08402  -1.01143  -0.98950  -0.98356  -0.93594
  Beta  occ. eigenvalues --   -0.92887  -0.89641  -0.88354  -0.85270  -0.84426
  Beta  occ. eigenvalues --   -0.83523  -0.82531  -0.79778  -0.79409  -0.78803
  Beta  occ. eigenvalues --   -0.77495  -0.77249  -0.76178  -0.75562  -0.75332
  Beta  occ. eigenvalues --   -0.74702  -0.74383  -0.73831  -0.73031  -0.72115
  Beta  occ. eigenvalues --   -0.71873  -0.70939  -0.70915  -0.70086  -0.69519
  Beta  occ. eigenvalues --   -0.69423  -0.68939  -0.68249  -0.67269  -0.66300
  Beta  occ. eigenvalues --   -0.65875  -0.65247  -0.64753  -0.63942  -0.63095
  Beta  occ. eigenvalues --   -0.61318  -0.60233  -0.59693  -0.59202  -0.58845
  Beta  occ. eigenvalues --   -0.58279  -0.58052  -0.57734  -0.57253  -0.56882
  Beta  occ. eigenvalues --   -0.56587  -0.54743  -0.53425  -0.53024  -0.52765
  Beta  occ. eigenvalues --   -0.52078  -0.50971  -0.50205  -0.50013  -0.49719
  Beta  occ. eigenvalues --   -0.49271  -0.48979  -0.48710  -0.48557  -0.48003
  Beta  occ. eigenvalues --   -0.47434  -0.47250  -0.46652  -0.46462  -0.46207
  Beta  occ. eigenvalues --   -0.46173  -0.46041  -0.45877  -0.45598  -0.45203
  Beta  occ. eigenvalues --   -0.44801  -0.44655  -0.44325  -0.44158  -0.43883
  Beta  occ. eigenvalues --   -0.43470  -0.43306  -0.42822  -0.42198  -0.42151
  Beta  occ. eigenvalues --   -0.41734  -0.41137  -0.40866  -0.40661  -0.40495
  Beta  occ. eigenvalues --   -0.40395  -0.40021  -0.39772  -0.39650  -0.39379
  Beta  occ. eigenvalues --   -0.39254  -0.39169  -0.38947  -0.38709  -0.38556
  Beta  occ. eigenvalues --   -0.38382  -0.38088  -0.37852  -0.37719  -0.37560
  Beta  occ. eigenvalues --   -0.37492  -0.37178  -0.37069  -0.37002  -0.36771
  Beta  occ. eigenvalues --   -0.36680  -0.36448  -0.36378  -0.36024  -0.35981
  Beta  occ. eigenvalues --   -0.35665  -0.35408  -0.35370  -0.35147  -0.34938
  Beta  occ. eigenvalues --   -0.34813  -0.34553  -0.34327  -0.34231  -0.34149
  Beta  occ. eigenvalues --   -0.33805  -0.33722  -0.33644  -0.33526  -0.33406
  Beta  occ. eigenvalues --   -0.33274  -0.33215  -0.32987  -0.32891  -0.32725
  Beta  occ. eigenvalues --   -0.32604  -0.32571  -0.32389  -0.32329  -0.31881
  Beta  occ. eigenvalues --   -0.31774  -0.31659  -0.31453  -0.31060  -0.30667
  Beta  occ. eigenvalues --   -0.30458  -0.30153  -0.29899  -0.29314  -0.29001
  Beta  occ. eigenvalues --   -0.28956  -0.28800  -0.28266  -0.28014  -0.27519
  Beta  occ. eigenvalues --   -0.27043  -0.26019  -0.25310  -0.24500  -0.24115
  Beta  occ. eigenvalues --   -0.23472  -0.20703  -0.20250  -0.19640  -0.19457
  Beta  occ. eigenvalues --   -0.18464  -0.18375  -0.17839  -0.16165  -0.11377
  Beta  occ. eigenvalues --   -0.11026
  Beta virt. eigenvalues --    0.06743   0.08529   0.10459   0.12334   0.12747
  Beta virt. eigenvalues --    0.12808   0.13454   0.13867   0.14497   0.14848
  Beta virt. eigenvalues --    0.14871   0.15005   0.15803   0.16009   0.16096

 Mulliken charges and spin densities:
               1          2
     1  C   -0.256861   0.070993
     2  C   -0.621048   0.112121
     3  C   -0.500978   0.071828
     4  C   -0.403312   0.275626
     5  N   -0.476363   0.108401
     6  C    0.357420  -0.032552
     7  C   -0.006169  -0.000476
     8  C    0.111641   0.002886
     9  C    0.280436  -0.007731
    10  C   -0.373886   0.000156
    11  C   -0.296483   0.000693
    12  C   -0.216546  -0.000398
    13  C    0.450709   0.000036
    14  O   -0.414375   0.000007
    15  O   -0.303644  -0.000004
    16  N   -0.213045  -0.036017
    17  C    0.289059   0.046319
    18  C   -0.116345   0.086840
    19  C    0.079905   0.051205
    20  C    0.208482   0.049063
    21  C   -0.347895  -0.006145
    22  C   -0.198991  -0.016211
    23  C   -0.319236   0.035276
    24  N   -0.558808   0.120191
    25  C    0.295002   0.001502
    26  C    0.033791  -0.042384
    27  C   -0.110198   0.029147
    28  C    0.375139  -0.103969
    29  C   -0.369997   0.003445
    30  C   -0.258828  -0.002088
    31  C   -0.299777   0.001716
    32  N   -0.201691   0.000876
    33  C    0.287221  -0.071382
    34  C   -0.197245   0.174055
    35  C   -0.032745   0.009414
    36  C    0.057301   0.007574
    37  C   -0.356918  -0.009680
    38  C    0.202418   0.017973
    39  O   -0.413660   0.043288
    40  C    0.070400   0.000114
    41  C    0.339949   0.001531
    42  O   -0.384525   0.001524
    43  O   -0.291031  -0.000147
    44  C   -0.181675   0.000015
    45  C    0.007931  -0.000000
    46  C   -0.251645  -0.000003
    47  C    0.111467   0.000003
    48  C   -0.388423   0.000000
    49  C   -0.176341  -0.000000
    50  C   -0.241497   0.000000
    51  C   -0.167646   0.000000
    52  C    0.050425   0.000000
    53  C   -0.383819  -0.000000
    54  C   -0.174912   0.000000
    55  C   -0.218664   0.000000
    56  C   -0.174238   0.000000
    57  C    0.054607  -0.000000
    58  C   -0.383893  -0.000000
    59  C   -0.173481   0.000000
    60  C   -0.221158   0.000000
    61  C   -0.178191  -0.000000
    62  C    0.013075   0.000000
    63  C   -0.352511  -0.000000
    64  C   -0.312678   0.000000
    65  H    0.111938  -0.004851
    66  H    0.177919  -0.002738
    67  H    0.107691  -0.010905
    68  H    0.106389  -0.000917
    69  H    0.048788  -0.000441
    70  H    0.090519   0.001387
    71  H    0.104301   0.000462
    72  H    0.134650  -0.000207
    73  H    0.128958  -0.000288
    74  H    0.122998   0.000091
    75  H    0.117972   0.000311
    76  H    0.120999  -0.000028
    77  H    0.115760   0.006134
    78  H    0.095246  -0.000100
    79  H    0.114341   0.004064
    80  H    0.099422   0.002782
    81  H    0.147713  -0.001441
    82  H    0.097553  -0.001091
    83  H    0.118552  -0.002210
    84  H    0.093179  -0.000103
    85  H    0.119785  -0.001614
    86  H    0.094262   0.001942
    87  H    0.081038   0.000250
    88  H    0.099851   0.000059
    89  H    0.122110  -0.000245
    90  H    0.080260  -0.000125
    91  H    0.094780   0.002248
    92  H    0.128941   0.003691
    93  H    0.108522   0.010858
    94  H    0.076498   0.000310
    95  H    0.111520   0.000009
    96  H    0.116965  -0.000019
    97  H    0.130724   0.000010
    98  H    0.087778  -0.000001
    99  H    0.122730   0.000000
   100  H    0.096978   0.000000
   101  H    0.166640  -0.000000
   102  H    0.113773   0.000000
   103  H    0.121514   0.000000
   104  H    0.109131   0.000000
   105  H    0.088894   0.000000
   106  H    0.102730  -0.000000
   107  H    0.099151   0.000000
   108  H    0.085300  -0.000000
   109  H    0.085290   0.000000
   110  H    0.048314  -0.000000
   111  H    0.120969   0.000000
   112  H    0.112655   0.000000
   113  H    0.097774   0.000000
   114  H    0.085424   0.000000
   115  H    0.082850  -0.000000
   116  H    0.097185  -0.000000
   117  H    0.080303  -0.000000
   118  H    0.084625  -0.000000
   119  H    0.082633   0.000000
   120  H    0.047462  -0.000000
   121  H    0.117496   0.000000
   122  H    0.116035   0.000000
   123  H    0.097744  -0.000000
   124  H    0.085018  -0.000000
   125  H    0.084377   0.000000
   126  H    0.088972  -0.000000
   127  H    0.093708  -0.000000
   128  H    0.086933   0.000000
   129  H    0.082491   0.000000
   130  H    0.049494  -0.000000
   131  H    0.099361  -0.000000
   132  H    0.105186   0.000000
   133  H    0.118204   0.000000
   134  H    0.104031   0.000000
   135  H    0.105362   0.000000
   136  H    0.098125  -0.000000
   137  H    0.235023  -0.000866
   138  H    0.237193  -0.001046
 Sum of Mulliken charges =  -1.00000   1.00000

 Dipole moment (field-independent basis, Debye):
    X=             31.2114    Y=             -1.4352    Z=              2.1377  Tot=             31.3174
 Quadrupole moment (field-independent basis, Debye-Ang):
   XX=           -610.0288   YY=           -448.4705   ZZ=           -407.5018
   XY=             -3.8793   XZ=            -12.7270   YZ=            -18.5481

 Normal termination of Gaussian 16 at Sat Dec  7 06:05:56 2019.
