 Gaussian 16, Revision A.03,

 ----------------------------------------------------------------------
 # wB97XD/Def2TZVP Geom=Checkpoint Guess=Read iop(3/107=0275500000,3/10
 8=0275500000)
 ----------------------------------------------------------------------

 ---------
 pheo-a-s0
 ---------
 Structure from the checkpoint file:  "pheo-a-s0-02755.chk"
 Charge =  0 Multiplicity = 1

 SCF Done:  E(RwB97XD) =  -2735.78229715     A.U. after   17 cycles

 The electronic state is 1-A.
 Alpha  occ. eigenvalues --  -19.33081 -19.32523 -19.26581 -19.26431 -19.25887
 Alpha  occ. eigenvalues --  -14.50498 -14.50241 -14.45833 -14.44041 -10.44856
 Alpha  occ. eigenvalues --  -10.44836 -10.40835 -10.38191 -10.37587 -10.37338
 Alpha  occ. eigenvalues --  -10.36890 -10.36881 -10.35974 -10.35729 -10.35369
 Alpha  occ. eigenvalues --  -10.34908 -10.34690 -10.34452 -10.34183 -10.34124
 Alpha  occ. eigenvalues --  -10.34117 -10.34052 -10.33858 -10.33469 -10.33252
 Alpha  occ. eigenvalues --  -10.33144 -10.33001 -10.32958 -10.32858 -10.32789
 Alpha  occ. eigenvalues --  -10.32621 -10.32122 -10.32067 -10.31869 -10.31693
 Alpha  occ. eigenvalues --  -10.31645 -10.31546 -10.31512 -10.31421 -10.31413
 Alpha  occ. eigenvalues --  -10.31405 -10.31396 -10.31309 -10.31095 -10.30815
 Alpha  occ. eigenvalues --  -10.30811 -10.30740 -10.30695 -10.30500 -10.30472
 Alpha  occ. eigenvalues --  -10.30416 -10.30384 -10.30380 -10.30332 -10.30323
 Alpha  occ. eigenvalues --  -10.29954 -10.29784 -10.29781 -10.29778  -1.25197
 Alpha  occ. eigenvalues --   -1.24764  -1.17433  -1.15671  -1.15642  -1.13722
 Alpha  occ. eigenvalues --   -1.13338  -1.09711  -1.08606  -0.99243  -0.97484
 Alpha  occ. eigenvalues --   -0.97204  -0.96475  -0.96176  -0.95895  -0.95408
 Alpha  occ. eigenvalues --   -0.94542  -0.94204  -0.94177  -0.93652  -0.92204
 Alpha  occ. eigenvalues --   -0.91414  -0.90734  -0.90033  -0.89380  -0.88859
 Alpha  occ. eigenvalues --   -0.87798  -0.87469  -0.86776  -0.85711  -0.85349
 Alpha  occ. eigenvalues --   -0.84141  -0.83396  -0.82725  -0.81658  -0.81437
 Alpha  occ. eigenvalues --   -0.81221  -0.80881  -0.80262  -0.79516  -0.79124
 Alpha  occ. eigenvalues --   -0.77712  -0.76579  -0.75743  -0.75337  -0.74996
 Alpha  occ. eigenvalues --   -0.74564  -0.72135  -0.71382  -0.70877  -0.70126
 Alpha  occ. eigenvalues --   -0.69892  -0.68892  -0.68647  -0.68500  -0.68150
 Alpha  occ. eigenvalues --   -0.67862  -0.67400  -0.67347  -0.66909  -0.65354
 Alpha  occ. eigenvalues --   -0.65114  -0.64544  -0.63947  -0.63552  -0.62702
 Alpha  occ. eigenvalues --   -0.61751  -0.61581  -0.61323  -0.60841  -0.60221
 Alpha  occ. eigenvalues --   -0.60085  -0.59924  -0.59617  -0.59452  -0.58956
 Alpha  occ. eigenvalues --   -0.58801  -0.58183  -0.58001  -0.57711  -0.57350
 Alpha  occ. eigenvalues --   -0.57288  -0.56969  -0.56732  -0.56560  -0.56354
 Alpha  occ. eigenvalues --   -0.56000  -0.55763  -0.55487  -0.55254  -0.55065
 Alpha  occ. eigenvalues --   -0.54974  -0.54578  -0.54466  -0.54163  -0.53993
 Alpha  occ. eigenvalues --   -0.53688  -0.53545  -0.53351  -0.53188  -0.52856
 Alpha  occ. eigenvalues --   -0.52759  -0.52583  -0.52071  -0.51868  -0.51679
 Alpha  occ. eigenvalues --   -0.51511  -0.51294  -0.51000  -0.50783  -0.50526
 Alpha  occ. eigenvalues --   -0.50398  -0.50259  -0.50093  -0.49983  -0.49746
 Alpha  occ. eigenvalues --   -0.49402  -0.49162  -0.49047  -0.48791  -0.48457
 Alpha  occ. eigenvalues --   -0.48311  -0.48234  -0.48016  -0.47858  -0.47768
 Alpha  occ. eigenvalues --   -0.47650  -0.47452  -0.47361  -0.47008  -0.46718
 Alpha  occ. eigenvalues --   -0.46498  -0.46379  -0.46298  -0.46236  -0.46109
 Alpha  occ. eigenvalues --   -0.45861  -0.45351  -0.45038  -0.44745  -0.44631
 Alpha  occ. eigenvalues --   -0.44456  -0.44287  -0.44167  -0.43604  -0.43222
 Alpha  occ. eigenvalues --   -0.42873  -0.42849  -0.42456  -0.42173  -0.42126
 Alpha  occ. eigenvalues --   -0.41867  -0.41764  -0.41692  -0.41667  -0.41514
 Alpha  occ. eigenvalues --   -0.41197  -0.40389  -0.39001  -0.38995  -0.38696
 Alpha  occ. eigenvalues --   -0.37833  -0.37815  -0.37459  -0.36201  -0.35230
 Alpha  occ. eigenvalues --   -0.35075  -0.34644  -0.34555  -0.32323  -0.27136
 Alpha  occ. eigenvalues --   -0.25576
 Alpha virt. eigenvalues --   -0.04607  -0.01369   0.04028   0.06092   0.08187
 Alpha virt. eigenvalues --    0.08719   0.09263   0.09472   0.09744   0.10197
 Alpha virt. eigenvalues --    0.10400   0.10567   0.10968   0.11020   0.11693

 Mulliken charges:
               1
     1  C   -0.224835
     2  C   -0.539329
     3  C   -0.445290
     4  C   -0.304208
     5  N   -0.377320
     6  C    0.296300
     7  C    0.016520
     8  C    0.065613
     9  C    0.250475
    10  C   -0.406696
    11  C   -0.310502
    12  C   -0.244982
    13  C    0.384823
    14  O   -0.381873
    15  O   -0.278475
    16  N   -0.188262
    17  C    0.281303
    18  C   -0.104009
    19  C    0.088006
    20  C    0.205583
    21  C   -0.365565
    22  C   -0.206383
    23  C   -0.308476
    24  N   -0.465041
    25  C    0.293951
    26  C    0.006450
    27  C   -0.081081
    28  C    0.320024
    29  C   -0.391123
    30  C   -0.281550
    31  C   -0.338108
    32  N   -0.163797
    33  C    0.267684
    34  C   -0.150282
    35  C   -0.014372
    36  C    0.035382
    37  C   -0.372394
    38  C    0.121230
    39  O   -0.317707
    40  C    0.085283
    41  C    0.259690
    42  O   -0.336554
    43  O   -0.259956
    44  C   -0.214244
    45  C   -0.050740
    46  C   -0.254785
    47  C    0.132701
    48  C   -0.419236
    49  C   -0.223631
    50  C   -0.248585
    51  C   -0.216427
    52  C    0.054617
    53  C   -0.420399
    54  C   -0.217419
    55  C   -0.230000
    56  C   -0.218410
    57  C    0.058712
    58  C   -0.419803
    59  C   -0.215928
    60  C   -0.234386
    61  C   -0.214205
    62  C    0.015646
    63  C   -0.387766
    64  C   -0.353836
    65  H    0.142894
    66  H    0.181764
    67  H    0.137597
    68  H    0.119264
    69  H    0.098688
    70  H    0.125840
    71  H    0.121074
    72  H    0.147035
    73  H    0.131249
    74  H    0.142792
    75  H    0.135298
    76  H    0.136461
    77  H    0.150043
    78  H    0.125692
    79  H    0.143788
    80  H    0.139422
    81  H    0.161453
    82  H    0.136988
    83  H    0.137731
    84  H    0.121912
    85  H    0.139810
    86  H    0.114265
    87  H    0.115200
    88  H    0.117912
    89  H    0.122111
    90  H    0.119032
    91  H    0.117182
    92  H    0.157152
    93  H    0.150178
    94  H    0.124925
    95  H    0.138969
    96  H    0.130224
    97  H    0.149608
    98  H    0.119289
    99  H    0.140221
   100  H    0.117690
   101  H    0.160083
   102  H    0.125858
   103  H    0.139637
   104  H    0.119933
   105  H    0.106740
   106  H    0.113990
   107  H    0.109948
   108  H    0.099922
   109  H    0.102229
   110  H    0.069891
   111  H    0.127276
   112  H    0.126848
   113  H    0.110214
   114  H    0.098781
   115  H    0.099445
   116  H    0.100168
   117  H    0.097790
   118  H    0.098586
   119  H    0.098996
   120  H    0.068194
   121  H    0.125054
   122  H    0.127771
   123  H    0.109734
   124  H    0.099153
   125  H    0.099791
   126  H    0.100158
   127  H    0.103161
   128  H    0.098763
   129  H    0.097465
   130  H    0.068613
   131  H    0.108348
   132  H    0.119034
   133  H    0.124078
   134  H    0.114760
   135  H    0.118468
   136  H    0.107292
   137  H    0.226089
   138  H    0.224966
 Sum of Mulliken charges =  -0.00000

 Dipole moment (field-independent basis, Debye):
    X=              3.6167    Y=              4.7322    Z=              3.0719  Tot=              6.7016
 Quadrupole moment (field-independent basis, Debye-Ang):
   XX=           -390.3463   YY=           -368.7295   ZZ=           -379.1671
   XY=            -47.9924   XZ=              5.2766   YZ=             -4.1964

 Normal termination of Gaussian 16 at Wed Dec  4 03:32:21 2019.
 Gaussian 16:  ES64L-G16RevA.03 25-Dec-2016

 ----------------------------------------------------------------------
 # wB97XD/Def2TZVP Geom=Checkpoint iop(3/107=0275500000,3/108=027550000
 0)
 ----------------------------------------------------------------------

 ----------------
 pheo-a-s0-Cation
 ----------------
 Structure from the checkpoint file:  "/home/padawan/israel-mol/w-tuning/pheo-a/logs/Gau-5103.chk"
 Charge =  1 Multiplicity = 2

                         Standard orientation:
 ---------------------------------------------------------------------
 Center     Atomic      Atomic             Coordinates (Angstroms)
 Number     Number       Type             X           Y           Z
 ---------------------------------------------------------------------
      1          6           0       -5.140457   -1.928461   -0.261709
      2          6           0       -3.548272    1.584282    2.527075
      3          6           0       -6.834760    4.526935    0.528386
      4          6           0       -8.694557    0.929350   -2.072345
      5          7           0       -4.517152   -0.000252    0.989230
      6          6           0       -4.344898   -1.315976    0.649227
      7          6           0       -3.213267   -1.961335    1.420041
      8          6           0       -2.855935   -0.868131    2.443060
      9          6           0       -3.682809    0.307536    1.956749
     10          6           0       -3.193363   -1.249116    3.883124
     11          6           0       -2.039453   -2.374341    0.530085
     12          6           0       -1.010192   -3.185814    1.298358
     13          6           0        0.188155   -3.567856    0.466633
     14          8           0        0.424773   -3.148049   -0.634183
     15          8           0        0.961097   -4.441409    1.120697
     16          7           0       -5.272442    2.816393    1.303409
     17          6           0       -4.261350    2.714047    2.204360
     18          6           0       -4.062904    4.035242    2.764085
     19          6           0       -4.949845    4.878353    2.171370
     20          6           0       -5.762655    4.097665    1.248624
     21          6           0       -3.017084    4.356469    3.774942
     22          6           0       -5.063462    6.316117    2.415024
     23          6           0       -5.253750    7.247556    1.487759
     24          7           0       -7.487332    2.492222   -0.647933
     25          6           0       -7.654127    3.776499   -0.354051
     26          6           0       -8.799402    4.348458   -1.048374
     27          6           0       -9.333288    3.340353   -1.781670
     28          6           0       -8.500796    2.175682   -1.525594
     29          6           0       -9.246092    5.768499   -0.944713
     30          6           0      -10.497745    3.387127   -2.717488
     31          6           0      -10.076728    3.621977   -4.169941
     32          7           0       -6.791543   -0.136275   -1.011033
     33          6           0       -7.901127   -0.200666   -1.836151
     34          6           0       -8.034875   -1.525974   -2.300608
     35          6           0       -6.974980   -2.227653   -1.721135
     36          6           0       -6.235997   -1.340324   -0.933304
     37          6           0       -9.104342   -2.064628   -3.185512
     38          6           0       -6.374834   -3.547999   -1.629601
     39          8           0       -6.707237   -4.592777   -2.125659
     40          6           0       -5.102358   -3.374202   -0.723280
     41          6           0       -5.123681   -4.383251    0.401148
     42          8           0       -5.874036   -4.353629    1.337084
     43          8           0       -4.189642   -5.324920    0.228263
     44          6           0       -4.159124   -6.351950    1.215155
     45          6           0        2.201526   -4.816866    0.486695
     46          6           0        3.291769   -3.856986    0.828487
     47          6           0        3.965744   -3.082188   -0.019806
     48          6           0        3.715115   -3.034660   -1.501122
     49          6           0        5.074596   -2.196321    0.480953
     50          6           0        6.447046   -2.561080   -0.089206
     51          6           0        7.555563   -1.673595    0.463646
     52          6           0        8.935998   -1.886584   -0.163782
     53          6           0        9.455187   -3.302325    0.075936
     54          6           0        9.910062   -0.825118    0.355336
     55          6           0       11.278181   -0.811359   -0.316998
     56          6           0       12.148753    0.346393    0.158175
     57          6           0       13.494017    0.491236   -0.558809
     58          6           0       14.393057   -0.722138   -0.333212
     59          6           0       14.175840    1.791971   -0.125797
     60          6           0       15.456079    2.139006   -0.877352
     61          6           0       15.984600    3.522824   -0.517092
     62          6           0       17.347535    3.874531   -1.117107
     63          6           0       17.325703    3.873467   -2.643450
     64          6           0       17.828740    5.223425   -0.590225
     65          1           0       -2.794080    1.699662    3.294331
     66          1           0       -7.103300    5.564938    0.666216
     67          1           0       -9.537749    0.797980   -2.738896
     68          1           0       -3.590148   -2.849333    1.937205
     69          1           0       -1.794107   -0.610794    2.385328
     70          1           0       -2.602729   -2.112148    4.196558
     71          1           0       -2.987878   -0.428819    4.572507
     72          1           0       -4.249835   -1.509978    3.971331
     73          1           0       -2.395572   -2.969694   -0.310617
     74          1           0       -1.573526   -1.485559    0.099090
     75          1           0       -0.632710   -2.636164    2.166325
     76          1           0       -1.455221   -4.101478    1.695896
     77          1           0       -2.018596    4.153943    3.380773
     78          1           0       -3.052561    5.405657    4.062861
     79          1           0       -3.142103    3.750977    4.675465
     80          1           0       -4.950016    6.629500    3.448456
     81          1           0       -5.330738    7.001950    0.435822
     82          1           0       -5.314319    8.293896    1.757509
     83          1           0       -8.473030    6.455645   -1.298486
     84          1           0      -10.140333    5.946749   -1.541393
     85          1           0       -9.475538    6.041922    0.088098
     86          1           0      -11.066316    2.456175   -2.648641
     87          1           0      -11.183046    4.178555   -2.406780
     88          1           0       -9.547943    4.571590   -4.267540
     89          1           0       -9.404302    2.833695   -4.512842
     90          1           0      -10.944733    3.643438   -4.831186
     91          1           0       -9.557189   -1.283800   -3.796552
     92          1           0       -8.701985   -2.834088   -3.843669
     93          1           0       -9.895016   -2.529366   -2.591644
     94          1           0       -4.241767   -3.580551   -1.361834
     95          1           0       -3.350568   -7.017328    0.924907
     96          1           0       -3.971077   -5.929241    2.202743
     97          1           0       -5.106789   -6.889195    1.235387
     98          1           0        2.416148   -5.803471    0.897349
     99          1           0        2.042745   -4.908415   -0.585279
    100          1           0        3.544939   -3.813235    1.884224
    101          1           0        2.696863   -3.320181   -1.756495
    102          1           0        3.882591   -2.022738   -1.876167
    103          1           0        4.408737   -3.690178   -2.034449
    104          1           0        4.846387   -1.158597    0.210636
    105          1           0        5.117234   -2.237923    1.572340
    106          1           0        6.648175   -3.611195    0.138343
    107          1           0        6.429249   -2.475935   -1.180337
    108          1           0        7.266852   -0.626687    0.320117
    109          1           0        7.631603   -1.821506    1.547858
    110          1           0        8.833786   -1.741357   -1.247028
    111          1           0        8.773513   -4.054358   -0.322590
    112          1           0       10.423379   -3.461740   -0.399401
    113          1           0        9.572372   -3.489419    1.147733
    114          1           0        9.448847    0.160148    0.227542
    115          1           0       10.039735   -0.960902    1.436165
    116          1           0       11.789660   -1.757163   -0.127563
    117          1           0       11.146524   -0.742286   -1.403242
    118          1           0       11.587520    1.278696    0.033070
    119          1           0       12.329902    0.244305    1.235318
    120          1           0       13.289871    0.566629   -1.634791
    121          1           0       13.917863   -1.644307   -0.669106
    122          1           0       15.335479   -0.630265   -0.873956
    123          1           0       14.625607   -0.832161    0.730459
    124          1           0       13.464392    2.615094   -0.253840
    125          1           0       14.388993    1.740774    0.949018
    126          1           0       16.232633    1.398603   -0.662672
    127          1           0       15.261838    2.079985   -1.952810
    128          1           0       15.255283    4.281826   -0.826241
    129          1           0       16.055108    3.597567    0.573667
    130          1           0       18.061480    3.109637   -0.788849
    131          1           0       16.583288    4.585495   -3.016409
    132          1           0       18.297641    4.164453   -3.047083
    133          1           0       17.080587    2.890862   -3.048512
    134          1           0       17.877827    5.229191    0.500704
    135          1           0       18.821338    5.467866   -0.973991
    136          1           0       17.147117    6.021746   -0.897832
    137          1           0       -5.666960    2.034297    0.806913
    138          1           0       -6.510218    0.731143   -0.574872
 ---------------------------------------------------------------------
