 Gaussian 16, Revision A.03,

 ----------------------------------------------------------------------
 # wB97XD/Def2TZVP Geom=Checkpoint Guess=Read iop(3/107=0251100000,3/10
 8=0251100000)
 ----------------------------------------------------------------------

 ---------
 pheo-a-s0
 ---------
 Structure from the checkpoint file:  "pheo-a-s0-02511.chk"
 Charge =  0 Multiplicity = 1

 SCF Done:  E(RwB97XD) =  -2735.75434869     A.U. after   16 cycles

 The electronic state is 1-A.
 Alpha  occ. eigenvalues --  -19.32102 -19.31535 -19.25585 -19.25441 -19.24927
 Alpha  occ. eigenvalues --  -14.49515 -14.49261 -14.44854 -14.43035 -10.43722
 Alpha  occ. eigenvalues --  -10.43693 -10.39743 -10.37041 -10.36478 -10.36279
 Alpha  occ. eigenvalues --  -10.35830 -10.35757 -10.34930 -10.34668 -10.34398
 Alpha  occ. eigenvalues --  -10.33816 -10.33584 -10.33358 -10.33113 -10.33104
 Alpha  occ. eigenvalues --  -10.33088 -10.32962 -10.32842 -10.32411 -10.32203
 Alpha  occ. eigenvalues --  -10.32103 -10.31958 -10.31896 -10.31794 -10.31781
 Alpha  occ. eigenvalues --  -10.31586 -10.31085 -10.31030 -10.30862 -10.30633
 Alpha  occ. eigenvalues --  -10.30594 -10.30523 -10.30475 -10.30410 -10.30394
 Alpha  occ. eigenvalues --  -10.30379 -10.30372 -10.30286 -10.30070 -10.29851
 Alpha  occ. eigenvalues --  -10.29789 -10.29715 -10.29659 -10.29477 -10.29449
 Alpha  occ. eigenvalues --  -10.29391 -10.29360 -10.29356 -10.29308 -10.29298
 Alpha  occ. eigenvalues --  -10.28929 -10.28757 -10.28756 -10.28751  -1.24064
 Alpha  occ. eigenvalues --   -1.23621  -1.16354  -1.14595  -1.14556  -1.12553
 Alpha  occ. eigenvalues --   -1.12226  -1.08561  -1.07462  -0.98132  -0.96332
 Alpha  occ. eigenvalues --   -0.96059  -0.95333  -0.95041  -0.94769  -0.94274
 Alpha  occ. eigenvalues --   -0.93467  -0.93076  -0.93061  -0.92548  -0.91105
 Alpha  occ. eigenvalues --   -0.90315  -0.89637  -0.88969  -0.88302  -0.87781
 Alpha  occ. eigenvalues --   -0.86758  -0.86418  -0.85729  -0.84660  -0.84303
 Alpha  occ. eigenvalues --   -0.83117  -0.82383  -0.81717  -0.80641  -0.80429
 Alpha  occ. eigenvalues --   -0.80191  -0.79858  -0.79248  -0.78540  -0.78140
 Alpha  occ. eigenvalues --   -0.76739  -0.75602  -0.74791  -0.74371  -0.74076
 Alpha  occ. eigenvalues --   -0.73612  -0.71199  -0.70478  -0.69972  -0.69239
 Alpha  occ. eigenvalues --   -0.68971  -0.68014  -0.67728  -0.67626  -0.67240
 Alpha  occ. eigenvalues --   -0.66979  -0.66551  -0.66452  -0.66041  -0.64485
 Alpha  occ. eigenvalues --   -0.64257  -0.63684  -0.63109  -0.62706  -0.61859
 Alpha  occ. eigenvalues --   -0.60900  -0.60757  -0.60475  -0.59994  -0.59393
 Alpha  occ. eigenvalues --   -0.59252  -0.59094  -0.58791  -0.58631  -0.58144
 Alpha  occ. eigenvalues --   -0.57985  -0.57368  -0.57195  -0.56901  -0.56551
 Alpha  occ. eigenvalues --   -0.56494  -0.56159  -0.55950  -0.55769  -0.55571
 Alpha  occ. eigenvalues --   -0.55224  -0.54998  -0.54712  -0.54467  -0.54294
 Alpha  occ. eigenvalues --   -0.54205  -0.53813  -0.53703  -0.53397  -0.53230
 Alpha  occ. eigenvalues --   -0.52924  -0.52789  -0.52591  -0.52432  -0.52095
 Alpha  occ. eigenvalues --   -0.52008  -0.51838  -0.51332  -0.51126  -0.50953
 Alpha  occ. eigenvalues --   -0.50766  -0.50555  -0.50271  -0.50058  -0.49801
 Alpha  occ. eigenvalues --   -0.49681  -0.49537  -0.49370  -0.49254  -0.49022
 Alpha  occ. eigenvalues --   -0.48708  -0.48448  -0.48331  -0.48083  -0.47752
 Alpha  occ. eigenvalues --   -0.47605  -0.47530  -0.47311  -0.47157  -0.47068
 Alpha  occ. eigenvalues --   -0.46949  -0.46753  -0.46661  -0.46292  -0.46022
 Alpha  occ. eigenvalues --   -0.45809  -0.45697  -0.45612  -0.45548  -0.45421
 Alpha  occ. eigenvalues --   -0.45181  -0.44662  -0.44360  -0.44065  -0.43963
 Alpha  occ. eigenvalues --   -0.43785  -0.43613  -0.43499  -0.42946  -0.42565
 Alpha  occ. eigenvalues --   -0.42228  -0.42214  -0.41806  -0.41528  -0.41481
 Alpha  occ. eigenvalues --   -0.41227  -0.41122  -0.41047  -0.41033  -0.40838
 Alpha  occ. eigenvalues --   -0.40557  -0.39745  -0.38294  -0.38272  -0.38081
 Alpha  occ. eigenvalues --   -0.37314  -0.37137  -0.36790  -0.35684  -0.34737
 Alpha  occ. eigenvalues --   -0.34430  -0.34102  -0.34008  -0.31812  -0.26777
 Alpha  occ. eigenvalues --   -0.25299
 Alpha virt. eigenvalues --   -0.04697  -0.01500   0.03765   0.05829   0.07923
 Alpha virt. eigenvalues --    0.08446   0.08918   0.09181   0.09659   0.10089
 Alpha virt. eigenvalues --    0.10308   0.10427   0.10795   0.10949   0.11629

 Mulliken charges:
               1
     1  C   -0.225101
     2  C   -0.542941
     3  C   -0.451711
     4  C   -0.312176
     5  N   -0.379603
     6  C    0.300074
     7  C    0.016774
     8  C    0.068731
     9  C    0.251703
    10  C   -0.403915
    11  C   -0.310193
    12  C   -0.241551
    13  C    0.386256
    14  O   -0.382198
    15  O   -0.278097
    16  N   -0.186462
    17  C    0.283106
    18  C   -0.105509
    19  C    0.088489
    20  C    0.210631
    21  C   -0.361092
    22  C   -0.206804
    23  C   -0.307995
    24  N   -0.467443
    25  C    0.296658
    26  C    0.005598
    27  C   -0.081953
    28  C    0.325004
    29  C   -0.387534
    30  C   -0.278424
    31  C   -0.335771
    32  N   -0.163349
    33  C    0.271728
    34  C   -0.152025
    35  C   -0.011984
    36  C    0.035268
    37  C   -0.370354
    38  C    0.123896
    39  O   -0.318474
    40  C    0.085353
    41  C    0.261389
    42  O   -0.337223
    43  O   -0.259676
    44  C   -0.212946
    45  C   -0.046166
    46  C   -0.256140
    47  C    0.131658
    48  C   -0.415646
    49  C   -0.219162
    50  C   -0.248581
    51  C   -0.211321
    52  C    0.054177
    53  C   -0.417191
    54  C   -0.213064
    55  C   -0.229011
    56  C   -0.214060
    57  C    0.058446
    58  C   -0.416651
    59  C   -0.211599
    60  C   -0.233353
    61  C   -0.211218
    62  C    0.015223
    63  C   -0.384993
    64  C   -0.350228
    65  H    0.142056
    66  H    0.181787
    67  H    0.136129
    68  H    0.118189
    69  H    0.096008
    70  H    0.125071
    71  H    0.120295
    72  H    0.146219
    73  H    0.130873
    74  H    0.141070
    75  H    0.133830
    76  H    0.135188
    77  H    0.148945
    78  H    0.124967
    79  H    0.142849
    80  H    0.138314
    81  H    0.160944
    82  H    0.136282
    83  H    0.136935
    84  H    0.121174
    85  H    0.139060
    86  H    0.112995
    87  H    0.113857
    88  H    0.117392
    89  H    0.121630
    90  H    0.118260
    91  H    0.116923
    92  H    0.156675
    93  H    0.149466
    94  H    0.122445
    95  H    0.138287
    96  H    0.129696
    97  H    0.149084
    98  H    0.117670
    99  H    0.138538
   100  H    0.115978
   101  H    0.159799
   102  H    0.125005
   103  H    0.138932
   104  H    0.118540
   105  H    0.105172
   106  H    0.113083
   107  H    0.108919
   108  H    0.098215
   109  H    0.100657
   110  H    0.067620
   111  H    0.126606
   112  H    0.126247
   113  H    0.109295
   114  H    0.097206
   115  H    0.097889
   116  H    0.099670
   117  H    0.096147
   118  H    0.097000
   119  H    0.097430
   120  H    0.065931
   121  H    0.124444
   122  H    0.127145
   123  H    0.108810
   124  H    0.097555
   125  H    0.098312
   126  H    0.099137
   127  H    0.102149
   128  H    0.097415
   129  H    0.096136
   130  H    0.067034
   131  H    0.107549
   132  H    0.118239
   133  H    0.123782
   134  H    0.114087
   135  H    0.117816
   136  H    0.106494
   137  H    0.225564
   138  H    0.224611
 Sum of Mulliken charges =  -0.00000

 Dipole moment (field-independent basis, Debye):
    X=              3.5879    Y=              4.6404    Z=              3.0192  Tot=              6.5971
 Quadrupole moment (field-independent basis, Debye-Ang):
   XX=           -389.8711   YY=           -368.7781   ZZ=           -379.0482
   XY=            -47.3813   XZ=              5.4629   YZ=             -4.1862

 Normal termination of Gaussian 16 at Fri Dec  6 13:54:22 2019.
 Gaussian 16:  ES64L-G16RevA.03 25-Dec-2016

 ----------------------------------------------------------------------
 # wB97XD/Def2TZVP Geom=Checkpoint iop(3/107=0251100000,3/108=025110000
 0)
 ----------------------------------------------------------------------

 ----------------
 pheo-a-s0-Cation
 ----------------
 Structure from the checkpoint file:  "/home/padawan/israel-mol/w-tuning/pheo-a/logs/Gau-18574.chk"
 Charge =  1 Multiplicity = 2

                         Standard orientation:
 ---------------------------------------------------------------------
 Center     Atomic      Atomic             Coordinates (Angstroms)
 Number     Number       Type             X           Y           Z
 ---------------------------------------------------------------------
      1          6           0       -5.140457   -1.928461   -0.261709
      2          6           0       -3.548272    1.584282    2.527075
      3          6           0       -6.834760    4.526935    0.528386
      4          6           0       -8.694557    0.929350   -2.072345
      5          7           0       -4.517152   -0.000252    0.989230
      6          6           0       -4.344898   -1.315976    0.649227
      7          6           0       -3.213267   -1.961335    1.420041
      8          6           0       -2.855935   -0.868131    2.443060
      9          6           0       -3.682809    0.307536    1.956749
     10          6           0       -3.193363   -1.249116    3.883124
     11          6           0       -2.039453   -2.374341    0.530085
     12          6           0       -1.010192   -3.185814    1.298358
     13          6           0        0.188155   -3.567856    0.466633
     14          8           0        0.424773   -3.148049   -0.634183
     15          8           0        0.961097   -4.441409    1.120697
     16          7           0       -5.272442    2.816393    1.303409
     17          6           0       -4.261350    2.714047    2.204360
     18          6           0       -4.062904    4.035242    2.764085
     19          6           0       -4.949845    4.878353    2.171370
     20          6           0       -5.762655    4.097665    1.248624
     21          6           0       -3.017084    4.356469    3.774942
     22          6           0       -5.063462    6.316117    2.415024
     23          6           0       -5.253750    7.247556    1.487759
     24          7           0       -7.487332    2.492222   -0.647933
     25          6           0       -7.654127    3.776499   -0.354051
     26          6           0       -8.799402    4.348458   -1.048374
     27          6           0       -9.333288    3.340353   -1.781670
     28          6           0       -8.500796    2.175682   -1.525594
     29          6           0       -9.246092    5.768499   -0.944713
     30          6           0      -10.497745    3.387127   -2.717488
     31          6           0      -10.076728    3.621977   -4.169941
     32          7           0       -6.791543   -0.136275   -1.011033
     33          6           0       -7.901127   -0.200666   -1.836151
     34          6           0       -8.034875   -1.525974   -2.300608
     35          6           0       -6.974980   -2.227653   -1.721135
     36          6           0       -6.235997   -1.340324   -0.933304
     37          6           0       -9.104342   -2.064628   -3.185512
     38          6           0       -6.374834   -3.547999   -1.629601
     39          8           0       -6.707237   -4.592777   -2.125659
     40          6           0       -5.102358   -3.374202   -0.723280
     41          6           0       -5.123681   -4.383251    0.401148
     42          8           0       -5.874036   -4.353629    1.337084
     43          8           0       -4.189642   -5.324920    0.228263
     44          6           0       -4.159124   -6.351950    1.215155
     45          6           0        2.201526   -4.816866    0.486695
     46          6           0        3.291769   -3.856986    0.828487
     47          6           0        3.965744   -3.082188   -0.019806
     48          6           0        3.715115   -3.034660   -1.501122
     49          6           0        5.074596   -2.196321    0.480953
     50          6           0        6.447046   -2.561080   -0.089206
     51          6           0        7.555563   -1.673595    0.463646
     52          6           0        8.935998   -1.886584   -0.163782
     53          6           0        9.455187   -3.302325    0.075936
     54          6           0        9.910062   -0.825118    0.355336
     55          6           0       11.278181   -0.811359   -0.316998
     56          6           0       12.148753    0.346393    0.158175
     57          6           0       13.494017    0.491236   -0.558809
     58          6           0       14.393057   -0.722138   -0.333212
     59          6           0       14.175840    1.791971   -0.125797
     60          6           0       15.456079    2.139006   -0.877352
     61          6           0       15.984600    3.522824   -0.517092
     62          6           0       17.347535    3.874531   -1.117107
     63          6           0       17.325703    3.873467   -2.643450
     64          6           0       17.828740    5.223425   -0.590225
     65          1           0       -2.794080    1.699662    3.294331
     66          1           0       -7.103300    5.564938    0.666216
     67          1           0       -9.537749    0.797980   -2.738896
     68          1           0       -3.590148   -2.849333    1.937205
     69          1           0       -1.794107   -0.610794    2.385328
     70          1           0       -2.602729   -2.112148    4.196558
     71          1           0       -2.987878   -0.428819    4.572507
     72          1           0       -4.249835   -1.509978    3.971331
     73          1           0       -2.395572   -2.969694   -0.310617
     74          1           0       -1.573526   -1.485559    0.099090
     75          1           0       -0.632710   -2.636164    2.166325
     76          1           0       -1.455221   -4.101478    1.695896
     77          1           0       -2.018596    4.153943    3.380773
     78          1           0       -3.052561    5.405657    4.062861
     79          1           0       -3.142103    3.750977    4.675465
     80          1           0       -4.950016    6.629500    3.448456
     81          1           0       -5.330738    7.001950    0.435822
     82          1           0       -5.314319    8.293896    1.757509
     83          1           0       -8.473030    6.455645   -1.298486
     84          1           0      -10.140333    5.946749   -1.541393
     85          1           0       -9.475538    6.041922    0.088098
     86          1           0      -11.066316    2.456175   -2.648641
     87          1           0      -11.183046    4.178555   -2.406780
     88          1           0       -9.547943    4.571590   -4.267540
     89          1           0       -9.404302    2.833695   -4.512842
     90          1           0      -10.944733    3.643438   -4.831186
     91          1           0       -9.557189   -1.283800   -3.796552
     92          1           0       -8.701985   -2.834088   -3.843669
     93          1           0       -9.895016   -2.529366   -2.591644
     94          1           0       -4.241767   -3.580551   -1.361834
     95          1           0       -3.350568   -7.017328    0.924907
     96          1           0       -3.971077   -5.929241    2.202743
     97          1           0       -5.106789   -6.889195    1.235387
     98          1           0        2.416148   -5.803471    0.897349
     99          1           0        2.042745   -4.908415   -0.585279
    100          1           0        3.544939   -3.813235    1.884224
    101          1           0        2.696863   -3.320181   -1.756495
    102          1           0        3.882591   -2.022738   -1.876167
    103          1           0        4.408737   -3.690178   -2.034449
    104          1           0        4.846387   -1.158597    0.210636
    105          1           0        5.117234   -2.237923    1.572340
    106          1           0        6.648175   -3.611195    0.138343
    107          1           0        6.429249   -2.475935   -1.180337
    108          1           0        7.266852   -0.626687    0.320117
    109          1           0        7.631603   -1.821506    1.547858
    110          1           0        8.833786   -1.741357   -1.247028
    111          1           0        8.773513   -4.054358   -0.322590
    112          1           0       10.423379   -3.461740   -0.399401
    113          1           0        9.572372   -3.489419    1.147733
    114          1           0        9.448847    0.160148    0.227542
    115          1           0       10.039735   -0.960902    1.436165
    116          1           0       11.789660   -1.757163   -0.127563
    117          1           0       11.146524   -0.742286   -1.403242
    118          1           0       11.587520    1.278696    0.033070
    119          1           0       12.329902    0.244305    1.235318
    120          1           0       13.289871    0.566629   -1.634791
    121          1           0       13.917863   -1.644307   -0.669106
    122          1           0       15.335479   -0.630265   -0.873956
    123          1           0       14.625607   -0.832161    0.730459
    124          1           0       13.464392    2.615094   -0.253840
    125          1           0       14.388993    1.740774    0.949018
    126          1           0       16.232633    1.398603   -0.662672
    127          1           0       15.261838    2.079985   -1.952810
    128          1           0       15.255283    4.281826   -0.826241
    129          1           0       16.055108    3.597567    0.573667
    130          1           0       18.061480    3.109637   -0.788849
    131          1           0       16.583288    4.585495   -3.016409
    132          1           0       18.297641    4.164453   -3.047083
    133          1           0       17.080587    2.890862   -3.048512
    134          1           0       17.877827    5.229191    0.500704
    135          1           0       18.821338    5.467866   -0.973991
    136          1           0       17.147117    6.021746   -0.897832
    137          1           0       -5.666960    2.034297    0.806913
    138          1           0       -6.510218    0.731143   -0.574872
 ---------------------------------------------------------------------
