 Gaussian 16, Revision A.03,

 ----------------------------------------------------------------------
 # wB97XD/Def2TZVP Geom=Checkpoint Guess=Read iop(3/107=0153300000,3/10
 8=0153300000)
 ----------------------------------------------------------------------

 ---------
 pheo-a-s0
 ---------
 Structure from the checkpoint file:  "pheo-a-s0-01533.chk"
 Charge =  0 Multiplicity = 1

 SCF Done:  E(RwB97XD) =  -2735.81770186     A.U. after   14 cycles
 Normal termination of Gaussian 16 at Wed Dec  4 18:38:09 2019.

 ----------------------------------------------------------------------
 # wB97XD/Def2TZVP Geom=Checkpoint iop(3/107=0153300000,3/108=015330000
 0)
 ----------------------------------------------------------------------

 ----------------
 pheo-a-s0-Cation
 ----------------
 Structure from the checkpoint file:  "/home/padawan/israel-mol/w-tuning/pheo-a/logs/Gau-13225.chk"
 Charge =  1 Multiplicity = 2

 SCF Done:  E(UwB97XD) =  -2735.58685501     A.U. after   29 cycles
 Normal termination of Gaussian 16 at Thu Dec  5 00:49:50 2019.
 Gaussian 16:  ES64L-G16RevA.03 25-Dec-2016

 ----------------------------------------------------------------------
 # wB97XD/Def2TZVP Geom=Checkpoint iop(3/107=0153300000,3/108=015330000
 0)
 ----------------------------------------------------------------------

 ---------------
 pheo-a-s0-Anion
 ---------------
 Structure from the checkpoint file:  "/home/padawan/israel-mol/w-tuning/pheo-a/logs/Gau-14143.chk"
 Charge = -1 Multiplicity = 2

                         Standard orientation:
 ---------------------------------------------------------------------
 Center     Atomic      Atomic             Coordinates (Angstroms)
 Number     Number       Type             X           Y           Z
 ---------------------------------------------------------------------
      1          6           0       -5.140457   -1.928461   -0.261709
      2          6           0       -3.548272    1.584282    2.527075
      3          6           0       -6.834760    4.526935    0.528386
      4          6           0       -8.694557    0.929350   -2.072345
      5          7           0       -4.517152   -0.000252    0.989230
      6          6           0       -4.344898   -1.315976    0.649227
      7          6           0       -3.213267   -1.961335    1.420041
      8          6           0       -2.855935   -0.868131    2.443060
      9          6           0       -3.682809    0.307536    1.956749
     10          6           0       -3.193363   -1.249116    3.883124
     11          6           0       -2.039453   -2.374341    0.530085
     12          6           0       -1.010192   -3.185814    1.298358
     13          6           0        0.188155   -3.567856    0.466633
     14          8           0        0.424773   -3.148049   -0.634183
     15          8           0        0.961097   -4.441409    1.120697
     16          7           0       -5.272442    2.816393    1.303409
     17          6           0       -4.261350    2.714047    2.204360
     18          6           0       -4.062904    4.035242    2.764085
     19          6           0       -4.949845    4.878353    2.171370
     20          6           0       -5.762655    4.097665    1.248624
     21          6           0       -3.017084    4.356469    3.774942
     22          6           0       -5.063462    6.316117    2.415024
     23          6           0       -5.253750    7.247556    1.487759
     24          7           0       -7.487332    2.492222   -0.647933
     25          6           0       -7.654127    3.776499   -0.354051
     26          6           0       -8.799402    4.348458   -1.048374
     27          6           0       -9.333288    3.340353   -1.781670
     28          6           0       -8.500796    2.175682   -1.525594
     29          6           0       -9.246092    5.768499   -0.944713
     30          6           0      -10.497745    3.387127   -2.717488
     31          6           0      -10.076728    3.621977   -4.169941
     32          7           0       -6.791543   -0.136275   -1.011033
     33          6           0       -7.901127   -0.200666   -1.836151
     34          6           0       -8.034875   -1.525974   -2.300608
     35          6           0       -6.974980   -2.227653   -1.721135
     36          6           0       -6.235997   -1.340324   -0.933304
     37          6           0       -9.104342   -2.064628   -3.185512
     38          6           0       -6.374834   -3.547999   -1.629601
     39          8           0       -6.707237   -4.592777   -2.125659
     40          6           0       -5.102358   -3.374202   -0.723280
     41          6           0       -5.123681   -4.383251    0.401148
     42          8           0       -5.874036   -4.353629    1.337084
     43          8           0       -4.189642   -5.324920    0.228263
     44          6           0       -4.159124   -6.351950    1.215155
     45          6           0        2.201526   -4.816866    0.486695
     46          6           0        3.291769   -3.856986    0.828487
     47          6           0        3.965744   -3.082188   -0.019806
     48          6           0        3.715115   -3.034660   -1.501122
     49          6           0        5.074596   -2.196321    0.480953
     50          6           0        6.447046   -2.561080   -0.089206
     51          6           0        7.555563   -1.673595    0.463646
     52          6           0        8.935998   -1.886584   -0.163782
     53          6           0        9.455187   -3.302325    0.075936
     54          6           0        9.910062   -0.825118    0.355336
     55          6           0       11.278181   -0.811359   -0.316998
     56          6           0       12.148753    0.346393    0.158175
     57          6           0       13.494017    0.491236   -0.558809
     58          6           0       14.393057   -0.722138   -0.333212
     59          6           0       14.175840    1.791971   -0.125797
     60          6           0       15.456079    2.139006   -0.877352
     61          6           0       15.984600    3.522824   -0.517092
     62          6           0       17.347535    3.874531   -1.117107
     63          6           0       17.325703    3.873467   -2.643450
     64          6           0       17.828740    5.223425   -0.590225
     65          1           0       -2.794080    1.699662    3.294331
     66          1           0       -7.103300    5.564938    0.666216
     67          1           0       -9.537749    0.797980   -2.738896
     68          1           0       -3.590148   -2.849333    1.937205
     69          1           0       -1.794107   -0.610794    2.385328
     70          1           0       -2.602729   -2.112148    4.196558
     71          1           0       -2.987878   -0.428819    4.572507
     72          1           0       -4.249835   -1.509978    3.971331
     73          1           0       -2.395572   -2.969694   -0.310617
     74          1           0       -1.573526   -1.485559    0.099090
     75          1           0       -0.632710   -2.636164    2.166325
     76          1           0       -1.455221   -4.101478    1.695896
     77          1           0       -2.018596    4.153943    3.380773
     78          1           0       -3.052561    5.405657    4.062861
     79          1           0       -3.142103    3.750977    4.675465
     80          1           0       -4.950016    6.629500    3.448456
     81          1           0       -5.330738    7.001950    0.435822
     82          1           0       -5.314319    8.293896    1.757509
     83          1           0       -8.473030    6.455645   -1.298486
     84          1           0      -10.140333    5.946749   -1.541393
     85          1           0       -9.475538    6.041922    0.088098
     86          1           0      -11.066316    2.456175   -2.648641
     87          1           0      -11.183046    4.178555   -2.406780
     88          1           0       -9.547943    4.571590   -4.267540
     89          1           0       -9.404302    2.833695   -4.512842
     90          1           0      -10.944733    3.643438   -4.831186
     91          1           0       -9.557189   -1.283800   -3.796552
     92          1           0       -8.701985   -2.834088   -3.843669
     93          1           0       -9.895016   -2.529366   -2.591644
     94          1           0       -4.241767   -3.580551   -1.361834
     95          1           0       -3.350568   -7.017328    0.924907
     96          1           0       -3.971077   -5.929241    2.202743
     97          1           0       -5.106789   -6.889195    1.235387
     98          1           0        2.416148   -5.803471    0.897349
     99          1           0        2.042745   -4.908415   -0.585279
    100          1           0        3.544939   -3.813235    1.884224
    101          1           0        2.696863   -3.320181   -1.756495
    102          1           0        3.882591   -2.022738   -1.876167
    103          1           0        4.408737   -3.690178   -2.034449
    104          1           0        4.846387   -1.158597    0.210636
    105          1           0        5.117234   -2.237923    1.572340
    106          1           0        6.648175   -3.611195    0.138343
    107          1           0        6.429249   -2.475935   -1.180337
    108          1           0        7.266852   -0.626687    0.320117
    109          1           0        7.631603   -1.821506    1.547858
    110          1           0        8.833786   -1.741357   -1.247028
    111          1           0        8.773513   -4.054358   -0.322590
    112          1           0       10.423379   -3.461740   -0.399401
    113          1           0        9.572372   -3.489419    1.147733
    114          1           0        9.448847    0.160148    0.227542
    115          1           0       10.039735   -0.960902    1.436165
    116          1           0       11.789660   -1.757163   -0.127563
    117          1           0       11.146524   -0.742286   -1.403242
    118          1           0       11.587520    1.278696    0.033070
    119          1           0       12.329902    0.244305    1.235318
    120          1           0       13.289871    0.566629   -1.634791
    121          1           0       13.917863   -1.644307   -0.669106
    122          1           0       15.335479   -0.630265   -0.873956
    123          1           0       14.625607   -0.832161    0.730459
    124          1           0       13.464392    2.615094   -0.253840
    125          1           0       14.388993    1.740774    0.949018
    126          1           0       16.232633    1.398603   -0.662672
    127          1           0       15.261838    2.079985   -1.952810
    128          1           0       15.255283    4.281826   -0.826241
    129          1           0       16.055108    3.597567    0.573667
    130          1           0       18.061480    3.109637   -0.788849
    131          1           0       16.583288    4.585495   -3.016409
    132          1           0       18.297641    4.164453   -3.047083
    133          1           0       17.080587    2.890862   -3.048512
    134          1           0       17.877827    5.229191    0.500704
    135          1           0       18.821338    5.467866   -0.973991
    136          1           0       17.147117    6.021746   -0.897832
    137          1           0       -5.666960    2.034297    0.806913
    138          1           0       -6.510218    0.731143   -0.574872
 ---------------------------------------------------------------------

 SCF Done:  E(UwB97XD) =  -2735.87510141     A.U. after   23 cycles

 Alpha virt. eigenvalues --    2.05985   2.06114   2.06312   2.06464   2.06543
 Alpha virt. eigenvalues --    2.06818   2.06904   2.06943   2.07384   2.07744
 Alpha virt. eigenvalues --    2.07915   2.08144   2.08487   2.09305   2.09526

  Beta  occ. eigenvalues --  -19.21272 -19.19653 -19.14843 -19.12350 -19.09702
  Beta  occ. eigenvalues --  -14.33685 -14.33672 -14.28035 -14.26106 -10.32477
  Beta  occ. eigenvalues --  -10.30175 -10.26571 -10.24257 -10.24239 -10.23771
  Beta  occ. eigenvalues --  -10.23236 -10.22708 -10.22675 -10.22587 -10.22547
  Beta  occ. eigenvalues --  -10.22364 -10.22214 -10.22173 -10.22124 -10.22058
  Beta  occ. eigenvalues --  -10.21847 -10.21788 -10.21650 -10.21586 -10.21581
  Beta  occ. eigenvalues --  -10.21232 -10.20580 -10.20383 -10.20275 -10.19530
  Beta  occ. eigenvalues --  -10.19417 -10.19280 -10.19119 -10.19115 -10.18809
  Beta  occ. eigenvalues --  -10.18670 -10.18592 -10.18257 -10.18217 -10.18185
  Beta  occ. eigenvalues --  -10.17709 -10.17561 -10.17375 -10.17358 -10.17248
  Beta  occ. eigenvalues --  -10.17051 -10.17012 -10.17004 -10.16530 -10.16193
  Beta  occ. eigenvalues --  -10.16147 -10.16069 -10.15922 -10.15821 -10.15491
  Beta  occ. eigenvalues --  -10.15040 -10.14830 -10.14107 -10.14014  -1.12677
  Beta  occ. eigenvalues --   -1.10921  -1.03612  -1.01445  -1.00888  -0.96055
  Beta  occ. eigenvalues --   -0.95355  -0.92113  -0.90880  -0.87789  -0.86942
  Beta  occ. eigenvalues --   -0.86034  -0.85040  -0.82282  -0.81907  -0.81301
  Beta  occ. eigenvalues --   -0.79992  -0.79730  -0.78685  -0.78033  -0.77805
  Beta  occ. eigenvalues --   -0.77165  -0.76846  -0.76321  -0.75499  -0.74585
  Beta  occ. eigenvalues --   -0.74338  -0.73383  -0.73364  -0.72521  -0.71955
  Beta  occ. eigenvalues --   -0.71872  -0.71376  -0.70684  -0.69703  -0.68705
  Beta  occ. eigenvalues --   -0.68300  -0.67683  -0.67181  -0.66353  -0.65513
  Beta  occ. eigenvalues --   -0.63703  -0.62608  -0.62082  -0.61604  -0.61219
  Beta  occ. eigenvalues --   -0.60662  -0.60453  -0.60115  -0.59636  -0.59250
  Beta  occ. eigenvalues --   -0.58954  -0.57074  -0.55769  -0.55378  -0.55097
  Beta  occ. eigenvalues --   -0.54432  -0.53298  -0.52530  -0.52344  -0.52047
  Beta  occ. eigenvalues --   -0.51589  -0.51297  -0.51010  -0.50872  -0.50328
  Beta  occ. eigenvalues --   -0.49789  -0.49572  -0.48961  -0.48775  -0.48494
  Beta  occ. eigenvalues --   -0.48474  -0.48392  -0.48167  -0.47878  -0.47472
  Beta  occ. eigenvalues --   -0.47110  -0.46941  -0.46610  -0.46384  -0.46137
  Beta  occ. eigenvalues --   -0.45744  -0.45536  -0.45012  -0.44467  -0.44354
  Beta  occ. eigenvalues --   -0.43993  -0.43341  -0.43070  -0.42864  -0.42769
  Beta  occ. eigenvalues --   -0.42520  -0.42300  -0.41999  -0.41868  -0.41573
  Beta  occ. eigenvalues --   -0.41456  -0.41329  -0.41068  -0.40953  -0.40767
  Beta  occ. eigenvalues --   -0.40622  -0.40169  -0.40074  -0.39932  -0.39727
  Beta  occ. eigenvalues --   -0.39603  -0.39343  -0.39212  -0.39115  -0.38893
  Beta  occ. eigenvalues --   -0.38826  -0.38664  -0.38496  -0.38166  -0.38080
  Beta  occ. eigenvalues --   -0.37792  -0.37575  -0.37490  -0.37343  -0.37085
  Beta  occ. eigenvalues --   -0.36983  -0.36662  -0.36443  -0.36368  -0.36242
  Beta  occ. eigenvalues --   -0.35874  -0.35834  -0.35726  -0.35588  -0.35540
  Beta  occ. eigenvalues --   -0.35348  -0.35317  -0.35046  -0.34947  -0.34815
  Beta  occ. eigenvalues --   -0.34682  -0.34639  -0.34464  -0.34394  -0.33939
  Beta  occ. eigenvalues --   -0.33910  -0.33785  -0.33634  -0.33256  -0.32773
  Beta  occ. eigenvalues --   -0.32526  -0.32174  -0.31958  -0.31372  -0.31093
  Beta  occ. eigenvalues --   -0.31051  -0.30877  -0.30342  -0.30072  -0.29557
  Beta  occ. eigenvalues --   -0.29166  -0.28184  -0.27456  -0.26635  -0.26090
  Beta  occ. eigenvalues --   -0.25661  -0.22632  -0.22263  -0.21687  -0.21426
  Beta  occ. eigenvalues --   -0.20516  -0.20338  -0.19729  -0.18073  -0.12709
  Beta  occ. eigenvalues --   -0.12309
  Beta virt. eigenvalues --    0.07385   0.09171   0.11532   0.12908   0.13351
  Beta virt. eigenvalues --    0.13635   0.14009   0.14685   0.14906   0.15023
  Beta virt. eigenvalues --    0.15167   0.15963   0.16057   0.16166   0.16313

 Mulliken charges and spin densities:
               1          2
     1  C   -0.242698   0.069997
     2  C   -0.621613   0.104822
     3  C   -0.499606   0.069565
     4  C   -0.415809   0.294733
     5  N   -0.434402   0.109382
     6  C    0.315095  -0.032102
     7  C    0.019573  -0.000488
     8  C    0.099831   0.003781
     9  C    0.267314  -0.004918
    10  C   -0.387498  -0.000133
    11  C   -0.307336   0.000371
    12  C   -0.224001  -0.000435
    13  C    0.419562   0.000024
    14  O   -0.398687   0.000008
    15  O   -0.289137  -0.000004
    16  N   -0.191713  -0.044400
    17  C    0.284170   0.058708
    18  C   -0.124108   0.088150
    19  C    0.084308   0.055424
    20  C    0.199043   0.054403
    21  C   -0.356102  -0.006191
    22  C   -0.207860  -0.017108
    23  C   -0.319572   0.034071
    24  N   -0.519319   0.132658
    25  C    0.295061  -0.006618
    26  C    0.017565  -0.052645
    27  C   -0.099124   0.032401
    28  C    0.368403  -0.122950
    29  C   -0.378705   0.004453
    30  C   -0.269636  -0.002386
    31  C   -0.316253   0.001622
    32  N   -0.177200   0.003566
    33  C    0.293451  -0.079073
    34  C   -0.194635   0.176452
    35  C   -0.021952   0.008264
    36  C    0.032461   0.009709
    37  C   -0.371306  -0.009690
    38  C    0.149564   0.015256
    39  O   -0.388417   0.040574
    40  C    0.086875  -0.000443
    41  C    0.301781   0.001799
    42  O   -0.365729   0.001354
    43  O   -0.275690  -0.000146
    44  C   -0.199777   0.000019
    45  C   -0.017072  -0.000001
    46  C   -0.253139  -0.000003
    47  C    0.125564   0.000002
    48  C   -0.402180   0.000000
    49  C   -0.200470   0.000000
    50  C   -0.245628   0.000000
    51  C   -0.186400   0.000000
    52  C    0.052941   0.000000
    53  C   -0.400285  -0.000000
    54  C   -0.193238  -0.000000
    55  C   -0.222546   0.000000
    56  C   -0.192755  -0.000000
    57  C    0.057338   0.000000
    58  C   -0.400274  -0.000000
    59  C   -0.191670   0.000000
    60  C   -0.226703   0.000000
    61  C   -0.194059  -0.000000
    62  C    0.013502   0.000000
    63  C   -0.369296  -0.000000
    64  C   -0.331066  -0.000000
    65  H    0.106789  -0.004029
    66  H    0.162779  -0.002223
    67  H    0.102354  -0.010294
    68  H    0.098486  -0.000815
    69  H    0.057256  -0.000233
    70  H    0.094693   0.001504
    71  H    0.108644   0.000674
    72  H    0.138854  -0.000161
    73  H    0.127338  -0.000229
    74  H    0.130212   0.000108
    75  H    0.123387   0.000321
    76  H    0.123953  -0.000023
    77  H    0.120604   0.006021
    78  H    0.098788  -0.000126
    79  H    0.118473   0.003991
    80  H    0.103525   0.002803
    81  H    0.148102  -0.001209
    82  H    0.100449  -0.000812
    83  H    0.122865  -0.002680
    84  H    0.097743  -0.000083
    85  H    0.124412  -0.002013
    86  H    0.099790   0.002114
    87  H    0.087588   0.000272
    88  H    0.104020   0.000101
    89  H    0.125100  -0.000110
    90  H    0.086860  -0.000170
    91  H    0.099617   0.002256
    92  H    0.132904   0.003660
    93  H    0.115816   0.010677
    94  H    0.085184   0.000645
    95  H    0.117895   0.000010
    96  H    0.122598  -0.000023
    97  H    0.135909   0.000009
    98  H    0.097674  -0.000001
    99  H    0.127636  -0.000000
   100  H    0.103919   0.000000
   101  H    0.166969   0.000000
   102  H    0.119053   0.000000
   103  H    0.125951   0.000000
   104  H    0.115838   0.000000
   105  H    0.096156   0.000000
   106  H    0.105790  -0.000000
   107  H    0.102842   0.000000
   108  H    0.092059  -0.000000
   109  H    0.091550   0.000000
   110  H    0.056456  -0.000000
   111  H    0.125410   0.000000
   112  H    0.117322   0.000000
   113  H    0.102849   0.000000
   114  H    0.091900   0.000000
   115  H    0.089148   0.000000
   116  H    0.096855  -0.000000
   117  H    0.087377  -0.000000
   118  H    0.091129   0.000000
   119  H    0.088957   0.000000
   120  H    0.055483  -0.000000
   121  H    0.122188   0.000000
   122  H    0.120359   0.000000
   123  H    0.102814  -0.000000
   124  H    0.091689  -0.000000
   125  H    0.090397  -0.000000
   126  H    0.092760  -0.000000
   127  H    0.097570   0.000000
   128  H    0.092502  -0.000000
   129  H    0.088833   0.000000
   130  H    0.057153  -0.000000
   131  H    0.104279  -0.000000
   132  H    0.110737   0.000000
   133  H    0.122092   0.000000
   134  H    0.109406  -0.000000
   135  H    0.110866   0.000000
   136  H    0.102970  -0.000000
   137  H    0.226354  -0.000609
   138  H    0.226988  -0.001163
 Sum of Mulliken charges =  -1.00000   1.00000

 Dipole moment (field-independent basis, Debye):
    X=             31.1732    Y=             -1.4061    Z=              2.1051  Tot=             31.2759
 Quadrupole moment (field-independent basis, Debye-Ang):
   XX=           -611.1693   YY=           -449.6033   ZZ=           -409.7122
   XY=             -4.3430   XZ=            -12.5764   YZ=            -18.5589

 Normal termination of Gaussian 16 at Thu Dec  5 05:43:28 2019.
