 Gaussian 09, Revision D.01,
 Gaussian 09:  ES64L-G09RevD.01 24-Apr-2013

 ---------------------------------
 #n B3LYP/6-31G(d,p) Opt nosymm td
 ---------------------------------

 --------------
 AlQ3S1Geom.com
 --------------
 Symbolic Z-matrix:
 Charge =  0 Multiplicity = 1

 SCF Done:  E(RB3LYP) =  -1672.31495584     A.U. after   17 cycles
 SCF Done:  E(RB3LYP) =  -1672.35126664     A.U. after   14 cycles
 SCF Done:  E(RB3LYP) =  -1672.36608250     A.U. after   15 cycles
 SCF Done:  E(RB3LYP) =  -1672.36793455     A.U. after   13 cycles
 SCF Done:  E(RB3LYP) =  -1672.36756817     A.U. after   13 cycles
 SCF Done:  E(RB3LYP) =  -1672.36782756     A.U. after   12 cycles
 SCF Done:  E(RB3LYP) =  -1672.36821712     A.U. after   12 cycles
 SCF Done:  E(RB3LYP) =  -1672.36839909     A.U. after   10 cycles
 SCF Done:  E(RB3LYP) =  -1672.36846717     A.U. after   10 cycles
 SCF Done:  E(RB3LYP) =  -1672.36840265     A.U. after    8 cycles
 SCF Done:  E(RB3LYP) =  -1672.36835017     A.U. after    8 cycles
 SCF Done:  E(RB3LYP) =  -1672.36833128     A.U. after    8 cycles
 SCF Done:  E(RB3LYP) =  -1672.36833691     A.U. after    7 cycles

 Excitation energies and oscillator strengths:

 Excited state symmetry could not be determined.
 Excited State   1:      Singlet-?Sym    2.0201 eV  613.74 nm  f=0.0205  <S**2>=0.000
     119 ->120        -0.70303
 This state for optimization and/or second-order correction.
 Total Energy, E(TD-HF/TD-KS) =  -1672.29409841
 Copying the excited state density for this state as the 1-particle RhoCI density.

 Excited state symmetry could not be determined.
 Excited State   2:      Singlet-?Sym    2.5559 eV  485.08 nm  f=0.0007  <S**2>=0.000
     118 ->120        -0.70406

 Excited state symmetry could not be determined.
 Excited State   3:      Singlet-?Sym    2.5727 eV  481.93 nm  f=0.0027  <S**2>=0.000
     117 ->120         0.19482
     119 ->121        -0.64159
     119 ->122        -0.21772

 Optimization completed.
    -- Stationary point found.

                          Input orientation:
 ---------------------------------------------------------------------
 Center     Atomic      Atomic             Coordinates (Angstroms)
 Number     Number       Type             X           Y           Z
 ---------------------------------------------------------------------
      1         13           0       -0.630322   -0.988460    0.249594
      2          8           0        0.713334   -2.407971    0.118937
      3          8           0       -2.014561   -2.068935   -0.353044
      4          8           0       -0.946234   -1.332665    2.054529
      5          6           0       -0.222556   -0.701157    2.945009
      6          6           0       -0.319905   -0.856390    4.327597
      7          6           0        0.522418   -0.122431    5.188924
      8          6           0        1.471137    0.774080    4.727172
      9          6           0        1.606323    0.970647    3.331250
     10          6           0        0.754127    0.233431    2.460252
     11          6           0        2.525525    1.849325    2.705024
     12          6           0        2.557670    1.953597    1.328716
     13          6           0        1.670662    1.181426    0.550482
     14          7           0        0.795391    0.350991    1.104349
     15          6           0        1.317852   -2.478957   -1.010176
     16          6           0        2.271493   -3.498402   -1.308268
     17          6           0        2.884894   -3.508870   -2.559601
     18          6           0        2.569111   -2.531986   -3.500851
     19          6           0        1.611403   -1.478828   -3.234997
     20          6           0        1.005646   -1.471059   -1.999269
     21          6           0        1.264220   -0.455777   -4.186657
     22          6           0        0.291765    0.472560   -3.767010
     23          6           0       -0.275382    0.414533   -2.508929
     24          7           0        0.069538   -0.537791   -1.568023
     25          6           0       -3.178865   -1.484903   -0.497113
     26          6           0       -4.349107   -2.120083   -0.913846
     27          6           0       -5.553604   -1.397943   -1.032122
     28          6           0       -5.646127   -0.046019   -0.748707
     29          6           0       -3.265612   -0.078657   -0.208213
     30          6           0       -4.487000    0.646809   -0.324421
     31          6           0       -4.430241    2.025148    0.000831
     32          6           0       -3.239725    2.595140    0.402856
     33          6           0       -2.081342    1.796766    0.483158
     34          7           0       -2.096149    0.503834    0.184301
     35          1           0       -4.314668   -3.180522   -1.138870
     36          1           0       -6.443520   -1.930650   -1.357125
     37          1           0       -6.587110    0.486028   -0.844812
     38          1           0       -5.333380    2.625977   -0.068333
     39          1           0       -3.178201    3.647362    0.658315
     40          1           0       -1.130209    2.216207    0.793592
     41          1           0       -1.048103   -1.554008    4.726853
     42          1           0        0.418759   -0.273449    6.260293
     43          1           0        2.107595    1.322625    5.414115
     44          1           0        3.203744    2.437239    3.318202
     45          1           0        3.255543    2.619814    0.833149
     46          1           0        1.667629    1.235888   -0.532960
     47          1           0        2.482761   -4.242012   -0.548137
     48          1           0        3.608080   -4.279535   -2.804984
     49          1           0        3.051032   -2.551498   -4.474048
     50          1           0       -1.032309    1.127928   -2.205195
     51          1           0        1.711493   -0.424201   -5.171147
     52          1           0       -0.036702    1.259333   -4.439743
 ---------------------------------------------------------------------

 Alpha  occ. eigenvalues --  -56.04326 -19.10969 -19.10501 -19.10220 -14.38171
 Alpha  occ. eigenvalues --  -14.37576 -14.37024 -10.25291 -10.24825 -10.24376
 Alpha  occ. eigenvalues --  -10.23799 -10.23365 -10.23357 -10.23260 -10.22845
 Alpha  occ. eigenvalues --  -10.22588 -10.22370 -10.22337 -10.22017 -10.21845
 Alpha  occ. eigenvalues --  -10.21498 -10.21188 -10.21168 -10.21133 -10.20833
 Alpha  occ. eigenvalues --  -10.19270 -10.18973 -10.18585 -10.18241 -10.17916
 Alpha  occ. eigenvalues --  -10.17508 -10.17421 -10.17089 -10.16590  -4.11476
 Alpha  occ. eigenvalues --   -2.66899  -2.66874  -2.66848  -1.01049  -1.00153
 Alpha  occ. eigenvalues --   -0.99820  -0.96428  -0.95883  -0.95251  -0.84599
 Alpha  occ. eigenvalues --   -0.84196  -0.83815  -0.81200  -0.80954  -0.80784
 Alpha  occ. eigenvalues --   -0.75969  -0.75881  -0.75573  -0.72187  -0.71765
 Alpha  occ. eigenvalues --   -0.70256  -0.66195  -0.65393  -0.64972  -0.64311
 Alpha  occ. eigenvalues --   -0.63915  -0.63294  -0.59410  -0.58943  -0.58748
 Alpha  occ. eigenvalues --   -0.54551  -0.53555  -0.53303  -0.52579  -0.52025
 Alpha  occ. eigenvalues --   -0.51663  -0.51366  -0.50774  -0.50524  -0.47471
 Alpha  occ. eigenvalues --   -0.46274  -0.46116  -0.45882  -0.44760  -0.44722
 Alpha  occ. eigenvalues --   -0.44201  -0.43891  -0.43707  -0.43443  -0.43061
 Alpha  occ. eigenvalues --   -0.42891  -0.42460  -0.42117  -0.41859  -0.41381
 Alpha  occ. eigenvalues --   -0.41061  -0.40151  -0.38604  -0.37355  -0.37263
 Alpha  occ. eigenvalues --   -0.36877  -0.36192  -0.36072  -0.35947  -0.35626
 Alpha  occ. eigenvalues --   -0.35281  -0.34587  -0.33602  -0.33174  -0.32588
 Alpha  occ. eigenvalues --   -0.32067  -0.31224  -0.29516  -0.28908  -0.28701
 Alpha  occ. eigenvalues --   -0.28002  -0.27007  -0.26126  -0.25903  -0.25611
 Alpha  occ. eigenvalues --   -0.25249  -0.19307  -0.18935  -0.17722
 Alpha virt. eigenvalues --   -0.07757  -0.06495  -0.06005  -0.02334  -0.01694
 Alpha virt. eigenvalues --   -0.01220   0.03164   0.03576   0.03816   0.07953
 Alpha virt. eigenvalues --    0.08467   0.08717   0.08965   0.09121   0.09292

 Mulliken charges:
               1
     1  Al   0.996031
     2  O   -0.621348
     3  O   -0.630475
     4  O   -0.632489
     5  C    0.448146
     6  C   -0.149357
     7  C   -0.077877
     8  C   -0.168922
     9  C    0.162865
    10  C    0.185204
    11  C   -0.092380
    12  C   -0.126189
    13  C    0.101655
    14  N   -0.572101
    15  C    0.433102
    16  C   -0.150744
    17  C   -0.066666
    18  C   -0.182128
    19  C    0.151501
    20  C    0.194581
    21  C   -0.082925
    22  C   -0.124259
    23  C    0.107690
    24  N   -0.578498
    25  C    0.451317
    26  C   -0.149072
    27  C   -0.077415
    28  C   -0.167970
    29  C    0.188158
    30  C    0.160333
    31  C   -0.090471
    32  C   -0.126615
    33  C    0.101004
    34  N   -0.570958
    35  H    0.098988
    36  H    0.087915
    37  H    0.077523
    38  H    0.106428
    39  H    0.102438
    40  H    0.119195
    41  H    0.096478
    42  H    0.086115
    43  H    0.075960
    44  H    0.104670
    45  H    0.099852
    46  H    0.113674
    47  H    0.095010
    48  H    0.087232
    49  H    0.065417
    50  H    0.120485
    51  H    0.117122
    52  H    0.102768
 Sum of Mulliken charges =   0.00000

 Dipole moment (field-independent basis, Debye):
    X=              0.6904    Y=              7.9028    Z=             -2.9864  Tot=              8.4764
 Quadrupole moment (field-independent basis, Debye-Ang):
   XX=           -178.5657   YY=           -193.7294   ZZ=           -178.8669
   XY=             -4.9982   XZ=              2.2310   YZ=              4.0911

 Normal termination of Gaussian 09 at Thu Jan 24 13:59:29 2019.
