 Gaussian 16, Revision A.03,
 Gaussian 16:  ES64L-G16RevA.03 25-Dec-2016

 --------------------------
 # td=(NStates=1) B3LYP/SVP
 --------------------------

 --
 TD
 --
 Symbolic Z-matrix:
 Charge =  0 Multiplicity = 1

                         Standard orientation:
 ---------------------------------------------------------------------
 Center     Atomic      Atomic             Coordinates (Angstroms)
 Number     Number       Type             X           Y           Z
 ---------------------------------------------------------------------
      1          8           0        3.789140   -5.023742   -1.730722
      2          8           0       -3.416466   -4.834648   -0.943177
      3          8           0       -6.922780   -1.297585   -1.925097
      4          8           0       -4.137825   -3.102587    0.245541
      5          8           0       -7.656212   -0.216025   -0.080802
      6          8           0        3.148416    2.203853    0.494898
      7          7           0        0.338956   -0.511044    0.629464
      8          7           0       -1.431076    1.950609    0.369116
      9          7           0        3.031034   -3.194706   -0.765413
     10          7           0        0.995519    2.873487    0.159837
     11          6           0       -0.690587   -2.316276    1.404529
     12          6           0       -0.938826   -0.966217    0.931946
     13          6           0        0.685015   -2.609295    1.341510
     14          6           0        1.223826   -1.451606    0.701675
     15          6           0       -3.669657    1.690637    0.211616
     16          6           0       -2.446130    0.986325    0.555115
     17          6           0       -2.213136   -0.323965    0.866620
     18          6           0       -3.398400    2.946666   -0.095083
     19          6           0       -1.649045   -3.220239    2.005978
     20          6           0        5.275505   -3.036712   -1.332440
     21          6           0        3.448754   -1.832304   -0.248095
     22          6           0       -1.911399    3.163221    0.049579
     23          6           0        4.917041   -1.785719   -0.578208
     24          6           0       -5.101903    1.076340    0.283853
     25          6           0        2.596151   -1.065592    0.402475
     26          6           0        1.436514   -3.942886    1.776862
     27          6           0        4.093165   -3.885276   -1.347990
     28          6           0       -2.128222   -4.375771    1.161774
     29          6           0       -5.328921    0.101856   -0.816755
     30          6           0       -4.385974    4.039251   -0.573091
     31          6           0       -1.081334    4.210091   -0.231322
     32          6           0        6.538543   -3.746547   -0.873420
     33          6           0        5.799100   -0.739923   -0.360164
     34          6           0        0.316660    3.984605   -0.125912
     35          6           0        1.317835    5.079807   -0.371927
     36          6           0        2.596122    4.507974   -0.220460
     37          6           0       -3.341308   -3.969625    0.131036
     38          6           0        5.513599    0.407096    0.445729
     39          6           0       -6.727325   -0.462467   -0.874183
     40          6           0        3.953926    5.072550   -0.348199
     41          6           0        2.308620    2.981834    0.220493
     42          6           0        1.059856    6.509295   -0.788315
     43          6           0        4.578981    5.265878    1.090473
     44          1           0        0.505452    0.401940   -0.022705
     45          1           0       -3.105963   -0.890306    0.900673
     46          1           0       -2.614595   -2.559462    2.141502
     47          1           0       -1.128397   -3.493863    2.843276
     48          1           0        5.389376   -2.798186   -2.317301
     49          1           0       -5.265132    0.464614    1.210524
     50          1           0       -5.774882    1.942746    0.391087
     51          1           0        2.753412   -0.044900    0.728718
     52          1           0       -0.529548    1.782565    0.174930
     53          1           0        1.419053   -4.586918    0.598699
     54          1           0        2.522256   -3.636147    2.044510
     55          1           0        1.014632   -4.617979    2.543284
     56          1           0        1.943024   -3.409700   -0.952466
     57          1           0       -1.385861   -4.858274    0.404660
     58          1           0       -2.398540   -5.367091    1.643567
     59          1           0       -4.667454   -0.722771   -0.942156
     60          1           0       -5.120548    0.825411   -1.756313
     61          1           0       -4.082999    4.970235    0.015222
     62          1           0       -5.562334    3.763688   -0.412118
     63          1           0       -4.295199    3.976623   -1.772495
     64          1           0       -1.465644    5.145721   -0.583811
     65          1           0        7.365420   -3.014729   -0.833577
     66          1           0        6.559212   -4.656995   -1.610879
     67          1           0        6.381545   -4.235362    0.064069
     68          1           0        6.896380   -0.885652   -0.706272
     69          1           0        4.856983    1.090188   -0.124058
     70          1           0        6.417467    0.841843    0.702505
     71          1           0        5.053745    0.237008    1.448626
     72          1           0        3.965659    5.848778   -1.100813
     73          1           0        4.440421    4.306820   -0.904708
     74          1           0        0.679944    6.498279   -1.635940
     75          1           0        1.911482    7.025329   -0.904049
     76          1           0        0.418377    7.063501   -0.041461
     77          1           0        3.925800    6.156746    1.500173
     78          1           0        5.630703    5.788465    1.121519
     79          1           0        4.478522    4.253840    1.776124
     80          1           0       -4.136692   -4.406280   -1.520722
     81          1           0       -7.852570   -1.620318   -1.722186
 ---------------------------------------------------------------------

 SCF Done:  E(RB3LYP) =  -1949.08073930     A.U. after   16 cycles

 Excitation energies and oscillator strengths:

 Excited State   1:      Singlet-A      1.9413 eV  638.65 nm  f=0.2812  <S**2>=0.000
     156 ->157         0.70396
 This state for optimization and/or second-order correction.
 Total Energy, E(TD-HF/TD-DFT) =  -1949.00939627
 Copying the excited state density for this state as the 1-particle RhoCI density.

 The electronic state is 1-A.
 Alpha  occ. eigenvalues --  -19.19173 -19.19123 -19.15351 -19.13077 -19.11211
 Alpha  occ. eigenvalues --  -19.09579 -14.38912 -14.35966 -14.35775 -14.28694
 Alpha  occ. eigenvalues --  -10.33902 -10.32716 -10.28248 -10.26776 -10.24911
 Alpha  occ. eigenvalues --  -10.24072 -10.23941 -10.23401 -10.23215 -10.23180
 Alpha  occ. eigenvalues --  -10.23147 -10.23081 -10.22752 -10.21813 -10.21628
 Alpha  occ. eigenvalues --  -10.20929 -10.20780 -10.20687 -10.20629 -10.20277
 Alpha  occ. eigenvalues --  -10.20272 -10.20220 -10.19911 -10.19670 -10.19583
 Alpha  occ. eigenvalues --  -10.19276 -10.19252 -10.19123 -10.18517 -10.18395
 Alpha  occ. eigenvalues --  -10.18177 -10.16928 -10.16425  -1.11167  -1.09559
 Alpha  occ. eigenvalues --   -1.04441  -1.01984  -1.01488  -1.00189  -0.99303
 Alpha  occ. eigenvalues --   -0.99177  -0.92732  -0.91028  -0.83572  -0.82904
 Alpha  occ. eigenvalues --   -0.81809  -0.81389  -0.79222  -0.79111  -0.78685
 Alpha  occ. eigenvalues --   -0.77570  -0.76398  -0.75871  -0.74816  -0.72120
 Alpha  occ. eigenvalues --   -0.70281  -0.69043  -0.68744  -0.67903  -0.67640
 Alpha  occ. eigenvalues --   -0.67280  -0.66059  -0.64783  -0.62188  -0.61453
 Alpha  occ. eigenvalues --   -0.59840  -0.59372  -0.59137  -0.57462  -0.56901
 Alpha  occ. eigenvalues --   -0.56152  -0.55760  -0.54344  -0.53528  -0.52876
 Alpha  occ. eigenvalues --   -0.52383  -0.51809  -0.50984  -0.50339  -0.50066
 Alpha  occ. eigenvalues --   -0.49570  -0.49118  -0.48788  -0.48002  -0.47846
 Alpha  occ. eigenvalues --   -0.47621  -0.46935  -0.46389  -0.46305  -0.45642
 Alpha  occ. eigenvalues --   -0.45379  -0.44866  -0.44546  -0.44384  -0.44131
 Alpha  occ. eigenvalues --   -0.43514  -0.43287  -0.42943  -0.42776  -0.42329
 Alpha  occ. eigenvalues --   -0.42210  -0.41995  -0.41643  -0.41512  -0.41356
 Alpha  occ. eigenvalues --   -0.40986  -0.40898  -0.40692  -0.40487  -0.40188
 Alpha  occ. eigenvalues --   -0.39953  -0.39631  -0.39290  -0.39212  -0.38477
 Alpha  occ. eigenvalues --   -0.37971  -0.37639  -0.37029  -0.36734  -0.36655
 Alpha  occ. eigenvalues --   -0.36100  -0.35799  -0.35193  -0.35052  -0.34752
 Alpha  occ. eigenvalues --   -0.34507  -0.34072  -0.34035  -0.33539  -0.33205
 Alpha  occ. eigenvalues --   -0.32844  -0.32282  -0.32248  -0.30704  -0.30129
 Alpha  occ. eigenvalues --   -0.28594  -0.27430  -0.26896  -0.25683  -0.24922
 Alpha  occ. eigenvalues --   -0.24713  -0.24508  -0.23435  -0.22582  -0.22302
 Alpha  occ. eigenvalues --   -0.18345
 Alpha virt. eigenvalues --   -0.10301  -0.05354  -0.03647  -0.01524  -0.01104
 Alpha virt. eigenvalues --    0.00571   0.01185   0.01924   0.02833   0.03322
 Alpha virt. eigenvalues --    0.04327   0.04863   0.05086   0.05429   0.05657

 Mulliken charges:
               1
     1  O   -0.239247
     2  O   -0.223831
     3  O   -0.197928
     4  O   -0.196407
     5  O   -0.264965
     6  O   -0.167273
     7  N   -0.063826
     8  N   -0.022954
     9  N   -0.244226
    10  N   -0.248788
    11  C   -0.142728
    12  C    0.083279
    13  C   -0.136414
    14  C    0.003565
    15  C   -0.064867
    16  C    0.040713
    17  C   -0.034913
    18  C   -0.142068
    19  C    0.163786
    20  C    0.044741
    21  C    0.204752
    22  C    0.115237
    23  C   -0.024423
    24  C    0.117096
    25  C   -0.189203
    26  C    0.014337
    27  C    0.095079
    28  C   -0.046470
    29  C   -0.024796
    30  C   -0.003857
    31  C   -0.138912
    32  C    0.047744
    33  C   -0.189117
    34  C    0.102530
    35  C   -0.174206
    36  C   -0.258980
    37  C    0.128770
    38  C    0.108581
    39  C    0.164335
    40  C    0.146608
    41  C    0.118726
    42  C    0.281644
    43  C   -0.078754
    44  H    0.191845
    45  H   -0.021828
    46  H    0.036153
    47  H   -0.009872
    48  H    0.009736
    49  H    0.022190
    50  H    0.017092
    51  H    0.023695
    52  H    0.052266
    53  H    0.049901
    54  H    0.057760
    55  H    0.033007
    56  H    0.182754
    57  H    0.039821
    58  H    0.051256
    59  H    0.039035
    60  H    0.051167
    61  H    0.060320
    62  H    0.045937
    63  H    0.058838
    64  H   -0.030385
    65  H    0.027723
    66  H    0.041332
    67  H    0.007315
    68  H    0.011402
    69  H    0.069377
    70  H   -0.021442
    71  H    0.031214
    72  H   -0.015536
    73  H   -0.011438
    74  H   -0.056429
    75  H   -0.041986
    76  H    0.017422
    77  H    0.021189
    78  H    0.029265
    79  H    0.074377
    80  H    0.200210
    81  H    0.192947
 Sum of Mulliken charges =  -0.00000

 Dipole moment (field-independent basis, Debye):
    X=             -1.7152    Y=              2.0958    Z=             -1.4773  Tot=              3.0849
 Quadrupole moment (field-independent basis, Debye-Ang):
   XX=           -253.6688   YY=           -252.2341   ZZ=           -254.1776
   XY=             14.3626   XZ=             12.6338   YZ=            -16.3541

 Normal termination of Gaussian 16 at Sat Jun 29 09:15:29 2019.
