 Gaussian 16, Revision A.03,
 Gaussian 16:  ES64L-G16RevA.03 25-Dec-2016

 --------------------------
 # td=(NStates=1) B3LYP/SVP
 --------------------------

 --
 TD
 --
 Symbolic Z-matrix:
 Charge =  0 Multiplicity = 1

                         Standard orientation:
 ---------------------------------------------------------------------
 Center     Atomic      Atomic             Coordinates (Angstroms)
 Number     Number       Type             X           Y           Z
 ---------------------------------------------------------------------
      1          8           0       -4.095500   -4.987661    1.920064
      2          8           0        3.298165   -4.982219    0.994485
      3          8           0        7.036755   -1.242510    2.011459
      4          8           0        3.786260   -2.990067   -0.101560
      5          8           0        7.523897   -0.348974    0.051163
      6          8           0       -3.108163    2.362868   -0.437091
      7          7           0       -0.244382   -0.515481   -0.694719
      8          7           0        1.492383    1.867240   -0.427460
      9          7           0       -3.227762   -3.334157    0.581253
     10          7           0       -0.935138    2.856265   -0.016088
     11          6           0        0.779533   -2.412459   -1.381172
     12          6           0        0.994374   -1.022377   -0.979113
     13          6           0       -0.650420   -2.664467   -1.347556
     14          6           0       -1.232006   -1.486996   -0.792891
     15          6           0        3.765830    1.583832   -0.267157
     16          6           0        2.459311    0.859875   -0.556476
     17          6           0        2.274202   -0.415885   -0.844305
     18          6           0        3.445275    2.992578    0.016757
     19          6           0        1.764338   -3.381488   -2.005589
     20          6           0       -5.356636   -2.900178    1.366697
     21          6           0       -3.458724   -1.993618    0.136507
     22          6           0        1.937926    3.074455    0.000485
     23          6           0       -4.922194   -1.689811    0.403701
     24          6           0        5.115379    0.977223   -0.353904
     25          6           0       -2.529244   -1.067901   -0.437235
     26          6           0       -1.341400   -3.817446   -1.804011
     27          6           0       -4.225983   -3.901171    1.423410
     28          6           0        2.182486   -4.432118   -1.100276
     29          6           0        5.355997    0.079880    0.958989
     30          6           0        4.372173    4.052081    0.471309
     31          6           0        1.163539    4.120791    0.292700
     32          6           0       -6.761077   -3.591997    1.244104
     33          6           0       -5.811896   -0.756717   -0.011889
     34          6           0       -0.272109    3.939812    0.235530
     35          6           0       -1.303016    5.123551    0.477383
     36          6           0       -2.498564    4.538818    0.257914
     37          6           0        3.173922   -4.003837   -0.083733
     38          6           0       -5.427798    0.488284   -0.766361
     39          6           0        6.765999   -0.579428    0.923656
     40          6           0       -3.857847    5.193964    0.375782
     41          6           0       -2.303794    3.146474   -0.121090
     42          6           0       -0.952816    6.486986    0.825982
     43          6           0       -4.329572    5.639159   -1.034777
     44          1           0       -0.367107    0.422424   -0.154051
     45          1           0        3.260542   -1.023384   -1.003122
     46          1           0        2.665012   -2.842018   -2.427701
     47          1           0        1.284560   -3.896138   -2.871729
     48          1           0       -5.378131   -2.412754    2.426120
     49          1           0        5.034543    0.446665   -1.135716
     50          1           0        6.006822    1.612927   -0.346111
     51          1           0       -2.972277    0.041150   -0.710481
     52          1           0        0.526949    1.698337   -0.593149
     53          1           0       -1.098026   -4.816819   -1.248511
     54          1           0       -2.517147   -3.737881   -1.930942
     55          1           0       -1.143909   -4.030600   -2.740193
     56          1           0       -2.318542   -3.771630    0.492063
     57          1           0        1.435357   -4.751795   -0.526425
     58          1           0        2.405575   -5.254430   -1.714142
     59          1           0        4.788246   -0.644731    0.675415
     60          1           0        5.145371    0.609537    1.824287
     61          1           0        4.638465    4.886011   -0.313988
     62          1           0        5.378057    3.652152    0.820894
     63          1           0        4.000615    4.330150    1.484443
     64          1           0        1.484460    5.171054    0.317396
     65          1           0       -7.643465   -2.984515    1.405843
     66          1           0       -7.010194   -4.457434    1.807211
     67          1           0       -6.879052   -3.835158    0.082505
     68          1           0       -6.815246   -0.842905    0.613137
     69          1           0       -5.207673    1.317045   -0.162559
     70          1           0       -6.317779    0.739061   -1.394586
     71          1           0       -4.734972    0.195447   -1.569816
     72          1           0       -3.749681    6.279041    0.962327
     73          1           0       -4.673523    4.489013    0.794454
     74          1           0       -0.237195    6.473908    1.697946
     75          1           0       -1.886246    6.951758    1.175707
     76          1           0       -0.444947    7.224790    0.027909
     77          1           0       -3.897408    6.612679   -1.435928
     78          1           0       -5.384934    5.899496   -0.907422
     79          1           0       -4.296376    4.760827   -1.787092
     80          1           0        3.909530   -4.597788    1.604950
     81          1           0        7.991558   -1.601261    2.011765
 ---------------------------------------------------------------------

 SCF Done:  E(RB3LYP) =  -1949.11895334     A.U. after   16 cycles

 Excitation energies and oscillator strengths:

 Excited State   1:      Singlet-A      1.8150 eV  683.09 nm  f=0.2812  <S**2>=0.000
     156 ->157         0.70517
 This state for optimization and/or second-order correction.
 Total Energy, E(TD-HF/TD-DFT) =  -1949.05225173
 Copying the excited state density for this state as the 1-particle RhoCI density.

 The electronic state is 1-A.
 Alpha  occ. eigenvalues --  -19.19288 -19.17579 -19.15770 -19.12117 -19.11646
 Alpha  occ. eigenvalues --  -19.11174 -14.37533 -14.36109 -14.35887 -14.28996
 Alpha  occ. eigenvalues --  -10.33665 -10.31483 -10.29165 -10.26867 -10.24596
 Alpha  occ. eigenvalues --  -10.24145 -10.23450 -10.23049 -10.22798 -10.22510
 Alpha  occ. eigenvalues --  -10.21469 -10.21367 -10.21197 -10.20727 -10.20726
 Alpha  occ. eigenvalues --  -10.20709 -10.20692 -10.20630 -10.20479 -10.20226
 Alpha  occ. eigenvalues --  -10.19919 -10.19622 -10.19567 -10.19530 -10.19210
 Alpha  occ. eigenvalues --  -10.19166 -10.19116 -10.18834 -10.18551 -10.18520
 Alpha  occ. eigenvalues --  -10.18459 -10.18357 -10.17377  -1.11289  -1.09936
 Alpha  occ. eigenvalues --   -1.05596  -1.03660  -1.01970  -1.01648  -0.97814
 Alpha  occ. eigenvalues --   -0.96586  -0.92929  -0.92818  -0.83566  -0.82313
 Alpha  occ. eigenvalues --   -0.81160  -0.80320  -0.79823  -0.79243  -0.77810
 Alpha  occ. eigenvalues --   -0.76736  -0.75930  -0.74911  -0.74064  -0.72090
 Alpha  occ. eigenvalues --   -0.71214  -0.69682  -0.69353  -0.68107  -0.67529
 Alpha  occ. eigenvalues --   -0.67075  -0.65029  -0.64169  -0.61607  -0.61469
 Alpha  occ. eigenvalues --   -0.60345  -0.59563  -0.58305  -0.56967  -0.56497
 Alpha  occ. eigenvalues --   -0.55584  -0.55410  -0.54585  -0.54130  -0.53099
 Alpha  occ. eigenvalues --   -0.52982  -0.51771  -0.51406  -0.51020  -0.49770
 Alpha  occ. eigenvalues --   -0.49724  -0.49289  -0.48236  -0.48040  -0.47511
 Alpha  occ. eigenvalues --   -0.46670  -0.46525  -0.46108  -0.45247  -0.44838
 Alpha  occ. eigenvalues --   -0.44592  -0.44427  -0.44313  -0.44084  -0.43600
 Alpha  occ. eigenvalues --   -0.43323  -0.43204  -0.42765  -0.42620  -0.42358
 Alpha  occ. eigenvalues --   -0.42013  -0.41904  -0.41476  -0.41412  -0.41276
 Alpha  occ. eigenvalues --   -0.40991  -0.40813  -0.40545  -0.40516  -0.40073
 Alpha  occ. eigenvalues --   -0.39934  -0.39522  -0.39386  -0.39054  -0.38809
 Alpha  occ. eigenvalues --   -0.38520  -0.37652  -0.37154  -0.37048  -0.36565
 Alpha  occ. eigenvalues --   -0.36024  -0.35419  -0.35132  -0.34373  -0.34210
 Alpha  occ. eigenvalues --   -0.33630  -0.33517  -0.33474  -0.33414  -0.33118
 Alpha  occ. eigenvalues --   -0.32831  -0.32603  -0.31959  -0.30571  -0.30247
 Alpha  occ. eigenvalues --   -0.27931  -0.27784  -0.26628  -0.25849  -0.25122
 Alpha  occ. eigenvalues --   -0.24999  -0.24472  -0.23949  -0.23872  -0.21424
 Alpha  occ. eigenvalues --   -0.17188
 Alpha virt. eigenvalues --   -0.09655  -0.05624  -0.03819  -0.01722   0.00475
 Alpha virt. eigenvalues --    0.01565   0.02442   0.03047   0.03392   0.03533
 Alpha virt. eigenvalues --    0.04319   0.04875   0.05523   0.06038   0.06514

 Mulliken charges:
               1
     1  O   -0.185485
     2  O   -0.248599
     3  O   -0.173890
     4  O   -0.172483
     5  O   -0.202226
     6  O   -0.130556
     7  N   -0.118193
     8  N   -0.079930
     9  N   -0.173889
    10  N   -0.263546
    11  C   -0.148286
    12  C    0.065339
    13  C   -0.115093
    14  C    0.099479
    15  C   -0.135863
    16  C    0.105419
    17  C   -0.105402
    18  C   -0.125175
    19  C    0.083253
    20  C   -0.119298
    21  C    0.075159
    22  C    0.176164
    23  C   -0.003802
    24  C    0.192207
    25  C   -0.179249
    26  C    0.068145
    27  C    0.157261
    28  C    0.138696
    29  C    0.081910
    30  C    0.045604
    31  C   -0.147144
    32  C    0.035327
    33  C   -0.186401
    34  C    0.011633
    35  C   -0.092053
    36  C   -0.140314
    37  C    0.143949
    38  C    0.106516
    39  C    0.090210
    40  C   -0.006545
    41  C    0.129569
    42  C    0.050444
    43  C   -0.029456
    44  H    0.166553
    45  H    0.055077
    46  H    0.017720
    47  H   -0.001837
    48  H    0.057528
    49  H   -0.051221
    50  H    0.012976
    51  H    0.104751
    52  H    0.103007
    53  H    0.027812
    54  H    0.043639
    55  H   -0.033804
    56  H    0.127997
    57  H   -0.017632
    58  H    0.022784
    59  H   -0.033680
    60  H    0.020568
    61  H    0.054458
    62  H    0.009086
    63  H    0.029358
    64  H   -0.010518
    65  H    0.001798
    66  H    0.025618
    67  H    0.021289
    68  H    0.018769
    69  H    0.048426
    70  H   -0.007974
    71  H    0.028763
    72  H    0.024528
    73  H    0.034742
    74  H    0.029516
    75  H    0.004281
    76  H    0.055648
    77  H    0.023010
    78  H    0.002344
    79  H    0.040667
    80  H    0.166660
    81  H    0.203890
 Sum of Mulliken charges =  -0.00000

 Dipole moment (field-independent basis, Debye):
    X=              2.8011    Y=              2.0472    Z=              0.4904  Tot=              3.5040
 Quadrupole moment (field-independent basis, Debye-Ang):
   XX=           -241.9026   YY=           -241.2269   ZZ=           -253.0486
   XY=            -19.1478   XZ=             15.2797   YZ=             15.5923

 Normal termination of Gaussian 16 at Sat Jun 29 09:05:54 2019.
