 Gaussian 16, Revision A.03,
 Gaussian 16:  ES64L-G16RevA.03 25-Dec-2016

 --------------------------
 # td=(NStates=1) B3LYP/SVP
 --------------------------

 --
 TD
 --
 Symbolic Z-matrix:
 Charge =  0 Multiplicity = 1

                         Standard orientation:
 ---------------------------------------------------------------------
 Center     Atomic      Atomic             Coordinates (Angstroms)
 Number     Number       Type             X           Y           Z
 ---------------------------------------------------------------------
      1          8           0        4.539906   -4.806819   -1.956134
      2          8           0       -2.592686   -5.034515   -0.880470
      3          8           0       -6.705246   -1.981263   -1.828941
      4          8           0       -3.602759   -3.297099    0.051821
      5          8           0       -7.575170   -0.725364   -0.106670
      6          8           0        2.947057    2.664405    0.349335
      7          7           0        0.250101   -0.485211    0.671528
      8          7           0       -1.608430    1.818502    0.350806
      9          7           0        3.336671   -3.021118   -0.737513
     10          7           0        0.663297    3.003609    0.066224
     11          6           0       -0.520104   -2.461628    1.448960
     12          6           0       -0.927431   -1.076962    0.997890
     13          6           0        0.856434   -2.617479    1.215239
     14          6           0        1.374650   -1.389080    0.724879
     15          6           0       -3.820516    1.357919    0.150667
     16          6           0       -2.550417    0.783664    0.491058
     17          6           0       -2.210551   -0.516705    0.903455
     18          6           0       -3.654209    2.710830   -0.117881
     19          6           0       -1.506449   -3.303346    2.246008
     20          6           0        5.612023   -2.680012   -1.319807
     21          6           0        3.509504   -1.753634   -0.261959
     22          6           0       -2.222543    2.975564   -0.162493
     23          6           0        4.994555   -1.479546   -0.562115
     24          6           0       -5.210541    0.716756    0.201451
     25          6           0        2.668919   -0.973828    0.304855
     26          6           0        1.619099   -3.735667    1.811062
     27          6           0        4.428319   -3.658605   -1.408453
     28          6           0       -1.846866   -4.498827    1.237200
     29          6           0       -5.366653   -0.239588   -0.965846
     30          6           0       -4.692194    3.734611   -0.467478
     31          6           0       -1.473870    4.118487   -0.446055
     32          6           0        6.925630   -3.386702   -0.925537
     33          6           0        5.778145   -0.368869   -0.091268
     34          6           0       -0.078039    4.013033   -0.260762
     35          6           0        0.784098    5.246439   -0.391533
     36          6           0        2.106779    4.795217   -0.144631
     37          6           0       -2.776022   -4.162385    0.087468
     38          6           0        5.382683    0.749305    0.650263
     39          6           0       -6.634100   -0.990355   -0.860705
     40          6           0        3.465909    5.458914   -0.249535
     41          6           0        1.932220    3.325851    0.163323
     42          6           0        0.319772    6.519227   -0.777473
     43          6           0        4.112361    5.761533    1.146282
     44          1           0        0.463169    0.454191    0.294587
     45          1           0       -3.037419   -1.289952    0.922200
     46          1           0       -2.602044   -2.838594    2.468850
     47          1           0       -1.018267   -3.823517    3.091095
     48          1           0        5.638924   -2.131376   -2.382680
     49          1           0       -5.356485    0.100076    1.090617
     50          1           0       -5.972024    1.393700    0.364332
     51          1           0        2.851003    0.071583    0.546459
     52          1           0       -0.630759    1.818705    0.662507
     53          1           0        1.505193   -4.628213    1.136501
     54          1           0        2.646345   -3.511869    2.070975
     55          1           0        1.280127   -4.120105    2.688575
     56          1           0        2.450547   -3.565061   -0.842210
     57          1           0       -0.872450   -4.909631    0.739021
     58          1           0       -2.386565   -5.303497    1.995951
     59          1           0       -4.603206   -0.949558   -1.178691
     60          1           0       -5.418867    0.404994   -1.873750
     61          1           0       -4.836924    4.628719    0.233555
     62          1           0       -5.740107    3.324185   -0.645765
     63          1           0       -4.366830    4.081296   -1.470282
     64          1           0       -1.781321    5.177890   -0.580732
     65          1           0        7.718911   -2.693597   -1.209560
     66          1           0        7.138028   -4.101911   -1.625120
     67          1           0        6.902034   -3.577561    0.172022
     68          1           0        6.903935   -0.487901   -0.086025
     69          1           0        4.874939    1.492701   -0.070910
     70          1           0        6.227769    1.119410    0.884578
     71          1           0        4.833310    0.509463    1.591464
     72          1           0        3.413500    6.518691   -0.748657
     73          1           0        4.128638    4.689247   -0.835733
     74          1           0       -0.475433    6.460043   -1.652216
     75          1           0        1.055251    7.180420   -1.026111
     76          1           0       -0.185444    7.061285    0.009489
     77          1           0        3.821672    6.592167    1.656252
     78          1           0        5.399108    6.129956    1.096788
     79          1           0        4.231151    4.885646    1.804666
     80          1           0       -3.434516   -5.097226   -1.458205
     81          1           0       -7.628766   -2.674806   -1.521845
 ---------------------------------------------------------------------

 SCF Done:  E(RB3LYP) =  -1949.09842731     A.U. after   20 cycles

 Excitation energies and oscillator strengths:

 Excited State   1:      Singlet-A      1.7920 eV  691.86 nm  f=0.3808  <S**2>=0.000
     156 ->157         0.70958
     156 <-157        -0.12974
 This state for optimization and/or second-order correction.
 Total Energy, E(TD-HF/TD-DFT) =  -1949.03257087
 Copying the excited state density for this state as the 1-particle RhoCI density.

 The electronic state is 1-A.
 Alpha  occ. eigenvalues --  -19.20076 -19.18756 -19.14342 -19.12746 -19.11628
 Alpha  occ. eigenvalues --  -19.09579 -14.38274 -14.38129 -14.35846 -14.28313
 Alpha  occ. eigenvalues --  -10.33463 -10.31839 -10.30012 -10.25492 -10.24506
 Alpha  occ. eigenvalues --  -10.24460 -10.24106 -10.23846 -10.23567 -10.23405
 Alpha  occ. eigenvalues --  -10.22753 -10.22519 -10.21608 -10.21287 -10.21044
 Alpha  occ. eigenvalues --  -10.20746 -10.20540 -10.20533 -10.20315 -10.20279
 Alpha  occ. eigenvalues --  -10.20203 -10.20121 -10.19840 -10.19470 -10.19296
 Alpha  occ. eigenvalues --  -10.18970 -10.18739 -10.18519 -10.18512 -10.18307
 Alpha  occ. eigenvalues --  -10.18298 -10.18061 -10.15839  -1.12087  -1.06336
 Alpha  occ. eigenvalues --   -1.02686  -1.01121  -1.00626  -0.98016  -0.97495
 Alpha  occ. eigenvalues --   -0.96393  -0.95051  -0.93342  -0.82320  -0.82155
 Alpha  occ. eigenvalues --   -0.81581  -0.80464  -0.79738  -0.79076  -0.77868
 Alpha  occ. eigenvalues --   -0.77744  -0.76833  -0.76107  -0.74303  -0.72266
 Alpha  occ. eigenvalues --   -0.71377  -0.70387  -0.68829  -0.68463  -0.67929
 Alpha  occ. eigenvalues --   -0.67457  -0.65757  -0.63565  -0.62295  -0.60931
 Alpha  occ. eigenvalues --   -0.60514  -0.59748  -0.57573  -0.57241  -0.56548
 Alpha  occ. eigenvalues --   -0.55965  -0.55815  -0.55448  -0.53263  -0.53155
 Alpha  occ. eigenvalues --   -0.52532  -0.51387  -0.50977  -0.50353  -0.49429
 Alpha  occ. eigenvalues --   -0.49249  -0.48801  -0.48365  -0.47429  -0.47281
 Alpha  occ. eigenvalues --   -0.47155  -0.46807  -0.45883  -0.45470  -0.45018
 Alpha  occ. eigenvalues --   -0.44932  -0.44719  -0.44437  -0.44078  -0.43671
 Alpha  occ. eigenvalues --   -0.43450  -0.42845  -0.42550  -0.42469  -0.42377
 Alpha  occ. eigenvalues --   -0.41902  -0.41718  -0.41436  -0.41188  -0.40997
 Alpha  occ. eigenvalues --   -0.40647  -0.40495  -0.40214  -0.40050  -0.39839
 Alpha  occ. eigenvalues --   -0.39536  -0.39249  -0.38896  -0.38428  -0.38342
 Alpha  occ. eigenvalues --   -0.38075  -0.37691  -0.37466  -0.37211  -0.36774
 Alpha  occ. eigenvalues --   -0.36189  -0.35743  -0.35485  -0.35062  -0.34776
 Alpha  occ. eigenvalues --   -0.34420  -0.34204  -0.33929  -0.33859  -0.32869
 Alpha  occ. eigenvalues --   -0.32554  -0.31513  -0.30303  -0.29843  -0.29776
 Alpha  occ. eigenvalues --   -0.28096  -0.26934  -0.26518  -0.25876  -0.25290
 Alpha  occ. eigenvalues --   -0.24972  -0.23971  -0.23081  -0.22315  -0.21946
 Alpha  occ. eigenvalues --   -0.17623
 Alpha virt. eigenvalues --   -0.10625  -0.05705  -0.03790  -0.01898  -0.01765
 Alpha virt. eigenvalues --   -0.01293  -0.00163   0.01596   0.02508   0.03028
 Alpha virt. eigenvalues --    0.03352   0.04308   0.04939   0.05491   0.05991

 Mulliken charges:
               1
     1  O   -0.267168
     2  O   -0.182935
     3  O   -0.308900
     4  O   -0.211422
     5  O   -0.250836
     6  O   -0.231288
     7  N   -0.115707
     8  N   -0.145431
     9  N   -0.159257
    10  N   -0.194872
    11  C   -0.125929
    12  C    0.058295
    13  C   -0.154854
    14  C    0.046726
    15  C   -0.093535
    16  C    0.101056
    17  C   -0.067940
    18  C   -0.114396
    19  C    0.107464
    20  C   -0.119567
    21  C    0.214244
    22  C    0.171278
    23  C   -0.085984
    24  C    0.157329
    25  C   -0.125384
    26  C    0.129386
    27  C    0.169078
    28  C   -0.122004
    29  C    0.024385
    30  C    0.049039
    31  C   -0.143625
    32  C    0.168859
    33  C   -0.218956
    34  C    0.027155
    35  C   -0.125560
    36  C   -0.157308
    37  C    0.140036
    38  C    0.188493
    39  C    0.167658
    40  C    0.059340
    41  C    0.106135
    42  C    0.129181
    43  C   -0.035917
    44  H    0.140420
    45  H    0.036341
    46  H    0.058002
    47  H    0.014360
    48  H    0.068049
    49  H    0.000015
    50  H   -0.013464
    51  H    0.017698
    52  H    0.138840
    53  H    0.012830
    54  H    0.023889
    55  H   -0.024367
    56  H    0.146220
    57  H    0.058187
    58  H    0.067456
    59  H    0.035464
    60  H    0.039928
    61  H    0.043398
    62  H    0.021578
    63  H    0.028757
    64  H   -0.009160
    65  H   -0.005672
    66  H   -0.001759
    67  H    0.034730
    68  H    0.006803
    69  H    0.083111
    70  H   -0.066426
    71  H    0.035283
    72  H    0.014427
    73  H    0.040702
    74  H    0.029871
    75  H   -0.029954
    76  H    0.009968
    77  H   -0.004051
    78  H   -0.012998
    79  H    0.035164
    80  H    0.213672
    81  H    0.256327
 Sum of Mulliken charges =  -0.00000

 Dipole moment (field-independent basis, Debye):
    X=             -2.9463    Y=             -1.3208    Z=              0.7764  Tot=              3.3208
 Quadrupole moment (field-independent basis, Debye-Ang):
   XX=           -256.3498   YY=           -237.2998   ZZ=           -254.4373
   XY=             17.7796   XZ=             13.6346   YZ=            -13.2945

 Normal termination of Gaussian 16 at Thu Jun 27 21:57:41 2019.
