 Gaussian 16, Revision A.03,
 Gaussian 16:  ES64L-G16RevA.03 25-Dec-2016

 --------------------------
 # td=(NStates=1) B3LYP/SVP
 --------------------------

 --
 TD
 --
 Symbolic Z-matrix:
 Charge =  0 Multiplicity = 1

                         Standard orientation:
 ---------------------------------------------------------------------
 Center     Atomic      Atomic             Coordinates (Angstroms)
 Number     Number       Type             X           Y           Z
 ---------------------------------------------------------------------
      1          8           0        4.117821   -4.928470   -1.790802
      2          8           0       -2.951665   -4.701382   -1.035723
      3          8           0       -6.784818   -1.800152   -1.922917
      4          8           0       -3.819803   -3.199986    0.398717
      5          8           0       -7.532612   -0.525682   -0.231784
      6          8           0        3.010188    2.399882    0.478909
      7          7           0        0.250531   -0.505106    0.509097
      8          7           0       -1.465699    1.840461    0.276884
      9          7           0        3.179521   -3.229384   -0.617483
     10          7           0        0.785208    2.977346    0.262756
     11          6           0       -0.570569   -2.288241    1.455374
     12          6           0       -1.023336   -1.042296    0.918727
     13          6           0        0.800433   -2.484763    1.309154
     14          6           0        1.328299   -1.326251    0.644341
     15          6           0       -3.792713    1.546286    0.287851
     16          6           0       -2.546449    0.848243    0.469126
     17          6           0       -2.273887   -0.529236    0.848034
     18          6           0       -3.532527    2.885222   -0.048092
     19          6           0       -1.521075   -3.213662    2.183667
     20          6           0        5.426783   -2.866043   -1.400793
     21          6           0        3.530669   -1.877993   -0.214036
     22          6           0       -2.043447    3.059773   -0.093653
     23          6           0        4.917759   -1.588666   -0.705053
     24          6           0       -5.062233    0.806775    0.186973
     25          6           0        2.654177   -0.961199    0.302452
     26          6           0        1.474434   -3.616788    1.965537
     27          6           0        4.171810   -3.789678   -1.393950
     28          6           0       -2.027236   -4.483182    1.246847
     29          6           0       -5.273186   -0.126593   -0.961181
     30          6           0       -4.440052    3.990544   -0.565539
     31          6           0       -1.269494    4.120993   -0.376310
     32          6           0        6.656963   -3.613318   -0.979048
     33          6           0        5.745771   -0.643983   -0.256933
     34          6           0        0.157019    4.077614   -0.151184
     35          6           0        1.065274    5.195781   -0.406642
     36          6           0        2.336853    4.579613   -0.168102
     37          6           0       -2.990774   -4.074839    0.170215
     38          6           0        5.535449    0.520006    0.440399
     39          6           0       -6.581393   -0.895635   -0.931876
     40          6           0        3.630983    5.244161   -0.258307
     41          6           0        2.103225    3.214793    0.225180
     42          6           0        0.671759    6.517856   -0.729446
     43          6           0        4.249171    5.515053    1.101348
     44          1           0        0.256347    0.558935   -0.073599
     45          1           0       -3.096927   -1.094934    1.295037
     46          1           0       -2.534692   -2.770438    2.435177
     47          1           0       -0.987472   -3.552937    3.125491
     48          1           0        5.665011   -2.797857   -2.388456
     49          1           0       -5.239409    0.213244    1.130199
     50          1           0       -5.877306    1.481820    0.211972
     51          1           0        2.772792    0.138373    0.295589
     52          1           0       -0.449090    1.895752    0.522726
     53          1           0        1.506557   -4.500598    1.444081
     54          1           0        2.560316   -3.375102    2.094827
     55          1           0        0.900376   -4.035747    2.988498
     56          1           0        2.323497   -3.708871   -0.664806
     57          1           0       -1.243484   -5.109522    0.893019
     58          1           0       -2.624013   -5.087495    1.915776
     59          1           0       -4.634543   -1.046190   -1.047779
     60          1           0       -5.359858    0.607592   -1.821959
     61          1           0       -4.261438    5.010448   -0.172017
     62          1           0       -5.555379    3.586385   -0.475820
     63          1           0       -4.114900    4.116037   -1.728117
     64          1           0       -1.723465    4.940174   -0.694910
     65          1           0        7.413861   -3.005598   -1.221527
     66          1           0        6.982922   -4.407511   -1.660380
     67          1           0        6.804822   -3.975522    0.012194
     68          1           0        6.868110   -0.760050   -0.534800
     69          1           0        4.836312    1.209262   -0.139618
     70          1           0        6.465851    1.111458    0.796962
     71          1           0        4.860599    0.377600    1.264178
     72          1           0        3.695162    6.340339   -0.880914
     73          1           0        4.083052    4.402832   -0.756084
     74          1           0        0.318442    6.641450   -1.747666
     75          1           0        1.465218    7.381674   -0.533901
     76          1           0       -0.163970    7.061046   -0.034371
     77          1           0        3.503618    6.187549    1.619202
     78          1           0        5.215996    5.984308    1.075207
     79          1           0        4.325474    4.722432    1.748567
     80          1           0       -3.867616   -4.420143   -1.465051
     81          1           0       -7.701357   -2.059166   -1.707369
 ---------------------------------------------------------------------

 SCF Done:  E(RB3LYP) =  -1949.12413768     A.U. after   20 cycles

 Excitation energies and oscillator strengths:

 Excited State   1:      Singlet-A      1.6780 eV  738.87 nm  f=0.3078  <S**2>=0.000
     156 ->157         0.71206
     156 <-157        -0.13796
 This state for optimization and/or second-order correction.
 Total Energy, E(TD-HF/TD-DFT) =  -1949.06247155
 Copying the excited state density for this state as the 1-particle RhoCI density.

 The electronic state is 1-A.
 Alpha  occ. eigenvalues --  -19.20381 -19.19168 -19.14031 -19.12527 -19.10596
 Alpha  occ. eigenvalues --  -19.09992 -14.38484 -14.37082 -14.35093 -14.28594
 Alpha  occ. eigenvalues --  -10.33765 -10.32262 -10.28473 -10.25993 -10.25860
 Alpha  occ. eigenvalues --  -10.24456 -10.23745 -10.23204 -10.23007 -10.22761
 Alpha  occ. eigenvalues --  -10.22293 -10.22084 -10.21964 -10.21836 -10.21366
 Alpha  occ. eigenvalues --  -10.20747 -10.20648 -10.20630 -10.20316 -10.20257
 Alpha  occ. eigenvalues --  -10.20242 -10.19935 -10.19826 -10.19666 -10.19572
 Alpha  occ. eigenvalues --  -10.19435 -10.19417 -10.19245 -10.18632 -10.17757
 Alpha  occ. eigenvalues --  -10.17723 -10.17351 -10.16730  -1.10248  -1.10155
 Alpha  occ. eigenvalues --   -1.03714  -1.00970  -1.00800  -0.99546  -0.96984
 Alpha  occ. eigenvalues --   -0.94832  -0.94193  -0.92398  -0.82894  -0.82665
 Alpha  occ. eigenvalues --   -0.81711  -0.81062  -0.80124  -0.79043  -0.78095
 Alpha  occ. eigenvalues --   -0.77488  -0.77255  -0.76595  -0.75422  -0.72467
 Alpha  occ. eigenvalues --   -0.71196  -0.70739  -0.69161  -0.68011  -0.67231
 Alpha  occ. eigenvalues --   -0.66945  -0.65429  -0.65008  -0.62912  -0.61903
 Alpha  occ. eigenvalues --   -0.60248  -0.59421  -0.59055  -0.58144  -0.56112
 Alpha  occ. eigenvalues --   -0.55934  -0.55019  -0.54227  -0.54062  -0.53439
 Alpha  occ. eigenvalues --   -0.51716  -0.51426  -0.51246  -0.50518  -0.49779
 Alpha  occ. eigenvalues --   -0.49051  -0.48865  -0.48554  -0.48149  -0.47921
 Alpha  occ. eigenvalues --   -0.47504  -0.47085  -0.46676  -0.46159  -0.45836
 Alpha  occ. eigenvalues --   -0.45457  -0.45132  -0.44977  -0.44154  -0.44097
 Alpha  occ. eigenvalues --   -0.43446  -0.43161  -0.42982  -0.42463  -0.42227
 Alpha  occ. eigenvalues --   -0.42174  -0.41981  -0.41494  -0.41153  -0.41089
 Alpha  occ. eigenvalues --   -0.40811  -0.40729  -0.40459  -0.40300  -0.39982
 Alpha  occ. eigenvalues --   -0.39851  -0.39262  -0.39087  -0.38439  -0.38255
 Alpha  occ. eigenvalues --   -0.38104  -0.37660  -0.37269  -0.37181  -0.36811
 Alpha  occ. eigenvalues --   -0.35927  -0.35755  -0.35523  -0.35346  -0.35099
 Alpha  occ. eigenvalues --   -0.34712  -0.34379  -0.33645  -0.33444  -0.33144
 Alpha  occ. eigenvalues --   -0.32690  -0.32248  -0.31531  -0.30259  -0.29610
 Alpha  occ. eigenvalues --   -0.27746  -0.27641  -0.26450  -0.25803  -0.25358
 Alpha  occ. eigenvalues --   -0.25007  -0.24503  -0.24350  -0.22653  -0.22187
 Alpha  occ. eigenvalues --   -0.17515
 Alpha virt. eigenvalues --   -0.10893  -0.06900  -0.04025  -0.02179  -0.01278
 Alpha virt. eigenvalues --    0.00388   0.01760   0.02106   0.03077   0.03566
 Alpha virt. eigenvalues --    0.04287   0.04697   0.04833   0.05091   0.05379

 Mulliken charges:
               1
     1  O   -0.207402
     2  O   -0.213518
     3  O   -0.183030
     4  O   -0.266955
     5  O   -0.266952
     6  O   -0.252734
     7  N   -0.201064
     8  N   -0.205859
     9  N   -0.123445
    10  N   -0.253907
    11  C   -0.075736
    12  C    0.125653
    13  C   -0.142484
    14  C    0.087527
    15  C   -0.055235
    16  C    0.076645
    17  C   -0.044924
    18  C   -0.108211
    19  C    0.027731
    20  C   -0.007779
    21  C    0.136897
    22  C    0.113256
    23  C    0.043838
    24  C    0.092928
    25  C   -0.110754
    26  C    0.084346
    27  C    0.072120
    28  C    0.064078
    29  C    0.038556
    30  C    0.019592
    31  C   -0.052920
    32  C    0.131521
    33  C   -0.180442
    34  C    0.080085
    35  C   -0.039426
    36  C   -0.157037
    37  C    0.138237
    38  C    0.076217
    39  C    0.120653
    40  C    0.029324
    41  C    0.131780
    42  C   -0.003221
    43  C    0.050429
    44  H    0.201494
    45  H    0.021983
    46  H    0.032656
    47  H    0.026299
    48  H   -0.016444
    49  H    0.012911
    50  H   -0.014287
    51  H    0.024401
    52  H    0.153591
    53  H   -0.010655
    54  H    0.028025
    55  H    0.029080
    56  H    0.120121
    57  H    0.009334
    58  H    0.040513
    59  H    0.043957
    60  H    0.052897
    61  H    0.037762
    62  H    0.045509
    63  H    0.042054
    64  H   -0.108202
    65  H   -0.041852
    66  H    0.003503
    67  H    0.007010
    68  H    0.013994
    69  H    0.076842
    70  H    0.028277
    71  H    0.020976
    72  H    0.026271
    73  H    0.009985
    74  H    0.028045
    75  H    0.027206
    76  H    0.035815
    77  H   -0.001232
    78  H    0.004728
    79  H   -0.004423
    80  H    0.224921
    81  H    0.178559
 Sum of Mulliken charges =  -0.00000

 Dipole moment (field-independent basis, Debye):
    X=             -1.4838    Y=              0.1399    Z=             -0.6294  Tot=              1.6179
 Quadrupole moment (field-independent basis, Debye-Ang):
   XX=           -248.7207   YY=           -240.4033   ZZ=           -255.4146
   XY=             15.3474   XZ=             10.6812   YZ=            -15.8079

 Normal termination of Gaussian 16 at Mon Jul  1 05:36:36 2019.
