 Gaussian 16, Revision A.03,
 Gaussian 16:  ES64L-G16RevA.03 25-Dec-2016

 --------------------------
 # td=(NStates=1) B3LYP/SVP
 --------------------------

 --
 TD
 --
 Symbolic Z-matrix:
 Charge =  0 Multiplicity = 1

                         Standard orientation:
 ---------------------------------------------------------------------
 Center     Atomic      Atomic             Coordinates (Angstroms)
 Number     Number       Type             X           Y           Z
 ---------------------------------------------------------------------
      1          8           0        4.229596   -4.828992   -1.856828
      2          8           0       -2.909997   -4.715043   -1.250254
      3          8           0       -7.062891   -1.416705   -1.678369
      4          8           0       -3.836859   -3.092500    0.014011
      5          8           0       -7.615422   -0.279643    0.132081
      6          8           0        3.024833    2.466750    0.597006
      7          7           0        0.221658   -0.562050    0.580876
      8          7           0       -1.528819    1.787121    0.256648
      9          7           0        3.280956   -3.110126   -0.712329
     10          7           0        0.915024    2.935572    0.109142
     11          6           0       -0.740826   -2.493654    1.389986
     12          6           0       -0.981796   -1.118915    0.995336
     13          6           0        0.762395   -2.681445    1.154535
     14          6           0        1.304351   -1.453608    0.706324
     15          6           0       -3.745247    1.469892    0.242360
     16          6           0       -2.452990    0.848202    0.531360
     17          6           0       -2.180982   -0.470330    0.989542
     18          6           0       -3.453318    2.884354   -0.073661
     19          6           0       -1.731984   -3.396429    1.963520
     20          6           0        5.432608   -2.789341   -1.273827
     21          6           0        3.541993   -1.828386   -0.197922
     22          6           0       -2.079583    3.064172   -0.090603
     23          6           0        5.045740   -1.610943   -0.556735
     24          6           0       -5.059531    0.836422    0.414659
     25          6           0        2.547833   -1.025717    0.387229
     26          6           0        1.380515   -3.962830    1.654900
     27          6           0        4.264775   -3.776441   -1.274375
     28          6           0       -2.118897   -4.470300    1.039928
     29          6           0       -5.483642   -0.034315   -0.928591
     30          6           0       -4.541482    3.733202   -0.509173
     31          6           0       -1.188529    4.076864   -0.368755
     32          6           0        6.779215   -3.483952   -0.956867
     33          6           0        5.787670   -0.556130   -0.015375
     34          6           0        0.206715    4.066432   -0.228910
     35          6           0        1.132498    5.155085   -0.338003
     36          6           0        2.389690    4.657624   -0.234247
     37          6           0       -3.031243   -4.002058   -0.106388
     38          6           0        5.387855    0.577517    0.821883
     39          6           0       -6.796297   -0.516453   -0.693922
     40          6           0        3.659482    5.257715   -0.296580
     41          6           0        2.191841    3.184019    0.134836
     42          6           0        0.742559    6.556063   -0.894836
     43          6           0        4.500590    5.254282    1.032528
     44          1           0        0.396408    0.466242    0.169994
     45          1           0       -3.163550   -0.996683    0.894151
     46          1           0       -2.768811   -2.776164    2.616656
     47          1           0       -1.331658   -3.783649    2.933871
     48          1           0        5.540964   -2.379677   -2.212519
     49          1           0       -5.027444    0.085691    1.236584
     50          1           0       -5.881626    1.489001    0.636618
     51          1           0        2.875885   -0.034304    0.439767
     52          1           0       -0.388673    1.959596    0.615182
     53          1           0        1.507468   -4.821380    0.954248
     54          1           0        2.466020   -3.876341    1.791243
     55          1           0        1.106815   -4.383753    2.656542
     56          1           0        2.313840   -3.383258   -0.667450
     57          1           0       -1.395350   -5.009982    0.547980
     58          1           0       -2.700661   -5.365669    1.471441
     59          1           0       -4.659348   -0.960631   -0.955273
     60          1           0       -5.198098    0.608584   -1.962179
     61          1           0       -4.156550    4.898884   -0.427539
     62          1           0       -5.524270    3.462440    0.126301
     63          1           0       -4.794465    3.638863   -1.733769
     64          1           0       -1.548625    5.029851   -0.800495
     65          1           0        7.505009   -2.697402   -1.155831
     66          1           0        6.712161   -4.318499   -1.524676
     67          1           0        6.864080   -3.768726    0.058443
     68          1           0        6.746281   -0.731302   -0.358966
     69          1           0        4.825168    1.289456    0.403286
     70          1           0        6.307290    1.046287    1.157555
     71          1           0        5.002168    0.317801    1.748462
     72          1           0        3.568023    6.344255   -0.820065
     73          1           0        4.343615    4.423827   -0.906111
     74          1           0        0.485215    6.371807   -2.052562
     75          1           0        1.606471    7.150524   -1.067389
     76          1           0       -0.058702    6.961452   -0.299755
     77          1           0        3.966035    5.941152    1.880399
     78          1           0        5.386966    5.887645    1.017363
     79          1           0        4.786201    4.216192    1.389589
     80          1           0       -3.441284   -4.579954   -2.047702
     81          1           0       -7.960637   -1.850315   -1.575860
 ---------------------------------------------------------------------

 SCF Done:  E(RB3LYP) =  -1949.05801026     A.U. after   23 cycles

 Excitation energies and oscillator strengths:

 Excited State   1:      Singlet-A      1.6901 eV  733.58 nm  f=0.3739  <S**2>=0.000
     156 ->157         0.71395
     156 <-157        -0.14698
 This state for optimization and/or second-order correction.
 Total Energy, E(TD-HF/TD-DFT) =  -1948.99589900
 Copying the excited state density for this state as the 1-particle RhoCI density.

 The electronic state is 1-A.
 Alpha  occ. eigenvalues --  -19.19202 -19.16548 -19.13651 -19.12675 -19.11075
 Alpha  occ. eigenvalues --  -19.09037 -14.37831 -14.37806 -14.34445 -14.28127
 Alpha  occ. eigenvalues --  -10.33856 -10.31400 -10.29013 -10.25519 -10.24778
 Alpha  occ. eigenvalues --  -10.24435 -10.23679 -10.23299 -10.23261 -10.23015
 Alpha  occ. eigenvalues --  -10.22594 -10.22405 -10.22139 -10.22080 -10.21633
 Alpha  occ. eigenvalues --  -10.21607 -10.21099 -10.20759 -10.20742 -10.20682
 Alpha  occ. eigenvalues --  -10.20474 -10.20304 -10.19824 -10.19668 -10.19650
 Alpha  occ. eigenvalues --  -10.19258 -10.18952 -10.18930 -10.18909 -10.18720
 Alpha  occ. eigenvalues --  -10.17856 -10.17780 -10.16122  -1.09831  -1.09283
 Alpha  occ. eigenvalues --   -1.04853  -1.02530  -1.01253  -1.00132  -0.97259
 Alpha  occ. eigenvalues --   -0.96674  -0.95538  -0.92299  -0.83128  -0.82970
 Alpha  occ. eigenvalues --   -0.81987  -0.80763  -0.79779  -0.79512  -0.77616
 Alpha  occ. eigenvalues --   -0.77284  -0.76720  -0.75797  -0.74225  -0.72453
 Alpha  occ. eigenvalues --   -0.71254  -0.70867  -0.68890  -0.68695  -0.67845
 Alpha  occ. eigenvalues --   -0.66760  -0.66370  -0.65723  -0.63776  -0.62883
 Alpha  occ. eigenvalues --   -0.61338  -0.60497  -0.58779  -0.58169  -0.56294
 Alpha  occ. eigenvalues --   -0.56236  -0.54821  -0.54523  -0.54033  -0.52614
 Alpha  occ. eigenvalues --   -0.51872  -0.51545  -0.50782  -0.50154  -0.49838
 Alpha  occ. eigenvalues --   -0.49189  -0.48760  -0.48636  -0.47611  -0.47470
 Alpha  occ. eigenvalues --   -0.47174  -0.46880  -0.46448  -0.45649  -0.45090
 Alpha  occ. eigenvalues --   -0.44947  -0.44680  -0.44445  -0.43889  -0.43712
 Alpha  occ. eigenvalues --   -0.43564  -0.43299  -0.42739  -0.42593  -0.42307
 Alpha  occ. eigenvalues --   -0.42181  -0.42006  -0.41888  -0.41733  -0.40944
 Alpha  occ. eigenvalues --   -0.40625  -0.40137  -0.39882  -0.39563  -0.39293
 Alpha  occ. eigenvalues --   -0.38778  -0.38651  -0.38426  -0.38260  -0.38053
 Alpha  occ. eigenvalues --   -0.37637  -0.37470  -0.37101  -0.36773  -0.36520
 Alpha  occ. eigenvalues --   -0.36318  -0.36090  -0.35374  -0.35189  -0.34965
 Alpha  occ. eigenvalues --   -0.34856  -0.33775  -0.33397  -0.33300  -0.32815
 Alpha  occ. eigenvalues --   -0.32247  -0.31876  -0.31340  -0.30275  -0.29002
 Alpha  occ. eigenvalues --   -0.28517  -0.27060  -0.26735  -0.26543  -0.25250
 Alpha  occ. eigenvalues --   -0.24755  -0.23706  -0.23201  -0.22416  -0.21736
 Alpha  occ. eigenvalues --   -0.17859
 Alpha virt. eigenvalues --   -0.11394  -0.05885  -0.04908  -0.01461  -0.00805
 Alpha virt. eigenvalues --    0.00451   0.01647   0.02754   0.03411   0.03460
 Alpha virt. eigenvalues --    0.03685   0.04194   0.04340   0.04877   0.05458

 Mulliken charges:
               1
     1  O   -0.202788
     2  O   -0.200567
     3  O   -0.227527
     4  O   -0.225867
     5  O   -0.197155
     6  O   -0.202711
     7  N   -0.171340
     8  N   -0.233264
     9  N   -0.056915
    10  N   -0.265688
    11  C   -0.090274
    12  C    0.141344
    13  C   -0.138266
    14  C    0.193763
    15  C   -0.063675
    16  C    0.017003
    17  C   -0.058983
    18  C   -0.072163
    19  C    0.025401
    20  C   -0.049300
    21  C   -0.018208
    22  C    0.165732
    23  C   -0.072666
    24  C    0.062974
    25  C   -0.062929
    26  C    0.041198
    27  C    0.104398
    28  C    0.084141
    29  C   -0.168349
    30  C   -0.057770
    31  C   -0.119791
    32  C    0.127140
    33  C   -0.118108
    34  C    0.065843
    35  C   -0.130166
    36  C   -0.105645
    37  C    0.117383
    38  C    0.221638
    39  C    0.177792
    40  C   -0.030295
    41  C    0.094728
    42  C    0.095870
    43  C   -0.036960
    44  H    0.190025
    45  H    0.037487
    46  H    0.057483
    47  H    0.021178
    48  H    0.019751
    49  H    0.029557
    50  H    0.014177
    51  H   -0.032991
    52  H    0.219167
    53  H    0.020776
    54  H   -0.002633
    55  H    0.033647
    56  H    0.120742
    57  H   -0.004232
    58  H    0.046631
    59  H    0.100923
    60  H    0.090991
    61  H    0.035350
    62  H    0.055848
    63  H    0.050280
    64  H   -0.026867
    65  H    0.016732
    66  H    0.010082
    67  H   -0.003435
    68  H   -0.052744
    69  H    0.030750
    70  H   -0.016415
    71  H    0.003639
    72  H    0.023803
    73  H    0.034568
    74  H    0.033749
    75  H   -0.009282
    76  H    0.032021
    77  H    0.007637
    78  H    0.003245
    79  H    0.061883
    80  H    0.199383
    81  H    0.188115
 Sum of Mulliken charges =  -0.00000

 Dipole moment (field-independent basis, Debye):
    X=             -1.3058    Y=             -1.4956    Z=             -0.9852  Tot=              2.2165
 Quadrupole moment (field-independent basis, Debye-Ang):
   XX=           -253.5237   YY=           -241.2428   ZZ=           -252.2771
   XY=             19.9878   XZ=             14.9635   YZ=            -14.2696

 Normal termination of Gaussian 16 at Thu Jun 27 11:35:31 2019.
