 Gaussian 16, Revision A.03,
 Gaussian 16:  ES64L-G16RevA.03 25-Dec-2016

 --------------------------
 # td=(NStates=1) B3LYP/SVP
 --------------------------

 --
 TD
 --
 Symbolic Z-matrix:
 Charge =  0 Multiplicity = 1

                         Standard orientation:
 ---------------------------------------------------------------------
 Center     Atomic      Atomic             Coordinates (Angstroms)
 Number     Number       Type             X           Y           Z
 ---------------------------------------------------------------------
      1          8           0        3.725780   -5.043566   -1.985600
      2          8           0       -3.232856   -4.799638   -0.999200
      3          8           0       -6.765621   -1.282036   -2.131660
      4          8           0       -3.974806   -2.872935    0.150474
      5          8           0       -7.403491   -0.468649   -0.051743
      6          8           0        3.254285    2.354925    0.445880
      7          7           0        0.306520   -0.434925    0.658660
      8          7           0       -1.408488    1.932306    0.462608
      9          7           0        3.020643   -3.231917   -0.698378
     10          7           0        0.890345    2.901780    0.085292
     11          6           0       -0.785313   -2.298438    1.493065
     12          6           0       -0.956075   -0.937824    1.029433
     13          6           0        0.641656   -2.592383    1.383537
     14          6           0        1.226785   -1.414428    0.822775
     15          6           0       -3.709140    1.700861    0.304556
     16          6           0       -2.408914    1.079642    0.642639
     17          6           0       -2.255938   -0.278629    0.986878
     18          6           0       -3.372346    3.040324   -0.094876
     19          6           0       -1.785872   -3.220070    2.125605
     20          6           0        5.244775   -3.093527   -1.424846
     21          6           0        3.454408   -2.117883   -0.155564
     22          6           0       -1.930889    3.127115   -0.009013
     23          6           0        4.854729   -1.902071   -0.478722
     24          6           0       -5.023430    1.036095    0.191204
     25          6           0        2.616577   -1.111958    0.385515
     26          6           0        1.267376   -3.817468    1.903856
     27          6           0        4.007173   -3.958335   -1.490476
     28          6           0       -2.303166   -4.340121    1.138314
     29          6           0       -5.193453   -0.121035   -0.884806
     30          6           0       -4.300254    4.083491   -0.456465
     31          6           0       -1.128647    4.263503   -0.241033
     32          6           0        6.478465   -3.922434   -0.978536
     33          6           0        5.634107   -0.981042   -0.141934
     34          6           0        0.342440    4.046528   -0.233141
     35          6           0        1.342055    5.102211   -0.472544
     36          6           0        2.530948    4.633741   -0.322761
     37          6           0       -3.297037   -3.832279    0.134240
     38          6           0        5.444304    0.348559    0.687124
     39          6           0       -6.537907   -0.651163   -0.989033
     40          6           0        3.976930    5.156917   -0.355910
     41          6           0        2.291658    3.077957    0.067373
     42          6           0        0.927536    6.528808   -0.840085
     43          6           0        4.599180    5.405972    0.960244
     44          1           0        0.388760    0.488883    0.118533
     45          1           0       -3.239632   -1.026520    1.078429
     46          1           0       -2.532482   -2.682663    2.510649
     47          1           0       -1.340290   -3.663475    2.969452
     48          1           0        5.540489   -2.439643   -2.298201
     49          1           0       -5.177007    0.685519    1.103552
     50          1           0       -6.171582    1.616372   -0.035371
     51          1           0        2.955756   -0.173141    0.632145
     52          1           0       -0.402608    1.866425    0.652094
     53          1           0        1.137243   -4.502518    1.162721
     54          1           0        2.376204   -3.793772    2.079425
     55          1           0        0.759808   -4.316020    2.962267
     56          1           0        2.109706   -3.788069   -0.761974
     57          1           0       -1.445448   -4.677767    0.665237
     58          1           0       -2.812707   -5.150859    1.791655
     59          1           0       -4.619183   -0.954524   -0.827239
     60          1           0       -4.948648    0.439185   -1.868338
     61          1           0       -4.374129    4.900510    0.506043
     62          1           0       -5.419351    3.667004   -0.817777
     63          1           0       -3.766699    4.644318   -1.308195
     64          1           0       -1.599545    5.131547   -0.626153
     65          1           0        7.467673   -3.260703   -1.053273
     66          1           0        6.603967   -4.814446   -1.726817
     67          1           0        6.441588   -4.499102    0.096023
     68          1           0        6.656474   -0.936831   -0.580453
     69          1           0        4.679515    0.977008    0.156556
     70          1           0        6.348686    0.946489    0.812541
     71          1           0        4.880523    0.195642    1.666476
     72          1           0        3.810511    6.051981   -0.996110
     73          1           0        4.565400    4.437369   -0.836326
     74          1           0        0.428313    6.519830   -1.779808
     75          1           0        1.815067    7.060785   -0.887793
     76          1           0        0.348922    7.062541    0.097671
     77          1           0        4.164620    6.314408    1.431096
     78          1           0        5.620280    5.607039    0.785707
     79          1           0        4.479781    4.458812    1.774254
     80          1           0       -3.756860   -4.322697   -1.655606
     81          1           0       -7.818912   -1.588237   -2.095273
 ---------------------------------------------------------------------

 SCF Done:  E(RB3LYP) =  -1949.07198651     A.U. after   16 cycles

 Excitation energies and oscillator strengths:

 Excited State   1:      Singlet-A      1.7690 eV  700.87 nm  f=0.3289  <S**2>=0.000
     156 ->157         0.70658
     156 <-157        -0.11834
 This state for optimization and/or second-order correction.
 Total Energy, E(TD-HF/TD-DFT) =  -1949.00697688
 Copying the excited state density for this state as the 1-particle RhoCI density.

 The electronic state is 1-A.
 Alpha  occ. eigenvalues --  -19.20626 -19.17756 -19.17521 -19.13169 -19.11941
 Alpha  occ. eigenvalues --  -19.11458 -14.38151 -14.37819 -14.36016 -14.30066
 Alpha  occ. eigenvalues --  -10.34647 -10.32148 -10.30865 -10.27822 -10.24372
 Alpha  occ. eigenvalues --  -10.23782 -10.23518 -10.23390 -10.23251 -10.23215
 Alpha  occ. eigenvalues --  -10.22294 -10.22266 -10.22245 -10.22153 -10.22017
 Alpha  occ. eigenvalues --  -10.20875 -10.20653 -10.20608 -10.20086 -10.20020
 Alpha  occ. eigenvalues --  -10.19851 -10.19780 -10.19602 -10.19314 -10.19267
 Alpha  occ. eigenvalues --  -10.19071 -10.18888 -10.18518 -10.18498 -10.18313
 Alpha  occ. eigenvalues --  -10.18179 -10.17879 -10.17826  -1.11135  -1.09079
 Alpha  occ. eigenvalues --   -1.04363  -1.01592  -0.99928  -0.98755  -0.97290
 Alpha  occ. eigenvalues --   -0.97208  -0.96376  -0.92733  -0.82508  -0.82271
 Alpha  occ. eigenvalues --   -0.81706  -0.80547  -0.79992  -0.78596  -0.77671
 Alpha  occ. eigenvalues --   -0.77204  -0.75937  -0.75489  -0.73151  -0.72099
 Alpha  occ. eigenvalues --   -0.71252  -0.69276  -0.69039  -0.68533  -0.67813
 Alpha  occ. eigenvalues --   -0.66786  -0.65038  -0.64698  -0.62446  -0.61147
 Alpha  occ. eigenvalues --   -0.59440  -0.59150  -0.57945  -0.57494  -0.57317
 Alpha  occ. eigenvalues --   -0.55360  -0.55208  -0.54935  -0.53775  -0.52991
 Alpha  occ. eigenvalues --   -0.52475  -0.51440  -0.51402  -0.50773  -0.49808
 Alpha  occ. eigenvalues --   -0.49527  -0.49231  -0.48848  -0.48300  -0.47943
 Alpha  occ. eigenvalues --   -0.47232  -0.46660  -0.45886  -0.45318  -0.44792
 Alpha  occ. eigenvalues --   -0.44686  -0.44548  -0.44263  -0.43791  -0.43692
 Alpha  occ. eigenvalues --   -0.43438  -0.43273  -0.43056  -0.42854  -0.42527
 Alpha  occ. eigenvalues --   -0.42153  -0.41589  -0.40964  -0.40849  -0.40602
 Alpha  occ. eigenvalues --   -0.40567  -0.40290  -0.39793  -0.39503  -0.39381
 Alpha  occ. eigenvalues --   -0.39174  -0.38997  -0.38705  -0.38562  -0.38373
 Alpha  occ. eigenvalues --   -0.38092  -0.37804  -0.37599  -0.37157  -0.36938
 Alpha  occ. eigenvalues --   -0.36564  -0.36406  -0.35890  -0.35386  -0.34863
 Alpha  occ. eigenvalues --   -0.34490  -0.34289  -0.33722  -0.33209  -0.32780
 Alpha  occ. eigenvalues --   -0.32285  -0.31502  -0.31190  -0.31089  -0.29541
 Alpha  occ. eigenvalues --   -0.28474  -0.27816  -0.27163  -0.27050  -0.25692
 Alpha  occ. eigenvalues --   -0.25053  -0.24547  -0.24004  -0.23665  -0.21094
 Alpha  occ. eigenvalues --   -0.17074
 Alpha virt. eigenvalues --   -0.09990  -0.05297  -0.03711  -0.02945  -0.01731
 Alpha virt. eigenvalues --   -0.00604   0.00819   0.02297   0.02994   0.03170
 Alpha virt. eigenvalues --    0.04203   0.04301   0.04815   0.05213   0.05760

 Mulliken charges:
               1
     1  O   -0.202249
     2  O   -0.271680
     3  O   -0.216136
     4  O   -0.153229
     5  O   -0.314069
     6  O   -0.254268
     7  N   -0.101452
     8  N   -0.048450
     9  N   -0.145592
    10  N   -0.301645
    11  C   -0.164481
    12  C    0.042004
    13  C   -0.156783
    14  C    0.055142
    15  C   -0.057857
    16  C    0.070564
    17  C   -0.141102
    18  C   -0.102329
    19  C    0.202714
    20  C   -0.060445
    21  C    0.104083
    22  C    0.097759
    23  C    0.067446
    24  C    0.075056
    25  C   -0.061177
    26  C    0.068175
    27  C    0.168727
    28  C    0.038983
    29  C    0.042130
    30  C   -0.032806
    31  C   -0.100660
    32  C   -0.048840
    33  C   -0.234880
    34  C    0.070059
    35  C   -0.142964
    36  C   -0.204199
    37  C    0.163087
    38  C    0.037517
    39  C    0.147865
    40  C    0.139604
    41  C    0.193878
    42  C    0.137719
    43  C   -0.011569
    44  H    0.164722
    45  H    0.088131
    46  H   -0.037867
    47  H   -0.022191
    48  H    0.063149
    49  H   -0.018275
    50  H    0.052035
    51  H   -0.043702
    52  H    0.138503
    53  H   -0.010985
    54  H    0.033312
    55  H    0.042064
    56  H    0.163256
    57  H    0.018651
    58  H    0.068474
    59  H    0.006073
    60  H    0.042051
    61  H    0.057848
    62  H    0.056287
    63  H    0.035083
    64  H   -0.037950
    65  H    0.041814
    66  H    0.049422
    67  H    0.046198
    68  H   -0.010391
    69  H    0.077295
    70  H    0.006645
    71  H    0.034335
    72  H   -0.001703
    73  H   -0.011533
    74  H    0.023818
    75  H   -0.022026
    76  H    0.040051
    77  H    0.005747
    78  H    0.002828
    79  H    0.054054
    80  H    0.169505
    81  H    0.241625
 Sum of Mulliken charges =  -0.00000

 Dipole moment (field-independent basis, Debye):
    X=             -1.0869    Y=             -0.0446    Z=             -1.4992  Tot=              1.8523
 Quadrupole moment (field-independent basis, Debye-Ang):
   XX=           -246.8059   YY=           -246.9747   ZZ=           -253.8336
   XY=             12.3981   XZ=             12.3946   YZ=            -15.9470

 Normal termination of Gaussian 16 at Tue Jul  2 21:40:32 2019.
