 Gaussian 16, Revision A.03,
 Gaussian 16:  ES64L-G16RevA.03 25-Dec-2016

 --------------------------
 # td=(NStates=1) B3LYP/SVP
 --------------------------

 --
 TD
 --
 Symbolic Z-matrix:
 Charge =  0 Multiplicity = 1

                         Standard orientation:
 ---------------------------------------------------------------------
 Center     Atomic      Atomic             Coordinates (Angstroms)
 Number     Number       Type             X           Y           Z
 ---------------------------------------------------------------------
      1          8           0        4.170254   -4.858199   -1.858014
      2          8           0       -3.128580   -4.870263   -1.007522
      3          8           0       -6.970743   -1.579958   -1.849819
      4          8           0       -3.841717   -3.141925    0.144717
      5          8           0       -7.658225   -0.439527   -0.004938
      6          8           0        3.084655    2.358477    0.378281
      7          7           0        0.285478   -0.533529    0.643632
      8          7           0       -1.541583    1.827986    0.381297
      9          7           0        3.229027   -3.076431   -0.747205
     10          7           0        0.854973    2.864232    0.212417
     11          6           0       -0.648190   -2.415569    1.492061
     12          6           0       -1.010417   -1.021428    1.049214
     13          6           0        0.733902   -2.686323    1.183232
     14          6           0        1.351738   -1.480841    0.762264
     15          6           0       -3.805922    1.649924    0.317181
     16          6           0       -2.524637    0.833723    0.550221
     17          6           0       -2.282769   -0.448634    0.823073
     18          6           0       -3.486384    2.856614   -0.103621
     19          6           0       -1.582431   -3.401011    2.002445
     20          6           0        5.446503   -2.768768   -1.454581
     21          6           0        3.583445   -1.873059   -0.172985
     22          6           0       -2.012270    3.053121   -0.003097
     23          6           0        5.012352   -1.678670   -0.526380
     24          6           0       -5.113925    0.928709    0.258442
     25          6           0        2.574930   -1.043872    0.340813
     26          6           0        1.524836   -3.776676    1.843347
     27          6           0        4.301434   -3.720375   -1.412175
     28          6           0       -2.096619   -4.466438    1.106213
     29          6           0       -5.373506   -0.023292   -0.959016
     30          6           0       -4.406515    3.997061   -0.497342
     31          6           0       -1.204632    4.177796   -0.312752
     32          6           0        6.751207   -3.539481   -0.969773
     33          6           0        5.814968   -0.672910   -0.017411
     34          6           0        0.253544    4.000757   -0.284498
     35          6           0        1.184479    5.078881   -0.579196
     36          6           0        2.394414    4.527284   -0.279969
     37          6           0       -3.063934   -4.058056    0.007557
     38          6           0        5.352197    0.635250    0.685745
     39          6           0       -6.774777   -0.650324   -0.802833
     40          6           0        3.740098    5.176603   -0.193021
     41          6           0        2.137827    3.143140    0.090097
     42          6           0        0.792089    6.499521   -0.976151
     43          6           0        4.202874    5.547449    1.217822
     44          1           0        0.460126    0.350378    0.083363
     45          1           0       -2.993043   -1.116847    1.093692
     46          1           0       -2.442117   -2.953722    2.236468
     47          1           0       -1.178584   -3.925245    2.889864
     48          1           0        5.724510   -2.318968   -2.356100
     49          1           0       -5.313186    0.399471    1.180609
     50          1           0       -5.881055    1.766244    0.291814
     51          1           0        2.733494    0.071878    0.440566
     52          1           0       -0.510236    1.843069    0.451116
     53          1           0        1.568527   -4.555047    1.266507
     54          1           0        2.698516   -3.644511    2.056057
     55          1           0        1.205751   -3.970621    2.870731
     56          1           0        2.395138   -3.547923   -0.601259
     57          1           0       -1.177869   -4.904806    0.656673
     58          1           0       -2.532932   -5.315194    1.632676
     59          1           0       -4.611538   -0.908770   -0.821585
     60          1           0       -5.173072    0.560976   -1.914221
     61          1           0       -4.251287    4.839107   -0.032745
     62          1           0       -5.482849    3.685230   -0.247482
     63          1           0       -4.351331    4.242274   -1.693705
     64          1           0       -1.716581    5.146525   -0.344165
     65          1           0        7.706185   -2.985236   -1.211360
     66          1           0        6.918455   -4.542517   -1.811057
     67          1           0        6.639450   -3.913252    0.225203
     68          1           0        6.850887   -0.822069   -0.454813
     69          1           0        4.895429    1.424113    0.079843
     70          1           0        6.082073    1.412763    1.204154
     71          1           0        4.525732    0.450381    1.252324
     72          1           0        3.566319    6.131825   -0.878108
     73          1           0        4.471019    4.459804   -0.552322
     74          1           0        0.442391    6.508072   -1.849918
     75          1           0        1.774585    7.139021   -0.963974
     76          1           0        0.275674    6.954160   -0.131190
     77          1           0        3.487663    6.381909    1.648179
     78          1           0        5.134479    6.081576    1.293141
     79          1           0        4.090316    4.544955    1.826180
     80          1           0       -3.782358   -4.664840   -1.778431
     81          1           0       -7.884543   -1.909443   -1.998919
 ---------------------------------------------------------------------

 SCF Done:  E(RB3LYP) =  -1949.09805624     A.U. after   19 cycles

 Excitation energies and oscillator strengths:

 Excited State   1:      Singlet-A      1.5880 eV  780.74 nm  f=0.2716  <S**2>=0.000
     156 ->157         0.71071
     156 <-157        -0.12266
 This state for optimization and/or second-order correction.
 Total Energy, E(TD-HF/TD-DFT) =  -1949.03969706
 Copying the excited state density for this state as the 1-particle RhoCI density.

 The electronic state is 1-A.
 Alpha  occ. eigenvalues --  -19.19891 -19.16464 -19.13472 -19.13052 -19.11495
 Alpha  occ. eigenvalues --  -19.09398 -14.36800 -14.36720 -14.35994 -14.29242
 Alpha  occ. eigenvalues --  -10.33041 -10.32795 -10.29758 -10.25409 -10.24691
 Alpha  occ. eigenvalues --  -10.24492 -10.23827 -10.23737 -10.23510 -10.23047
 Alpha  occ. eigenvalues --  -10.22911 -10.22303 -10.21306 -10.21214 -10.21029
 Alpha  occ. eigenvalues --  -10.20543 -10.20542 -10.20492 -10.20250 -10.20224
 Alpha  occ. eigenvalues --  -10.20112 -10.20060 -10.20056 -10.19615 -10.19437
 Alpha  occ. eigenvalues --  -10.19284 -10.19201 -10.19009 -10.18937 -10.18899
 Alpha  occ. eigenvalues --  -10.18521 -10.18411 -10.17257  -1.11408  -1.07291
 Alpha  occ. eigenvalues --   -1.03325  -1.01350  -1.00071  -0.99307  -0.97241
 Alpha  occ. eigenvalues --   -0.95677  -0.94318  -0.92371  -0.82982  -0.82236
 Alpha  occ. eigenvalues --   -0.82098  -0.81567  -0.80161  -0.78683  -0.77525
 Alpha  occ. eigenvalues --   -0.76868  -0.76458  -0.75034  -0.73966  -0.72053
 Alpha  occ. eigenvalues --   -0.71100  -0.70068  -0.69348  -0.68514  -0.67634
 Alpha  occ. eigenvalues --   -0.67117  -0.65553  -0.65296  -0.62981  -0.62480
 Alpha  occ. eigenvalues --   -0.61039  -0.59438  -0.58891  -0.58154  -0.56628
 Alpha  occ. eigenvalues --   -0.56150  -0.55011  -0.54229  -0.53789  -0.53550
 Alpha  occ. eigenvalues --   -0.52513  -0.52163  -0.51290  -0.50165  -0.49833
 Alpha  occ. eigenvalues --   -0.49328  -0.49182  -0.48967  -0.48147  -0.47313
 Alpha  occ. eigenvalues --   -0.46911  -0.46436  -0.46214  -0.46015  -0.45455
 Alpha  occ. eigenvalues --   -0.44770  -0.44492  -0.44183  -0.43884  -0.43667
 Alpha  occ. eigenvalues --   -0.43296  -0.42914  -0.42908  -0.42551  -0.42440
 Alpha  occ. eigenvalues --   -0.42010  -0.41652  -0.41184  -0.41015  -0.40812
 Alpha  occ. eigenvalues --   -0.40441  -0.40234  -0.39901  -0.39641  -0.38993
 Alpha  occ. eigenvalues --   -0.38838  -0.38319  -0.38217  -0.38097  -0.38018
 Alpha  occ. eigenvalues --   -0.37745  -0.37283  -0.36840  -0.36758  -0.36558
 Alpha  occ. eigenvalues --   -0.35930  -0.35711  -0.35578  -0.34891  -0.33940
 Alpha  occ. eigenvalues --   -0.33522  -0.33500  -0.33260  -0.33139  -0.32719
 Alpha  occ. eigenvalues --   -0.32678  -0.32143  -0.31785  -0.30351  -0.28845
 Alpha  occ. eigenvalues --   -0.28467  -0.28399  -0.26821  -0.26310  -0.25940
 Alpha  occ. eigenvalues --   -0.24977  -0.24458  -0.24327  -0.23514  -0.21898
 Alpha  occ. eigenvalues --   -0.17186
 Alpha virt. eigenvalues --   -0.10727  -0.06414  -0.04414  -0.01477  -0.00813
 Alpha virt. eigenvalues --   -0.00314   0.01329   0.02051   0.03186   0.03838
 Alpha virt. eigenvalues --    0.04782   0.04882   0.05034   0.05127   0.05575

 Mulliken charges:
               1
     1  O   -0.212952
     2  O   -0.177778
     3  O   -0.265319
     4  O   -0.235193
     5  O   -0.202620
     6  O   -0.279772
     7  N   -0.201390
     8  N   -0.106397
     9  N   -0.094214
    10  N   -0.252164
    11  C   -0.152374
    12  C    0.078649
    13  C   -0.161615
    14  C    0.139320
    15  C   -0.064649
    16  C    0.138041
    17  C    0.004246
    18  C   -0.126896
    19  C    0.202315
    20  C    0.011095
    21  C    0.098696
    22  C    0.059630
    23  C   -0.097882
    24  C    0.076943
    25  C   -0.130886
    26  C    0.085184
    27  C    0.156969
    28  C    0.007365
    29  C   -0.048651
    30  C    0.107990
    31  C   -0.105870
    32  C   -0.088629
    33  C   -0.068280
    34  C    0.079312
    35  C   -0.155329
    36  C   -0.157374
    37  C    0.115269
    38  C    0.054402
    39  C    0.187480
    40  C    0.065400
    41  C    0.133704
    42  C    0.217583
    43  C   -0.029266
    44  H    0.150177
    45  H   -0.048903
    46  H   -0.043017
    47  H   -0.001141
    48  H    0.031454
    49  H    0.011455
    50  H    0.006589
    51  H    0.047177
    52  H    0.132304
    53  H   -0.028722
    54  H    0.032469
    55  H    0.027886
    56  H    0.100838
    57  H    0.015018
    58  H    0.037587
    59  H    0.083047
    60  H    0.059972
    61  H   -0.016949
    62  H    0.018968
    63  H    0.037786
    64  H   -0.007064
    65  H    0.039108
    66  H    0.054305
    67  H    0.062683
    68  H   -0.004758
    69  H    0.052672
    70  H    0.017994
    71  H    0.006277
    72  H    0.011575
    73  H    0.011892
    74  H   -0.028493
    75  H    0.006153
    76  H    0.029602
    77  H    0.002725
    78  H    0.016493
    79  H    0.053149
    80  H    0.229948
    81  H    0.187653
 Sum of Mulliken charges =  -0.00000

 Dipole moment (field-independent basis, Debye):
    X=             -2.1985    Y=              0.8325    Z=             -1.8810  Tot=              3.0108
 Quadrupole moment (field-independent basis, Debye-Ang):
   XX=           -251.8277   YY=           -233.8951   ZZ=           -252.1517
   XY=             14.5569   XZ=             13.7471   YZ=            -10.8821

 Normal termination of Gaussian 16 at Tue Jul  2 23:20:04 2019.
