 Gaussian 16, Revision A.03,
 Gaussian 16:  ES64L-G16RevA.03 25-Dec-2016

 --------------------------
 # td=(NStates=1) B3LYP/SVP
 --------------------------

 --
 TD
 --
 Symbolic Z-matrix:
 Charge =  0 Multiplicity = 1

                         Standard orientation:
 ---------------------------------------------------------------------
 Center     Atomic      Atomic             Coordinates (Angstroms)
 Number     Number       Type             X           Y           Z
 ---------------------------------------------------------------------
      1          8           0        4.153403   -4.957027   -1.735190
      2          8           0       -2.845120   -4.940819   -1.226894
      3          8           0       -7.038692   -1.582924   -1.727674
      4          8           0       -3.779695   -3.245633   -0.007329
      5          8           0       -7.502463   -0.520760    0.235915
      6          8           0        3.108610    2.337680    0.419156
      7          7           0        0.157752   -0.505599    0.584436
      8          7           0       -1.543908    2.007502    0.400417
      9          7           0        3.223872   -3.103756   -0.653514
     10          7           0        0.877740    2.810714    0.050675
     11          6           0       -0.694554   -2.351035    1.453733
     12          6           0       -0.973568   -1.041034    1.080299
     13          6           0        0.636041   -2.630477    1.267856
     14          6           0        1.307964   -1.388664    0.785393
     15          6           0       -3.707430    1.600179    0.206042
     16          6           0       -2.528311    0.996748    0.622789
     17          6           0       -2.300602   -0.403978    0.856019
     18          6           0       -3.446127    2.914575   -0.128342
     19          6           0       -1.737181   -3.270678    2.038376
     20          6           0        5.361802   -2.870856   -1.385683
     21          6           0        3.502857   -1.920922   -0.179298
     22          6           0       -1.954640    3.057999   -0.179110
     23          6           0        4.952839   -1.682075   -0.487615
     24          6           0       -5.078901    0.921894    0.276372
     25          6           0        2.690865   -1.054107    0.373977
     26          6           0        1.367497   -3.890663    1.737614
     27          6           0        4.267566   -3.867960   -1.205759
     28          6           0       -2.120189   -4.485328    0.994555
     29          6           0       -5.374329    0.050965   -0.881455
     30          6           0       -4.422246    3.957052   -0.639318
     31          6           0       -1.190983    4.201182   -0.431641
     32          6           0        6.782798   -3.367539   -0.975127
     33          6           0        5.774346   -0.614846   -0.288374
     34          6           0        0.199462    3.962833   -0.209325
     35          6           0        1.177070    5.122673   -0.543885
     36          6           0        2.424642    4.607818   -0.244938
     37          6           0       -2.984966   -4.057762   -0.154765
     38          6           0        5.477504    0.501271    0.824887
     39          6           0       -6.783329   -0.668750   -0.741950
     40          6           0        3.764696    5.335365   -0.262220
     41          6           0        2.227182    3.149530    0.095960
     42          6           0        0.737637    6.517071   -0.877840
     43          6           0        4.210684    5.417313    1.266323
     44          1           0        0.388672    0.535276    0.404559
     45          1           0       -3.071196   -1.028586    1.134793
     46          1           0       -2.851120   -2.944101    2.101252
     47          1           0       -1.326035   -3.674018    3.120591
     48          1           0        5.127445   -2.690190   -2.464927
     49          1           0       -5.265486    0.289950    1.287643
     50          1           0       -5.945298    1.744123    0.419074
     51          1           0        2.999859    0.051741    0.517499
     52          1           0       -0.461479    1.964050    0.455120
     53          1           0        1.267023   -4.659468    1.027316
     54          1           0        2.444456   -3.771983    2.040872
     55          1           0        0.978958   -4.310161    2.498765
     56          1           0        2.352058   -3.472686   -0.595105
     57          1           0       -1.286992   -4.932578    0.612986
     58          1           0       -2.807174   -5.174003    1.630884
     59          1           0       -4.738799   -0.845070   -0.827289
     60          1           0       -5.573712    0.735779   -1.833660
     61          1           0       -4.271389    4.854882    0.065407
     62          1           0       -5.506538    3.631630   -0.705909
     63          1           0       -4.145084    4.267195   -1.646841
     64          1           0       -1.482492    5.175061   -0.509990
     65          1           0        7.503279   -2.561108   -1.452683
     66          1           0        6.810370   -4.630642   -1.384989
     67          1           0        7.059549   -3.667425    0.102951
     68          1           0        6.796772   -0.845891   -0.631619
     69          1           0        5.009260    1.433417    0.316855
     70          1           0        6.503789    0.822205    1.366469
     71          1           0        4.915817    0.183447    1.567536
     72          1           0        3.618450    6.427309   -0.739936
     73          1           0        4.572030    4.775805   -0.932038
     74          1           0        0.163649    6.671909   -1.836817
     75          1           0        1.676837    7.128599   -0.938612
     76          1           0       -0.126792    7.049910   -0.117847
     77          1           0        3.581691    6.081343    1.724530
     78          1           0        5.209627    5.787040    1.249500
     79          1           0        4.193842    4.364584    1.692976
     80          1           0       -3.483238   -4.527038   -1.875717
     81          1           0       -8.003721   -1.913231   -1.562866
 ---------------------------------------------------------------------

 SCF Done:  E(RB3LYP) =  -1949.06677345     A.U. after   16 cycles

 Excitation energies and oscillator strengths:

 Excited State   1:      Singlet-A      1.8700 eV  663.02 nm  f=0.3273  <S**2>=0.000
     156 ->157         0.70525
 This state for optimization and/or second-order correction.
 Total Energy, E(TD-HF/TD-DFT) =  -1948.99805239
 Copying the excited state density for this state as the 1-particle RhoCI density.

 The electronic state is 1-A.
 Alpha  occ. eigenvalues --  -19.19319 -19.19041 -19.15308 -19.12868 -19.11932
 Alpha  occ. eigenvalues --  -19.10732 -14.37634 -14.36757 -14.36016 -14.30369
 Alpha  occ. eigenvalues --  -10.32957 -10.32277 -10.29608 -10.27522 -10.24435
 Alpha  occ. eigenvalues --  -10.24002 -10.23720 -10.23654 -10.23396 -10.22905
 Alpha  occ. eigenvalues --  -10.22817 -10.22483 -10.22156 -10.21836 -10.21836
 Alpha  occ. eigenvalues --  -10.21409 -10.21209 -10.21061 -10.21038 -10.20668
 Alpha  occ. eigenvalues --  -10.20396 -10.20229 -10.20019 -10.19910 -10.19909
 Alpha  occ. eigenvalues --  -10.19843 -10.19840 -10.19482 -10.18662 -10.18598
 Alpha  occ. eigenvalues --  -10.18397 -10.17952 -10.17474  -1.12300  -1.08454
 Alpha  occ. eigenvalues --   -1.04462  -1.03696  -1.01097  -0.99914  -0.99830
 Alpha  occ. eigenvalues --   -0.97990  -0.96535  -0.91513  -0.82704  -0.81583
 Alpha  occ. eigenvalues --   -0.81317  -0.80021  -0.79359  -0.78849  -0.77267
 Alpha  occ. eigenvalues --   -0.77116  -0.76261  -0.74443  -0.73331  -0.72881
 Alpha  occ. eigenvalues --   -0.71158  -0.69064  -0.68738  -0.67537  -0.66981
 Alpha  occ. eigenvalues --   -0.66309  -0.65728  -0.64761  -0.62469  -0.61289
 Alpha  occ. eigenvalues --   -0.60205  -0.58922  -0.58469  -0.58160  -0.56950
 Alpha  occ. eigenvalues --   -0.56166  -0.54599  -0.54140  -0.53714  -0.53592
 Alpha  occ. eigenvalues --   -0.52520  -0.51536  -0.51028  -0.50573  -0.49549
 Alpha  occ. eigenvalues --   -0.49275  -0.49096  -0.48361  -0.48119  -0.47912
 Alpha  occ. eigenvalues --   -0.47050  -0.46886  -0.46381  -0.45767  -0.45209
 Alpha  occ. eigenvalues --   -0.44773  -0.44663  -0.44224  -0.43837  -0.43664
 Alpha  occ. eigenvalues --   -0.43103  -0.42921  -0.42797  -0.42348  -0.42316
 Alpha  occ. eigenvalues --   -0.42213  -0.41903  -0.41659  -0.41240  -0.41006
 Alpha  occ. eigenvalues --   -0.40824  -0.40681  -0.40345  -0.39745  -0.39664
 Alpha  occ. eigenvalues --   -0.39442  -0.38821  -0.38633  -0.38460  -0.38235
 Alpha  occ. eigenvalues --   -0.37838  -0.37489  -0.36887  -0.36847  -0.36360
 Alpha  occ. eigenvalues --   -0.36308  -0.35887  -0.35385  -0.35282  -0.34796
 Alpha  occ. eigenvalues --   -0.34416  -0.33920  -0.33793  -0.33526  -0.33382
 Alpha  occ. eigenvalues --   -0.32853  -0.32280  -0.30312  -0.30247  -0.29732
 Alpha  occ. eigenvalues --   -0.28185  -0.27642  -0.26874  -0.26534  -0.25581
 Alpha  occ. eigenvalues --   -0.25383  -0.25028  -0.24392  -0.23819  -0.22080
 Alpha  occ. eigenvalues --   -0.18139
 Alpha virt. eigenvalues --   -0.10481  -0.06294  -0.03732  -0.01106  -0.00936
 Alpha virt. eigenvalues --    0.00289   0.01799   0.02531   0.03132   0.03400
 Alpha virt. eigenvalues --    0.03885   0.04474   0.04733   0.04882   0.05495

 Mulliken charges:
               1
     1  O   -0.206806
     2  O   -0.221298
     3  O   -0.227737
     4  O   -0.156133
     5  O   -0.237685
     6  O   -0.233706
     7  N   -0.145236
     8  N   -0.083672
     9  N   -0.010356
    10  N   -0.325277
    11  C   -0.056603
    12  C    0.029738
    13  C   -0.178387
    14  C    0.016549
    15  C   -0.035557
    16  C    0.102620
    17  C    0.034307
    18  C   -0.155708
    19  C   -0.031897
    20  C   -0.052739
    21  C    0.131932
    22  C    0.100318
    23  C   -0.054745
    24  C   -0.043608
    25  C   -0.151153
    26  C    0.197484
    27  C    0.121956
    28  C    0.017836
    29  C    0.019168
    30  C    0.071546
    31  C   -0.065774
    32  C   -0.071890
    33  C   -0.103338
    34  C    0.039388
    35  C   -0.070447
    36  C   -0.154316
    37  C    0.118019
    38  C    0.021717
    39  C    0.124207
    40  C   -0.030916
    41  C    0.187513
    42  C    0.006176
    43  C    0.038285
    44  H    0.167752
    45  H   -0.027239
    46  H    0.048027
    47  H    0.050359
    48  H    0.068514
    49  H    0.045778
    50  H    0.032814
    51  H    0.061687
    52  H    0.172050
    53  H    0.000663
    54  H    0.033229
    55  H   -0.067928
    56  H    0.082841
    57  H   -0.006019
    58  H    0.064010
    59  H    0.056510
    60  H    0.057456
    61  H    0.033288
    62  H    0.024711
    63  H    0.024211
    64  H   -0.058424
    65  H    0.061303
    66  H    0.045400
    67  H    0.048495
    68  H   -0.005995
    69  H    0.088951
    70  H    0.011911
    71  H   -0.004191
    72  H    0.019139
    73  H    0.040796
    74  H    0.034717
    75  H    0.023806
    76  H    0.048021
    77  H   -0.002096
    78  H    0.002774
    79  H    0.051735
    80  H    0.186245
    81  H    0.210925
 Sum of Mulliken charges =  -0.00000

 Dipole moment (field-independent basis, Debye):
    X=             -2.6957    Y=              1.4139    Z=             -0.6653  Tot=              3.1158
 Quadrupole moment (field-independent basis, Debye-Ang):
   XX=           -250.1830   YY=           -241.4015   ZZ=           -255.1554
   XY=             13.6620   XZ=             17.5119   YZ=            -14.8853

 Normal termination of Gaussian 16 at Wed Jun 26 23:23:31 2019.
