 Gaussian 16, Revision A.03,
 Gaussian 16:  ES64L-G16RevA.03 25-Dec-2016

 --------------------------
 # td=(NStates=1) B3LYP/SVP
 --------------------------

 --
 TD
 --
 Symbolic Z-matrix:
 Charge =  0 Multiplicity = 1

                         Standard orientation:
 ---------------------------------------------------------------------
 Center     Atomic      Atomic             Coordinates (Angstroms)
 Number     Number       Type             X           Y           Z
 ---------------------------------------------------------------------
      1          8           0        4.209892   -4.974107   -1.879036
      2          8           0       -2.923616   -5.044530   -0.931921
      3          8           0       -7.278369   -1.311035   -2.001474
      4          8           0       -3.758897   -3.144380   -0.019451
      5          8           0       -7.571614   -0.524109    0.170337
      6          8           0        3.105809    2.269610    0.478818
      7          7           0        0.290801   -0.427935    0.690113
      8          7           0       -1.491665    1.874872    0.329905
      9          7           0        3.179621   -3.277153   -0.638030
     10          7           0        0.897364    2.874260   -0.030889
     11          6           0       -0.689190   -2.345906    1.393266
     12          6           0       -0.946525   -0.974718    0.967128
     13          6           0        0.696135   -2.627054    1.231589
     14          6           0        1.232146   -1.349542    0.680092
     15          6           0       -3.767168    1.646614    0.293856
     16          6           0       -2.510769    0.953894    0.444603
     17          6           0       -2.194088   -0.373485    0.773077
     18          6           0       -3.473572    2.934104   -0.166655
     19          6           0       -1.700791   -3.189093    2.118295
     20          6           0        5.358620   -2.789899   -1.272855
     21          6           0        3.470426   -1.979222   -0.213971
     22          6           0       -2.058922    3.049832   -0.067214
     23          6           0        4.904225   -1.672992   -0.441696
     24          6           0       -5.095256    0.853546    0.341159
     25          6           0        2.560172   -1.094109    0.350641
     26          6           0        1.468975   -3.829492    1.737723
     27          6           0        4.187562   -3.845161   -1.389629
     28          6           0       -2.211056   -4.347121    1.349380
     29          6           0       -5.431857   -0.059156   -0.942061
     30          6           0       -4.483334    4.001163   -0.645133
     31          6           0       -1.203340    4.171699   -0.296207
     32          6           0        6.829626   -3.469517   -1.006507
     33          6           0        5.640685   -0.590016   -0.211429
     34          6           0        0.245288    4.046584   -0.350565
     35          6           0        1.291629    5.094096   -0.553381
     36          6           0        2.491922    4.539756   -0.133965
     37          6           0       -3.047550   -4.115631    0.076416
     38          6           0        5.412157    0.634665    0.576201
     39          6           0       -6.824666   -0.701689   -0.785621
     40          6           0        3.884242    5.085766   -0.143671
     41          6           0        2.268349    3.121093   -0.011532
     42          6           0        0.886279    6.502384   -0.807095
     43          6           0        4.273832    5.494529    1.374624
     44          1           0        0.468621    0.422760    0.187184
     45          1           0       -3.063530   -1.175339    0.907860
     46          1           0       -2.502690   -2.556885    2.763637
     47          1           0       -1.322410   -3.492721    3.026745
     48          1           0        5.678992   -2.385288   -2.409001
     49          1           0       -5.008845    0.182268    1.314467
     50          1           0       -5.821847    1.634265    0.287164
     51          1           0        2.889484    0.078372    0.502295
     52          1           0       -0.303529    1.891980    0.475157
     53          1           0        1.813015   -4.640270    1.016659
     54          1           0        2.509949   -3.368728    2.006691
     55          1           0        0.998299   -4.282112    2.710445
     56          1           0        2.160025   -3.394511   -0.831294
     57          1           0       -1.409093   -5.073613    1.172732
     58          1           0       -2.646186   -5.136041    1.991628
     59          1           0       -4.811792   -0.901294   -0.729368
     60          1           0       -5.440928    0.554819   -1.834199
     61          1           0       -4.533413    4.798434    0.048917
     62          1           0       -5.486647    3.565968   -0.821022
     63          1           0       -3.882473    4.288325   -1.715746
     64          1           0       -1.591644    5.186402   -0.526910
     65          1           0        7.721074   -2.910225   -1.043309
     66          1           0        6.943098   -4.435287   -1.885760
     67          1           0        6.725072   -4.154039   -0.144717
     68          1           0        6.712778   -0.881811   -0.882797
     69          1           0        4.974631    1.249723   -0.121726
     70          1           0        6.209999    0.853972    1.109360
     71          1           0        4.625951    0.481760    1.456252
     72          1           0        3.769459    5.930598   -0.991984
     73          1           0        4.626802    4.270030   -0.400932
     74          1           0        0.279484    6.664237   -1.717754
     75          1           0        1.820692    7.018757   -1.117824
     76          1           0        0.443496    7.007635   -0.008453
     77          1           0        3.699012    6.423507    1.757586
     78          1           0        5.271369    5.544401    1.264201
     79          1           0        3.809134    4.772217    2.080405
     80          1           0       -3.380331   -4.595966   -1.730107
     81          1           0       -8.128674   -1.571732   -1.775537
 ---------------------------------------------------------------------

 SCF Done:  E(RB3LYP) =  -1949.06535584     A.U. after   24 cycles

 Excitation energies and oscillator strengths:

 Excited State   1:      Singlet-A      1.6750 eV  740.22 nm  f=0.2867  <S**2>=0.000
     156 ->157         0.70918
     156 <-157        -0.12799
 This state for optimization and/or second-order correction.
 Total Energy, E(TD-HF/TD-DFT) =  -1949.00380203
 Copying the excited state density for this state as the 1-particle RhoCI density.

 The electronic state is 1-A.
 Alpha  occ. eigenvalues --  -19.20159 -19.17369 -19.14936 -19.13695 -19.12191
 Alpha  occ. eigenvalues --  -19.09380 -14.38657 -14.38387 -14.35046 -14.29161
 Alpha  occ. eigenvalues --  -10.34315 -10.32697 -10.30619 -10.25760 -10.25038
 Alpha  occ. eigenvalues --  -10.24378 -10.23695 -10.23370 -10.22696 -10.22592
 Alpha  occ. eigenvalues --  -10.22327 -10.22257 -10.22035 -10.21747 -10.21688
 Alpha  occ. eigenvalues --  -10.21465 -10.21268 -10.21219 -10.21086 -10.21085
 Alpha  occ. eigenvalues --  -10.21079 -10.20648 -10.20318 -10.20164 -10.20100
 Alpha  occ. eigenvalues --  -10.19959 -10.19734 -10.19592 -10.19583 -10.18843
 Alpha  occ. eigenvalues --  -10.18567 -10.18144 -10.16914  -1.10500  -1.08002
 Alpha  occ. eigenvalues --   -1.03452  -1.02043  -1.00462  -1.00353  -0.97959
 Alpha  occ. eigenvalues --   -0.96874  -0.96354  -0.90214  -0.83366  -0.82055
 Alpha  occ. eigenvalues --   -0.81219  -0.80769  -0.79077  -0.78714  -0.78068
 Alpha  occ. eigenvalues --   -0.76565  -0.75757  -0.74949  -0.74220  -0.71730
 Alpha  occ. eigenvalues --   -0.70794  -0.69763  -0.69242  -0.68770  -0.67649
 Alpha  occ. eigenvalues --   -0.66866  -0.65460  -0.64907  -0.62464  -0.61386
 Alpha  occ. eigenvalues --   -0.60783  -0.58878  -0.58420  -0.58206  -0.57880
 Alpha  occ. eigenvalues --   -0.56364  -0.55107  -0.54247  -0.52802  -0.52735
 Alpha  occ. eigenvalues --   -0.52319  -0.51735  -0.50948  -0.50569  -0.49649
 Alpha  occ. eigenvalues --   -0.49331  -0.48914  -0.48457  -0.47702  -0.47296
 Alpha  occ. eigenvalues --   -0.47129  -0.46664  -0.46176  -0.45743  -0.45518
 Alpha  occ. eigenvalues --   -0.44960  -0.44687  -0.44352  -0.44072  -0.43741
 Alpha  occ. eigenvalues --   -0.43620  -0.43420  -0.42896  -0.42768  -0.42339
 Alpha  occ. eigenvalues --   -0.42071  -0.41808  -0.41603  -0.41292  -0.41043
 Alpha  occ. eigenvalues --   -0.40772  -0.40446  -0.40144  -0.39862  -0.39374
 Alpha  occ. eigenvalues --   -0.39281  -0.38524  -0.38483  -0.38430  -0.38354
 Alpha  occ. eigenvalues --   -0.37884  -0.37466  -0.36913  -0.36448  -0.36184
 Alpha  occ. eigenvalues --   -0.35939  -0.35528  -0.35381  -0.34546  -0.34425
 Alpha  occ. eigenvalues --   -0.34195  -0.33896  -0.33352  -0.32439  -0.32400
 Alpha  occ. eigenvalues --   -0.32278  -0.31724  -0.31446  -0.30087  -0.29984
 Alpha  occ. eigenvalues --   -0.28237  -0.27158  -0.27055  -0.26564  -0.26351
 Alpha  occ. eigenvalues --   -0.24991  -0.24686  -0.24072  -0.22765  -0.21565
 Alpha  occ. eigenvalues --   -0.17527
 Alpha virt. eigenvalues --   -0.10739  -0.06600  -0.04278  -0.02148  -0.02055
 Alpha virt. eigenvalues --   -0.01068   0.01836   0.02823   0.03354   0.03441
 Alpha virt. eigenvalues --    0.03884   0.04497   0.04562   0.04964   0.05619

 Mulliken charges:
               1
     1  O   -0.207110
     2  O   -0.219333
     3  O   -0.210460
     4  O   -0.216490
     5  O   -0.227947
     6  O   -0.313199
     7  N    0.007460
     8  N   -0.188702
     9  N   -0.113150
    10  N   -0.346428
    11  C   -0.084707
    12  C    0.028849
    13  C   -0.139434
    14  C    0.011668
    15  C   -0.092924
    16  C    0.096072
    17  C   -0.093147
    18  C   -0.152035
    19  C    0.101266
    20  C   -0.206863
    21  C    0.044696
    22  C    0.117419
    23  C    0.083244
    24  C    0.053995
    25  C   -0.191549
    26  C    0.021247
    27  C    0.189128
    28  C    0.032919
    29  C    0.065372
    30  C    0.070878
    31  C   -0.115385
    32  C   -0.014040
    33  C   -0.229344
    34  C    0.069986
    35  C   -0.119750
    36  C   -0.155504
    37  C    0.167561
    38  C    0.178035
    39  C    0.142596
    40  C   -0.004081
    41  C    0.197993
    42  C    0.125707
    43  C    0.031197
    44  H    0.129953
    45  H    0.056218
    46  H    0.028046
    47  H   -0.027378
    48  H    0.072246
    49  H    0.051018
    50  H   -0.005048
    51  H    0.092293
    52  H    0.225961
    53  H    0.045064
    54  H    0.039766
    55  H    0.038685
    56  H    0.160258
    57  H    0.005584
    58  H    0.027085
    59  H    0.040806
    60  H    0.045176
    61  H    0.033597
    62  H    0.026403
    63  H    0.053044
    64  H   -0.019977
    65  H    0.031818
    66  H    0.039172
    67  H    0.023568
    68  H    0.016865
    69  H    0.046377
    70  H   -0.020120
    71  H    0.041441
    72  H    0.033089
    73  H    0.029806
    74  H    0.011986
    75  H   -0.004400
    76  H    0.025228
    77  H    0.016207
    78  H    0.002049
    79  H    0.032874
    80  H    0.212713
    81  H    0.146824
 Sum of Mulliken charges =  -0.00000

 Dipole moment (field-independent basis, Debye):
    X=             -1.8844    Y=              0.4872    Z=             -0.0289  Tot=              1.9465
 Quadrupole moment (field-independent basis, Debye-Ang):
   XX=           -258.9955   YY=           -245.8311   ZZ=           -253.3354
   XY=             13.3050   XZ=             10.8859   YZ=            -16.2016

 Normal termination of Gaussian 16 at Thu Jun 27 08:35:02 2019.
