 Gaussian 16, Revision A.03,
 Gaussian 16:  ES64L-G16RevA.03 25-Dec-2016

 --------------------------
 # td=(NStates=1) B3LYP/SVP
 --------------------------

 --
 TD
 --
 Symbolic Z-matrix:
 Charge =  0 Multiplicity = 1

                         Standard orientation:
 ---------------------------------------------------------------------
 Center     Atomic      Atomic             Coordinates (Angstroms)
 Number     Number       Type             X           Y           Z
 ---------------------------------------------------------------------
      1          8           0        4.471543   -4.933333   -1.507655
      2          8           0       -2.747575   -5.045907   -1.106479
      3          8           0       -6.993673   -1.566281   -1.838061
      4          8           0       -3.654545   -3.398616    0.030473
      5          8           0       -7.689101   -0.760400    0.061303
      6          8           0        2.914655    2.576637    0.511646
      7          7           0        0.242797   -0.436864    0.440343
      8          7           0       -1.665886    1.776805    0.316116
      9          7           0        3.411787   -3.068692   -0.579521
     10          7           0        0.688195    2.999325    0.216022
     11          6           0       -0.581766   -2.377441    1.358766
     12          6           0       -0.853346   -1.089295    0.857935
     13          6           0        0.829438   -2.567815    1.167820
     14          6           0        1.339436   -1.367487    0.676986
     15          6           0       -3.763347    1.411440    0.414182
     16          6           0       -2.585503    0.729117    0.579505
     17          6           0       -2.242066   -0.545782    0.929833
     18          6           0       -3.671771    2.711133    0.091165
     19          6           0       -1.416503   -3.417865    1.967611
     20          6           0        5.600881   -2.701662   -1.219530
     21          6           0        3.714027   -1.754035   -0.183796
     22          6           0       -2.228019    2.967151   -0.017165
     23          6           0        5.062337   -1.460795   -0.581668
     24          6           0       -5.073580    0.523376    0.475116
     25          6           0        2.768437   -0.925195    0.376053
     26          6           0        1.763621   -3.696456    1.630387
     27          6           0        4.480892   -3.785743   -1.212394
     28          6           0       -1.873460   -4.639240    1.007837
     29          6           0       -5.549625   -0.210332   -0.860107
     30          6           0       -4.699734    3.748646   -0.366114
     31          6           0       -1.405494    4.121400   -0.237452
     32          6           0        6.897984   -3.251029   -0.779195
     33          6           0        5.913932   -0.384210   -0.254631
     34          6           0       -0.002823    4.018569   -0.144523
     35          6           0        0.888803    5.140285   -0.528967
     36          6           0        2.191738    4.737477   -0.314055
     37          6           0       -2.776919   -4.216472   -0.146734
     38          6           0        5.448194    0.851931    0.386291
     39          6           0       -6.865426   -0.864377   -0.776385
     40          6           0        3.451512    5.507297   -0.321083
     41          6           0        2.092809    3.364133    0.131637
     42          6           0        0.433032    6.575618   -1.035535
     43          6           0        4.099406    5.631452    1.128628
     44          1           0        0.602191    0.504034   -0.048814
     45          1           0       -3.053648   -1.281292    0.960522
     46          1           0       -2.498659   -2.952855    2.021151
     47          1           0       -1.006119   -3.908039    2.893267
     48          1           0        5.569150   -2.472790   -2.346028
     49          1           0       -4.997419   -0.292537    1.218854
     50          1           0       -5.869509    1.276250    0.782640
     51          1           0        3.013201    0.128371    0.605015
     52          1           0       -0.691518    1.733010    0.567517
     53          1           0        1.813843   -4.530417    0.818748
     54          1           0        2.768243   -3.342457    1.728833
     55          1           0        1.326214   -4.133687    2.595408
     56          1           0        2.414506   -3.454547   -0.640211
     57          1           0       -0.999649   -5.095184    0.515707
     58          1           0       -2.332649   -5.344074    1.519408
     59          1           0       -4.780144   -0.918963   -1.154926
     60          1           0       -5.718074    0.519546   -1.775289
     61          1           0       -4.278057    4.943291   -0.443048
     62          1           0       -5.640202    3.617689    0.133761
     63          1           0       -5.190628    3.460563   -1.653049
     64          1           0       -1.858315    5.200153   -0.426028
     65          1           0        7.788370   -2.450338   -0.835723
     66          1           0        7.230301   -3.964393   -1.435927
     67          1           0        6.715654   -3.603341    0.298241
     68          1           0        6.858356   -0.529133   -0.330497
     69          1           0        4.671586    1.328618   -0.347023
     70          1           0        6.165114    1.566264    0.489603
     71          1           0        4.761203    0.642526    1.167654
     72          1           0        3.266733    6.699133   -0.670610
     73          1           0        4.263530    5.007973   -0.926501
     74          1           0        0.011772    6.582509   -1.933101
     75          1           0        1.362137    7.172267   -0.868325
     76          1           0       -0.375657    6.965511   -0.337664
     77          1           0        3.243826    5.966728    1.847513
     78          1           0        4.963333    6.194022    1.178114
     79          1           0        4.426768    4.729485    1.502365
     80          1           0       -3.380018   -4.729310   -1.865707
     81          1           0       -8.037017   -1.808173   -1.968908
 ---------------------------------------------------------------------

 SCF Done:  E(RB3LYP) =  -1949.08419076     A.U. after   16 cycles

 Excitation energies and oscillator strengths:

 Excited State   1:      Singlet-A      1.7487 eV  709.00 nm  f=0.2369  <S**2>=0.000
     156 ->157         0.70265
 This state for optimization and/or second-order correction.
 Total Energy, E(TD-HF/TD-DFT) =  -1949.01992625
 Copying the excited state density for this state as the 1-particle RhoCI density.

 The electronic state is 1-A.
 Alpha  occ. eigenvalues --  -19.21246 -19.18733 -19.13140 -19.12045 -19.11467
 Alpha  occ. eigenvalues --  -19.11442 -14.37973 -14.36103 -14.35244 -14.28336
 Alpha  occ. eigenvalues --  -10.32733 -10.30614 -10.29355 -10.26945 -10.24638
 Alpha  occ. eigenvalues --  -10.23846 -10.23784 -10.23729 -10.22845 -10.22495
 Alpha  occ. eigenvalues --  -10.22124 -10.21572 -10.21417 -10.21260 -10.20951
 Alpha  occ. eigenvalues --  -10.20648 -10.20596 -10.20573 -10.20242 -10.20128
 Alpha  occ. eigenvalues --  -10.20045 -10.20022 -10.19717 -10.19673 -10.19650
 Alpha  occ. eigenvalues --  -10.19401 -10.19197 -10.19158 -10.19086 -10.18945
 Alpha  occ. eigenvalues --  -10.18782 -10.17422 -10.16769  -1.13539  -1.11520
 Alpha  occ. eigenvalues --   -1.04942  -1.03417  -1.01940  -1.01142  -0.98233
 Alpha  occ. eigenvalues --   -0.96488  -0.94140  -0.92632  -0.81739  -0.81554
 Alpha  occ. eigenvalues --   -0.81123  -0.80215  -0.79608  -0.78136  -0.77073
 Alpha  occ. eigenvalues --   -0.76778  -0.75973  -0.74776  -0.73824  -0.72486
 Alpha  occ. eigenvalues --   -0.70460  -0.69452  -0.69391  -0.68131  -0.67141
 Alpha  occ. eigenvalues --   -0.66929  -0.64968  -0.64095  -0.62644  -0.62452
 Alpha  occ. eigenvalues --   -0.61130  -0.59009  -0.58736  -0.56707  -0.56519
 Alpha  occ. eigenvalues --   -0.55467  -0.55167  -0.54627  -0.54136  -0.53125
 Alpha  occ. eigenvalues --   -0.52013  -0.51304  -0.51010  -0.50240  -0.49866
 Alpha  occ. eigenvalues --   -0.49641  -0.49307  -0.48869  -0.48224  -0.47786
 Alpha  occ. eigenvalues --   -0.47685  -0.47018  -0.46229  -0.45650  -0.44884
 Alpha  occ. eigenvalues --   -0.44520  -0.44414  -0.44236  -0.44081  -0.43937
 Alpha  occ. eigenvalues --   -0.43286  -0.43218  -0.42855  -0.42260  -0.41884
 Alpha  occ. eigenvalues --   -0.41713  -0.41601  -0.41346  -0.41179  -0.40642
 Alpha  occ. eigenvalues --   -0.40307  -0.39939  -0.39878  -0.39618  -0.39260
 Alpha  occ. eigenvalues --   -0.38979  -0.38758  -0.38667  -0.38431  -0.37925
 Alpha  occ. eigenvalues --   -0.37831  -0.37285  -0.37192  -0.36923  -0.36604
 Alpha  occ. eigenvalues --   -0.36289  -0.36146  -0.35429  -0.35250  -0.34805
 Alpha  occ. eigenvalues --   -0.34679  -0.34374  -0.33956  -0.33704  -0.33561
 Alpha  occ. eigenvalues --   -0.33390  -0.32530  -0.32403  -0.29744  -0.28842
 Alpha  occ. eigenvalues --   -0.27678  -0.27454  -0.26620  -0.25914  -0.25138
 Alpha  occ. eigenvalues --   -0.24756  -0.24613  -0.24232  -0.23477  -0.21071
 Alpha  occ. eigenvalues --   -0.17871
 Alpha virt. eigenvalues --   -0.10467  -0.06187  -0.04505  -0.00856   0.00526
 Alpha virt. eigenvalues --    0.00899   0.01450   0.01786   0.02905   0.03243
 Alpha virt. eigenvalues --    0.03894   0.03984   0.04500   0.05210   0.05746

 Mulliken charges:
               1
     1  O   -0.162281
     2  O   -0.130243
     3  O   -0.190068
     4  O   -0.250647
     5  O   -0.201106
     6  O   -0.167976
     7  N   -0.157890
     8  N   -0.115801
     9  N   -0.218743
    10  N   -0.278424
    11  C   -0.102448
    12  C    0.081006
    13  C   -0.180970
    14  C    0.026586
    15  C   -0.058249
    16  C    0.107249
    17  C   -0.067819
    18  C   -0.081083
    19  C    0.038596
    20  C   -0.095602
    21  C    0.127076
    22  C    0.093166
    23  C   -0.019719
    24  C    0.061365
    25  C   -0.128773
    26  C    0.097550
    27  C    0.126289
    28  C    0.062717
    29  C   -0.029053
    30  C   -0.025266
    31  C   -0.161155
    32  C    0.075488
    33  C   -0.062503
    34  C    0.071734
    35  C   -0.150612
    36  C   -0.123959
    37  C    0.091695
    38  C    0.126763
    39  C    0.095101
    40  C   -0.008321
    41  C    0.137509
    42  C    0.149159
    43  C    0.020858
    44  H    0.207558
    45  H    0.034223
    46  H    0.033235
    47  H    0.027865
    48  H    0.040041
    49  H    0.028884
    50  H    0.015937
    51  H    0.019704
    52  H    0.120585
    53  H    0.023406
    54  H    0.027284
    55  H    0.024389
    56  H    0.157518
    57  H    0.011407
    58  H    0.001643
    59  H    0.034638
    60  H    0.046878
    61  H    0.068235
    62  H    0.028842
    63  H    0.027087
    64  H    0.004711
    65  H    0.025885
    66  H    0.001023
    67  H    0.035811
    68  H   -0.094185
    69  H    0.052012
    70  H   -0.017496
    71  H    0.032924
    72  H    0.029177
    73  H    0.024364
    74  H   -0.001302
    75  H    0.020863
    76  H    0.022909
    77  H    0.021999
    78  H   -0.005596
    79  H    0.005726
    80  H    0.218949
    81  H    0.221673
 Sum of Mulliken charges =  -0.00000

 Dipole moment (field-independent basis, Debye):
    X=             -1.8631    Y=              0.9029    Z=             -2.9833  Tot=              3.6314
 Quadrupole moment (field-independent basis, Debye-Ang):
   XX=           -247.2514   YY=           -240.4505   ZZ=           -252.0390
   XY=             18.1471   XZ=             19.5140   YZ=             -5.6911

 Normal termination of Gaussian 16 at Tue Jul  2 17:08:30 2019.
