 Gaussian 16, Revision A.03,
 Gaussian 16:  ES64L-G16RevA.03 25-Dec-2016

 --------------------------
 # td=(NStates=1) B3LYP/SVP
 --------------------------

 --
 TD
 --
 Symbolic Z-matrix:
 Charge =  0 Multiplicity = 1

                         Standard orientation:
 ---------------------------------------------------------------------
 Center     Atomic      Atomic             Coordinates (Angstroms)
 Number     Number       Type             X           Y           Z
 ---------------------------------------------------------------------
      1          8           0        4.252414   -4.970369   -1.532428
      2          8           0       -2.816341   -4.692020   -1.126118
      3          8           0       -6.782884   -1.634753   -1.837774
      4          8           0       -3.837496   -3.121538    0.109114
      5          8           0       -7.568860   -0.424701   -0.051453
      6          8           0        3.039729    2.400141    0.491648
      7          7           0        0.302251   -0.462107    0.497626
      8          7           0       -1.540755    1.844334    0.477255
      9          7           0        3.245324   -3.175551   -0.657462
     10          7           0        0.768405    2.881513    0.123425
     11          6           0       -0.707424   -2.415722    1.388235
     12          6           0       -1.026758   -1.032401    0.888929
     13          6           0        0.667097   -2.664450    1.270663
     14          6           0        1.274469   -1.348458    0.740720
     15          6           0       -3.852256    1.573431    0.390400
     16          6           0       -2.481474    0.952419    0.633959
     17          6           0       -2.312522   -0.406558    0.940056
     18          6           0       -3.532239    2.815737   -0.068280
     19          6           0       -1.690017   -3.341146    2.013576
     20          6           0        5.452679   -2.820878   -1.381193
     21          6           0        3.497449   -1.860110   -0.293131
     22          6           0       -2.104255    3.075741   -0.049081
     23          6           0        4.917748   -1.596444   -0.630012
     24          6           0       -5.093416    0.806570    0.289525
     25          6           0        2.578826   -0.994157    0.371228
     26          6           0        1.474201   -3.751717    1.762096
     27          6           0        4.258565   -3.820169   -1.289117
     28          6           0       -2.134612   -4.469711    1.129007
     29          6           0       -5.268733   -0.140856   -0.892828
     30          6           0       -4.353091    3.875472   -0.528890
     31          6           0       -1.263394    4.047763   -0.361410
     32          6           0        6.675518   -3.479860   -0.923955
     33          6           0        5.688788   -0.497363   -0.343070
     34          6           0        0.126728    4.067448   -0.273981
     35          6           0        1.115581    5.137163   -0.394390
     36          6           0        2.359695    4.595928   -0.298037
     37          6           0       -3.018345   -3.964276   -0.000318
     38          6           0        5.442334    0.664161    0.641652
     39          6           0       -6.642395   -0.749317   -0.853146
     40          6           0        3.705198    5.270258   -0.266477
     41          6           0        2.089419    3.164974    0.101300
     42          6           0        0.670102    6.478659   -0.741809
     43          6           0        4.401752    5.305775    1.112121
     44          1           0        0.514102    0.346428   -0.099118
     45          1           0       -3.154674   -1.181025    1.092428
     46          1           0       -2.673349   -2.583849    2.347228
     47          1           0       -1.125086   -3.892572    2.760410
     48          1           0        5.569352   -2.627400   -2.499140
     49          1           0       -5.196374    0.110259    1.262497
     50          1           0       -6.021555    1.520945    0.176627
     51          1           0        2.699057    0.122833    0.551700
     52          1           0       -0.433349    1.877319    0.357465
     53          1           0        1.353786   -4.631142    1.287823
     54          1           0        2.583475   -3.550233    1.918731
     55          1           0        1.037535   -4.149075    2.773931
     56          1           0        2.270210   -3.768589   -0.449342
     57          1           0       -1.195298   -4.921815    0.616268
     58          1           0       -2.530168   -5.428433    1.457027
     59          1           0       -4.464707   -0.947293   -0.727959
     60          1           0       -4.988700    0.305878   -1.882713
     61          1           0       -4.556037    4.896029    0.115129
     62          1           0       -5.526843    3.260304   -0.830101
     63          1           0       -4.161071    4.439273   -1.727948
     64          1           0       -1.629888    4.961520   -0.899525
     65          1           0        7.695720   -3.029368   -1.240321
     66          1           0        6.920940   -4.624621   -1.225661
     67          1           0        6.647544   -3.405551    0.323112
     68          1           0        6.815290   -0.443701   -0.790584
     69          1           0        4.991833    1.490513    0.253528
     70          1           0        6.352438    1.114733    1.044691
     71          1           0        4.650389    0.393169    1.367825
     72          1           0        3.742559    6.333225   -0.633104
     73          1           0        4.442181    4.674894   -0.809176
     74          1           0        0.263864    6.502256   -1.769582
     75          1           0        1.409374    7.172375   -0.782445
     76          1           0       -0.355969    6.778122   -0.159528
     77          1           0        4.158830    6.380933    1.898256
     78          1           0        5.401399    5.509280    0.869982
     79          1           0        4.459470    4.405535    1.732938
     80          1           0       -3.514374   -4.401794   -1.751718
     81          1           0       -7.662287   -1.948196   -1.945522
 ---------------------------------------------------------------------

 SCF Done:  E(RB3LYP) =  -1949.05236460     A.U. after   24 cycles

 Excitation energies and oscillator strengths:

 Excited State   1:      Singlet-A      1.6294 eV  760.91 nm  f=0.3367  <S**2>=0.000
     156 ->157         0.71740
     156 <-157        -0.16222
 This state for optimization and/or second-order correction.
 Total Energy, E(TD-HF/TD-DFT) =  -1948.99248414
 Copying the excited state density for this state as the 1-particle RhoCI density.

 The electronic state is 1-A.
 Alpha  occ. eigenvalues --  -19.19899 -19.19091 -19.15277 -19.12494 -19.11568
 Alpha  occ. eigenvalues --  -19.09071 -14.38880 -14.38616 -14.34945 -14.29278
 Alpha  occ. eigenvalues --  -10.33650 -10.32768 -10.29165 -10.26338 -10.25931
 Alpha  occ. eigenvalues --  -10.24728 -10.24720 -10.23328 -10.23257 -10.22994
 Alpha  occ. eigenvalues --  -10.22748 -10.22531 -10.22459 -10.22043 -10.21885
 Alpha  occ. eigenvalues --  -10.21610 -10.21300 -10.21134 -10.21091 -10.21029
 Alpha  occ. eigenvalues --  -10.20962 -10.20954 -10.20727 -10.20447 -10.19769
 Alpha  occ. eigenvalues --  -10.19635 -10.19629 -10.19397 -10.19171 -10.18885
 Alpha  occ. eigenvalues --  -10.18757 -10.18712 -10.16813  -1.12229  -1.10165
 Alpha  occ. eigenvalues --   -1.06209  -1.03762  -0.98732  -0.98278  -0.97392
 Alpha  occ. eigenvalues --   -0.96632  -0.95966  -0.90929  -0.83870  -0.82068
 Alpha  occ. eigenvalues --   -0.81445  -0.81334  -0.79712  -0.79385  -0.78592
 Alpha  occ. eigenvalues --   -0.77578  -0.76630  -0.75458  -0.74212  -0.72903
 Alpha  occ. eigenvalues --   -0.71162  -0.69839  -0.69065  -0.68709  -0.67397
 Alpha  occ. eigenvalues --   -0.66276  -0.65750  -0.63977  -0.62640  -0.61985
 Alpha  occ. eigenvalues --   -0.61226  -0.60162  -0.58577  -0.57875  -0.57004
 Alpha  occ. eigenvalues --   -0.55044  -0.54936  -0.54636  -0.52936  -0.52793
 Alpha  occ. eigenvalues --   -0.52541  -0.52047  -0.51134  -0.50872  -0.50169
 Alpha  occ. eigenvalues --   -0.49376  -0.49310  -0.48862  -0.48517  -0.47868
 Alpha  occ. eigenvalues --   -0.47603  -0.46983  -0.46377  -0.45674  -0.45277
 Alpha  occ. eigenvalues --   -0.45005  -0.44540  -0.44335  -0.44230  -0.43992
 Alpha  occ. eigenvalues --   -0.43638  -0.43190  -0.42957  -0.42763  -0.42488
 Alpha  occ. eigenvalues --   -0.42127  -0.41745  -0.41648  -0.41466  -0.41002
 Alpha  occ. eigenvalues --   -0.40783  -0.40293  -0.39854  -0.39559  -0.39161
 Alpha  occ. eigenvalues --   -0.38780  -0.38668  -0.38301  -0.38062  -0.37931
 Alpha  occ. eigenvalues --   -0.37553  -0.37196  -0.37088  -0.36597  -0.36268
 Alpha  occ. eigenvalues --   -0.36249  -0.35611  -0.35032  -0.34942  -0.34597
 Alpha  occ. eigenvalues --   -0.34221  -0.33945  -0.33138  -0.32693  -0.32358
 Alpha  occ. eigenvalues --   -0.31899  -0.31612  -0.31294  -0.30634  -0.29204
 Alpha  occ. eigenvalues --   -0.28076  -0.27913  -0.26785  -0.26662  -0.26142
 Alpha  occ. eigenvalues --   -0.24991  -0.24860  -0.23648  -0.22905  -0.22111
 Alpha  occ. eigenvalues --   -0.16999
 Alpha virt. eigenvalues --   -0.10814  -0.06398  -0.04506  -0.01462  -0.00847
 Alpha virt. eigenvalues --    0.00075   0.01147   0.01661   0.02291   0.03155
 Alpha virt. eigenvalues --    0.03416   0.04094   0.04664   0.04761   0.05390

 Mulliken charges:
               1
     1  O   -0.163486
     2  O   -0.183414
     3  O   -0.145618
     4  O   -0.192136
     5  O   -0.276601
     6  O   -0.297849
     7  N   -0.111926
     8  N   -0.129729
     9  N   -0.161968
    10  N   -0.315698
    11  C   -0.128279
    12  C    0.080252
    13  C   -0.146904
    14  C    0.042614
    15  C   -0.022975
    16  C    0.072406
    17  C   -0.107276
    18  C    0.030917
    19  C    0.109865
    20  C   -0.022903
    21  C    0.151646
    22  C    0.135685
    23  C   -0.015204
    24  C   -0.014816
    25  C   -0.170996
    26  C    0.085440
    27  C    0.078385
    28  C   -0.014439
    29  C   -0.036217
    30  C   -0.171645
    31  C   -0.115180
    32  C   -0.066698
    33  C   -0.172286
    34  C    0.058503
    35  C   -0.078192
    36  C   -0.120548
    37  C    0.117349
    38  C    0.112901
    39  C    0.174289
    40  C    0.091012
    41  C    0.162834
    42  C    0.117681
    43  C   -0.045122
    44  H    0.154235
    45  H    0.057560
    46  H    0.064933
    47  H   -0.005731
    48  H    0.046136
    49  H    0.043851
    50  H    0.045300
    51  H    0.058843
    52  H    0.174695
    53  H   -0.015992
    54  H    0.061662
    55  H    0.017212
    56  H    0.193500
    57  H    0.029028
    58  H    0.044551
    59  H    0.056115
    60  H    0.042780
    61  H    0.070476
    62  H    0.024844
    63  H    0.042477
    64  H   -0.019948
    65  H    0.026564
    66  H    0.058046
    67  H    0.030104
    68  H    0.028823
    69  H    0.012112
    70  H    0.001890
    71  H    0.029612
    72  H    0.009933
    73  H    0.005352
    74  H    0.015668
    75  H   -0.020671
    76  H    0.032598
    77  H    0.006546
    78  H   -0.010261
    79  H    0.040423
    80  H    0.183950
    81  H    0.169113
 Sum of Mulliken charges =  -0.00000

 Dipole moment (field-independent basis, Debye):
    X=             -1.2259    Y=             -1.9532    Z=             -2.7962  Tot=              3.6244
 Quadrupole moment (field-independent basis, Debye-Ang):
   XX=           -258.8676   YY=           -239.5881   ZZ=           -254.1137
   XY=             21.2628   XZ=             14.6155   YZ=            -14.8869

 Normal termination of Gaussian 16 at Wed Jul  3 16:35:52 2019.
