 Gaussian 16, Revision A.03,
 Gaussian 16:  ES64L-G16RevA.03 25-Dec-2016

 --------------------------
 # td=(NStates=1) B3LYP/SVP
 --------------------------

 --
 TD
 --
 Symbolic Z-matrix:
 Charge =  0 Multiplicity = 1

                         Standard orientation:
 ---------------------------------------------------------------------
 Center     Atomic      Atomic             Coordinates (Angstroms)
 Number     Number       Type             X           Y           Z
 ---------------------------------------------------------------------
      1          8           0        4.017613   -4.983687   -1.860871
      2          8           0       -2.956506   -4.928796   -1.086092
      3          8           0       -7.040987   -1.510474   -1.720829
      4          8           0       -3.651775   -3.022850   -0.106150
      5          8           0       -7.603955   -0.410219    0.126190
      6          8           0        3.136153    2.327735    0.495905
      7          7           0        0.276023   -0.493002    0.583467
      8          7           0       -1.519892    1.963960    0.566558
      9          7           0        3.050895   -3.232201   -0.726287
     10          7           0        0.847251    2.889982    0.132570
     11          6           0       -0.788224   -2.226917    1.463342
     12          6           0       -0.925453   -0.943138    0.938537
     13          6           0        0.564442   -2.506517    1.197516
     14          6           0        1.214575   -1.381532    0.695757
     15          6           0       -3.800838    1.706991    0.230239
     16          6           0       -2.507135    1.061908    0.610161
     17          6           0       -2.201828   -0.268355    0.935839
     18          6           0       -3.381135    3.050522   -0.127505
     19          6           0       -1.847368   -3.212486    2.012797
     20          6           0        5.300821   -3.019157   -1.371361
     21          6           0        3.421693   -2.023476   -0.095775
     22          6           0       -1.978464    3.167897    0.086892
     23          6           0        4.802149   -1.809990   -0.467913
     24          6           0       -5.152451    1.133132    0.254967
     25          6           0        2.544450   -1.022548    0.336146
     26          6           0        1.305399   -3.806670    1.809142
     27          6           0        4.055081   -3.877249   -1.303960
     28          6           0       -2.044548   -4.500903    1.057509
     29          6           0       -5.377563   -0.112754   -0.782584
     30          6           0       -4.348968    4.045729   -0.587777
     31          6           0       -1.148585    4.176562   -0.310163
     32          6           0        6.458533   -3.785096   -0.922280
     33          6           0        5.685202   -0.846305   -0.086727
     34          6           0        0.294714    4.009226   -0.291958
     35          6           0        1.293428    5.043959   -0.577523
     36          6           0        2.566295    4.614329   -0.322098
     37          6           0       -2.912296   -4.059254   -0.123634
     38          6           0        5.451829    0.368906    0.787800
     39          6           0       -6.833876   -0.599104   -0.818986
     40          6           0        3.971863    5.039206   -0.266235
     41          6           0        2.350781    3.174191    0.164950
     42          6           0        1.011221    6.439117   -1.142443
     43          6           0        4.552932    5.483816    1.171109
     44          1           0        0.189874    0.422530    0.139236
     45          1           0       -2.850299   -0.882246    1.388894
     46          1           0       -2.801508   -2.743356    2.241474
     47          1           0       -1.656331   -3.747223    3.123542
     48          1           0        5.356262   -2.603515   -2.447223
     49          1           0       -5.273346    0.590237    1.319922
     50          1           0       -5.826003    2.109101    0.270045
     51          1           0        2.831311   -0.056146    0.762657
     52          1           0       -0.381736    2.003048    0.608057
     53          1           0        1.467101   -4.708163    1.161575
     54          1           0        2.226654   -3.459273    2.021618
     55          1           0        0.828802   -3.885048    2.910357
     56          1           0        2.250527   -3.679522   -0.469388
     57          1           0       -0.914554   -4.783656    0.597162
     58          1           0       -2.515686   -5.471866    1.307484
     59          1           0       -4.903996   -0.990740   -0.662716
     60          1           0       -5.191440    0.402548   -1.966772
     61          1           0       -4.016724    4.952018   -0.171787
     62          1           0       -5.384028    3.659195   -0.297440
     63          1           0       -4.260273    4.313207   -1.606900
     64          1           0       -1.499346    5.177317   -0.833323
     65          1           0        7.291624   -3.167018   -0.954342
     66          1           0        6.522719   -4.525178   -1.722058
     67          1           0        6.419997   -3.883786    0.111046
     68          1           0        6.660401   -0.884675   -0.370828
     69          1           0        5.027302    1.198972    0.181113
     70          1           0        6.225253    0.732268    1.254441
     71          1           0        4.638927    0.199361    1.467043
     72          1           0        4.003018    5.966973   -0.791915
     73          1           0        4.689441    4.212337   -0.720795
     74          1           0        0.339657    6.456718   -1.976091
     75          1           0        1.972663    6.882940   -1.848604
     76          1           0        0.504262    7.186037   -0.478301
     77          1           0        3.893624    6.383553    1.495958
     78          1           0        5.572369    5.779667    0.916353
     79          1           0        4.672691    4.520709    1.833584
     80          1           0       -3.514649   -4.548548   -1.853532
     81          1           0       -7.958898   -1.887862   -1.541599
 ---------------------------------------------------------------------

 SCF Done:  E(RB3LYP) =  -1949.05265715     A.U. after   17 cycles

 Excitation energies and oscillator strengths:

 Excited State   1:      Singlet-A      1.7298 eV  716.76 nm  f=0.2978  <S**2>=0.000
     156 ->157         0.70924
     156 <-157        -0.13015
 This state for optimization and/or second-order correction.
 Total Energy, E(TD-HF/TD-DFT) =  -1948.98908837
 Copying the excited state density for this state as the 1-particle RhoCI density.

 The electronic state is 1-A.
 Alpha  occ. eigenvalues --  -19.20752 -19.19331 -19.12788 -19.12717 -19.11369
 Alpha  occ. eigenvalues --  -19.09516 -14.37450 -14.37122 -14.34796 -14.30064
 Alpha  occ. eigenvalues --  -10.33146 -10.31444 -10.28207 -10.27805 -10.24539
 Alpha  occ. eigenvalues --  -10.23401 -10.23167 -10.22995 -10.22952 -10.22896
 Alpha  occ. eigenvalues --  -10.22507 -10.22332 -10.22064 -10.21943 -10.21535
 Alpha  occ. eigenvalues --  -10.21272 -10.20591 -10.20431 -10.20354 -10.20238
 Alpha  occ. eigenvalues --  -10.20163 -10.19944 -10.19848 -10.19629 -10.19592
 Alpha  occ. eigenvalues --  -10.19588 -10.19438 -10.19321 -10.19292 -10.19012
 Alpha  occ. eigenvalues --  -10.18768 -10.16751 -10.16064  -1.11549  -1.10976
 Alpha  occ. eigenvalues --   -1.03860  -1.02639  -1.01718  -0.99027  -0.98735
 Alpha  occ. eigenvalues --   -0.97495  -0.95470  -0.91596  -0.81995  -0.81655
 Alpha  occ. eigenvalues --   -0.81213  -0.80872  -0.80127  -0.78953  -0.77011
 Alpha  occ. eigenvalues --   -0.76643  -0.75796  -0.75172  -0.74575  -0.72082
 Alpha  occ. eigenvalues --   -0.71432  -0.70430  -0.69413  -0.69069  -0.68129
 Alpha  occ. eigenvalues --   -0.67354  -0.65832  -0.65172  -0.63026  -0.61871
 Alpha  occ. eigenvalues --   -0.60637  -0.60276  -0.59434  -0.58679  -0.57260
 Alpha  occ. eigenvalues --   -0.55898  -0.55389  -0.54849  -0.54314  -0.53296
 Alpha  occ. eigenvalues --   -0.51821  -0.51342  -0.49954  -0.49503  -0.49237
 Alpha  occ. eigenvalues --   -0.48705  -0.48648  -0.48424  -0.48111  -0.47563
 Alpha  occ. eigenvalues --   -0.47410  -0.47043  -0.46809  -0.46150  -0.45407
 Alpha  occ. eigenvalues --   -0.44996  -0.44797  -0.44345  -0.44295  -0.43923
 Alpha  occ. eigenvalues --   -0.43674  -0.43020  -0.42612  -0.42376  -0.42072
 Alpha  occ. eigenvalues --   -0.41559  -0.41495  -0.41279  -0.41172  -0.40965
 Alpha  occ. eigenvalues --   -0.40788  -0.40425  -0.40183  -0.39988  -0.39712
 Alpha  occ. eigenvalues --   -0.39437  -0.39054  -0.38506  -0.38236  -0.38012
 Alpha  occ. eigenvalues --   -0.37530  -0.37193  -0.36724  -0.36326  -0.36081
 Alpha  occ. eigenvalues --   -0.35966  -0.35778  -0.35614  -0.35153  -0.34943
 Alpha  occ. eigenvalues --   -0.34845  -0.34339  -0.34160  -0.33957  -0.33111
 Alpha  occ. eigenvalues --   -0.32325  -0.31818  -0.31557  -0.29617  -0.29548
 Alpha  occ. eigenvalues --   -0.28205  -0.26815  -0.26586  -0.25700  -0.25394
 Alpha  occ. eigenvalues --   -0.24934  -0.24499  -0.24352  -0.23327  -0.21464
 Alpha  occ. eigenvalues --   -0.17260
 Alpha virt. eigenvalues --   -0.10391  -0.06094  -0.04430  -0.01318   0.00439
 Alpha virt. eigenvalues --    0.00676   0.02354   0.02654   0.03202   0.03421
 Alpha virt. eigenvalues --    0.04138   0.04384   0.04876   0.05002   0.05306

 Mulliken charges:
               1
     1  O   -0.250461
     2  O   -0.150786
     3  O   -0.152682
     4  O   -0.295646
     5  O   -0.271108
     6  O   -0.172557
     7  N    0.075057
     8  N   -0.139953
     9  N   -0.013505
    10  N   -0.368551
    11  C   -0.047093
    12  C   -0.112201
    13  C   -0.228073
    14  C    0.053322
    15  C   -0.045743
    16  C    0.103989
    17  C    0.043163
    18  C   -0.186868
    19  C    0.077888
    20  C   -0.094219
    21  C    0.091804
    22  C    0.148838
    23  C   -0.050690
    24  C    0.025219
    25  C   -0.087730
    26  C    0.065841
    27  C    0.068810
    28  C   -0.064496
    29  C   -0.006415
    30  C    0.176885
    31  C   -0.161234
    32  C    0.197616
    33  C   -0.134898
    34  C    0.076979
    35  C   -0.093859
    36  C   -0.132855
    37  C    0.140397
    38  C    0.150521
    39  C    0.124383
    40  C    0.041998
    41  C    0.168944
    42  C    0.025236
    43  C   -0.035738
    44  H    0.122486
    45  H   -0.077430
    46  H    0.021573
    47  H    0.030813
    48  H    0.050982
    49  H    0.046098
    50  H    0.041843
    51  H    0.042947
    52  H    0.192112
    53  H    0.048321
    54  H   -0.016169
    55  H    0.045080
    56  H    0.085779
    57  H    0.073470
    58  H    0.055544
    59  H    0.027457
    60  H    0.047917
    61  H   -0.009181
    62  H    0.024322
    63  H   -0.002126
    64  H    0.002007
    65  H   -0.030090
    66  H    0.038368
    67  H   -0.020025
    68  H   -0.049273
    69  H    0.049065
    70  H   -0.042675
    71  H    0.003395
    72  H   -0.019442
    73  H    0.044773
    74  H    0.005084
    75  H    0.039590
    76  H    0.038300
    77  H    0.044082
    78  H    0.020106
    79  H    0.052086
    80  H    0.216197
    81  H    0.197086
 Sum of Mulliken charges =  -0.00000

 Dipole moment (field-independent basis, Debye):
    X=             -1.2778    Y=              1.9716    Z=             -1.0420  Tot=              2.5702
 Quadrupole moment (field-independent basis, Debye-Ang):
   XX=           -250.5704   YY=           -240.3889   ZZ=           -254.0228
   XY=             26.8509   XZ=             18.2934   YZ=            -15.7128

 Normal termination of Gaussian 16 at Sun Jun 30 17:21:45 2019.
