 Gaussian 16, Revision A.03,
 Gaussian 16:  ES64L-G16RevA.03 25-Dec-2016

 --------------------------
 # td=(NStates=1) B3LYP/SVP
 --------------------------

 --
 TD
 --
 Symbolic Z-matrix:
 Charge =  0 Multiplicity = 1

                         Standard orientation:
 ---------------------------------------------------------------------
 Center     Atomic      Atomic             Coordinates (Angstroms)
 Number     Number       Type             X           Y           Z
 ---------------------------------------------------------------------
      1          8           0        4.078746   -4.989499   -1.833141
      2          8           0       -3.056484   -4.745056   -1.174564
      3          8           0       -7.015900   -1.237307   -1.991602
      4          8           0       -4.006666   -3.121518    0.022257
      5          8           0       -7.530368   -0.531761    0.035160
      6          8           0        3.015936    2.286082    0.273147
      7          7           0        0.204621   -0.514562    0.656803
      8          7           0       -1.473412    1.917539    0.329049
      9          7           0        3.185202   -3.314240   -0.680949
     10          7           0        0.867564    2.846198    0.083249
     11          6           0       -0.739269   -2.246343    1.521795
     12          6           0       -0.964364   -0.999430    1.081480
     13          6           0        0.644333   -2.523814    1.323515
     14          6           0        1.229233   -1.386751    0.729949
     15          6           0       -3.790665    1.590517    0.234314
     16          6           0       -2.427244    0.948627    0.505793
     17          6           0       -2.256925   -0.314848    1.050518
     18          6           0       -3.415643    2.863151   -0.036453
     19          6           0       -1.855213   -3.233819    2.019550
     20          6           0        5.372538   -3.032605   -1.327322
     21          6           0        3.410282   -1.955722   -0.230647
     22          6           0       -1.996675    3.041916   -0.053962
     23          6           0        4.950984   -1.801403   -0.567543
     24          6           0       -5.114938    0.863188    0.308812
     25          6           0        2.555735   -1.052890    0.317901
     26          6           0        1.327592   -3.820954    1.838794
     27          6           0        4.249840   -3.955235   -1.249642
     28          6           0       -2.169032   -4.408506    1.042167
     29          6           0       -5.346353   -0.023045   -0.901266
     30          6           0       -4.404282    4.067658   -0.361605
     31          6           0       -1.152072    4.087099   -0.334828
     32          6           0        6.752350   -3.537888   -0.913810
     33          6           0        5.704580   -0.799847   -0.090805
     34          6           0        0.315602    3.986199   -0.236900
     35          6           0        1.254469    5.121778   -0.561418
     36          6           0        2.500113    4.627450   -0.256796
     37          6           0       -3.091746   -3.951714   -0.000672
     38          6           0        5.547753    0.433222    0.752782
     39          6           0       -6.672342   -0.584836   -0.821073
     40          6           0        3.864393    5.184181   -0.279365
     41          6           0        2.222013    3.138303    0.115996
     42          6           0        0.963726    6.531534   -0.890754
     43          6           0        4.500061    5.459947    1.126763
     44          1           0        0.218913    0.395059    0.245003
     45          1           0       -3.086419   -1.195550    0.960290
     46          1           0       -2.627199   -2.664908    2.484887
     47          1           0       -1.719814   -3.810244    3.007055
     48          1           0        5.153285   -2.362335   -2.436310
     49          1           0       -4.917851    0.422274    1.463311
     50          1           0       -5.839600    1.621690    0.378509
     51          1           0        2.776428    0.256109    0.262116
     52          1           0       -0.377590    1.879330    0.368595
     53          1           0        1.156588   -4.560555    0.998582
     54          1           0        2.481691   -3.741247    1.940262
     55          1           0        1.051008   -3.988256    2.783545
     56          1           0        2.206332   -3.510433   -0.706928
     57          1           0       -0.999113   -4.926900    0.678204
     58          1           0       -2.701734   -5.371439    1.468876
     59          1           0       -4.720237   -0.927649   -0.632875
     60          1           0       -5.153389    0.387185   -1.891874
     61          1           0       -3.823816    5.161140    0.029021
     62          1           0       -5.435182    3.937877    0.252280
     63          1           0       -4.425907    4.003622   -1.595264
     64          1           0       -1.440525    5.173698   -0.643019
     65          1           0        7.504666   -2.932001   -1.175180
     66          1           0        6.921549   -4.387921   -1.485962
     67          1           0        6.753264   -3.916234    0.172648
     68          1           0        6.671024   -0.775594   -0.441073
     69          1           0        5.028686    1.176737    0.233411
     70          1           0        6.474709    0.674526    1.187875
     71          1           0        4.742574    0.402047    1.571192
     72          1           0        3.878862    6.132188   -0.770783
     73          1           0        4.423300    4.423189   -0.845096
     74          1           0        0.433974    6.631724   -1.861523
     75          1           0        1.814171    7.165478   -1.031585
     76          1           0        0.217797    6.867620   -0.171205
     77          1           0        4.016549    6.216307    1.767525
     78          1           0        5.424578    5.780308    0.855611
     79          1           0        4.431057    4.526893    1.658267
     80          1           0       -3.676916   -4.412147   -1.651652
     81          1           0       -8.018690   -1.474378   -1.925465
 ---------------------------------------------------------------------

 SCF Done:  E(RB3LYP) =  -1949.02233065     A.U. after   16 cycles

 Excitation energies and oscillator strengths:

 Excited State   1:      Singlet-A      1.8083 eV  685.66 nm  f=0.2584  <S**2>=0.000
     156 ->157         0.70587
 This state for optimization and/or second-order correction.
 Total Energy, E(TD-HF/TD-DFT) =  -1948.95587838
 Copying the excited state density for this state as the 1-particle RhoCI density.

 The electronic state is 1-A.
 Alpha  occ. eigenvalues --  -19.16711 -19.16585 -19.14983 -19.12283 -19.12057
 Alpha  occ. eigenvalues --  -19.09814 -14.36689 -14.36047 -14.35971 -14.30591
 Alpha  occ. eigenvalues --  -10.34078 -10.31302 -10.28413 -10.27940 -10.24942
 Alpha  occ. eigenvalues --  -10.24541 -10.23979 -10.23864 -10.23786 -10.23752
 Alpha  occ. eigenvalues --  -10.22263 -10.21997 -10.21779 -10.21645 -10.21505
 Alpha  occ. eigenvalues --  -10.21441 -10.21326 -10.21138 -10.21088 -10.20437
 Alpha  occ. eigenvalues --  -10.20179 -10.20125 -10.19737 -10.19718 -10.19600
 Alpha  occ. eigenvalues --  -10.19571 -10.19151 -10.18590 -10.18553 -10.18315
 Alpha  occ. eigenvalues --  -10.18034 -10.17693 -10.16771  -1.10508  -1.07822
 Alpha  occ. eigenvalues --   -1.06003  -1.03819  -1.01192  -1.00550  -0.99540
 Alpha  occ. eigenvalues --   -0.98206  -0.94308  -0.93520  -0.83081  -0.81601
 Alpha  occ. eigenvalues --   -0.81509  -0.81435  -0.80748  -0.78702  -0.78356
 Alpha  occ. eigenvalues --   -0.77779  -0.76906  -0.76020  -0.74061  -0.72004
 Alpha  occ. eigenvalues --   -0.70605  -0.70092  -0.69888  -0.69107  -0.68505
 Alpha  occ. eigenvalues --   -0.66983  -0.65981  -0.65202  -0.63662  -0.61199
 Alpha  occ. eigenvalues --   -0.59631  -0.58826  -0.58401  -0.57773  -0.56971
 Alpha  occ. eigenvalues --   -0.55732  -0.55543  -0.54947  -0.54413  -0.53635
 Alpha  occ. eigenvalues --   -0.52819  -0.51319  -0.50879  -0.50436  -0.50226
 Alpha  occ. eigenvalues --   -0.49664  -0.48770  -0.48608  -0.48373  -0.47795
 Alpha  occ. eigenvalues --   -0.47017  -0.46960  -0.46600  -0.46216  -0.45827
 Alpha  occ. eigenvalues --   -0.45378  -0.44995  -0.44797  -0.43552  -0.43516
 Alpha  occ. eigenvalues --   -0.43321  -0.43027  -0.42731  -0.42372  -0.42090
 Alpha  occ. eigenvalues --   -0.41985  -0.41477  -0.41299  -0.41227  -0.40844
 Alpha  occ. eigenvalues --   -0.40748  -0.40400  -0.40031  -0.39919  -0.39756
 Alpha  occ. eigenvalues --   -0.39730  -0.39277  -0.39017  -0.38954  -0.38856
 Alpha  occ. eigenvalues --   -0.37816  -0.37330  -0.37088  -0.36799  -0.36704
 Alpha  occ. eigenvalues --   -0.36154  -0.35878  -0.35301  -0.35045  -0.34728
 Alpha  occ. eigenvalues --   -0.34361  -0.34291  -0.33921  -0.33495  -0.32951
 Alpha  occ. eigenvalues --   -0.32797  -0.31119  -0.30933  -0.30360  -0.30193
 Alpha  occ. eigenvalues --   -0.29883  -0.27634  -0.26279  -0.26071  -0.25953
 Alpha  occ. eigenvalues --   -0.25576  -0.24701  -0.24692  -0.23816  -0.21670
 Alpha  occ. eigenvalues --   -0.17727
 Alpha virt. eigenvalues --   -0.10225  -0.05388  -0.03702  -0.02781  -0.00613
 Alpha virt. eigenvalues --    0.00483   0.01856   0.02771   0.03250   0.04243
 Alpha virt. eigenvalues --    0.04776   0.05094   0.05224   0.05600   0.06269

 Mulliken charges:
               1
     1  O   -0.198454
     2  O   -0.148346
     3  O   -0.260746
     4  O   -0.247260
     5  O   -0.228852
     6  O   -0.151570
     7  N    0.018638
     8  N   -0.081445
     9  N   -0.117015
    10  N   -0.259778
    11  C   -0.077160
    12  C   -0.042892
    13  C   -0.221053
    14  C    0.035267
    15  C   -0.102836
    16  C    0.059526
    17  C   -0.110897
    18  C   -0.136549
    19  C    0.078206
    20  C   -0.120918
    21  C    0.087595
    22  C    0.156577
    23  C   -0.041017
    24  C    0.087189
    25  C   -0.185271
    26  C    0.102259
    27  C    0.119966
    28  C   -0.073481
    29  C    0.068937
    30  C   -0.064258
    31  C   -0.166787
    32  C    0.164192
    33  C   -0.164534
    34  C    0.006757
    35  C   -0.111477
    36  C   -0.191350
    37  C    0.178555
    38  C    0.119235
    39  C    0.115522
    40  C    0.076482
    41  C    0.132594
    42  C    0.135990
    43  C    0.046761
    44  H    0.088226
    45  H    0.084249
    46  H    0.007221
    47  H    0.002708
    48  H    0.094899
    49  H    0.076909
    50  H   -0.018104
    51  H    0.119841
    52  H    0.180804
    53  H    0.033986
    54  H    0.026782
    55  H   -0.002586
    56  H    0.119545
    57  H    0.093143
    58  H    0.083343
    59  H    0.077656
    60  H    0.050944
    61  H    0.052743
    62  H    0.068466
    63  H    0.066848
    64  H   -0.010736
    65  H   -0.013749
    66  H   -0.002663
    67  H    0.035153
    68  H   -0.048184
    69  H    0.025591
    70  H    0.002562
    71  H    0.014498
    72  H   -0.018698
    73  H    0.026609
    74  H    0.012283
    75  H    0.009142
    76  H    0.027088
    77  H    0.013432
    78  H   -0.002089
    79  H    0.023603
    80  H    0.106037
    81  H    0.206192
 Sum of Mulliken charges =  -0.00000

 Dipole moment (field-independent basis, Debye):
    X=             -0.4306    Y=              4.1403    Z=             -0.1678  Tot=              4.1660
 Quadrupole moment (field-independent basis, Debye-Ang):
   XX=           -254.2394   YY=           -239.2802   ZZ=           -255.3378
   XY=             17.0030   XZ=             10.8963   YZ=            -17.3767

 Normal termination of Gaussian 16 at Sat Jun 29 09:33:22 2019.
