 Gaussian 16, Revision A.03,
 Gaussian 16:  ES64L-G16RevA.03 25-Dec-2016

 --------------------------
 # td=(NStates=1) B3LYP/SVP
 --------------------------

 --
 TD
 --
 Symbolic Z-matrix:
 Charge =  0 Multiplicity = 1

                         Standard orientation:
 ---------------------------------------------------------------------
 Center     Atomic      Atomic             Coordinates (Angstroms)
 Number     Number       Type             X           Y           Z
 ---------------------------------------------------------------------
      1          8           0        4.125877   -4.968070   -1.884060
      2          8           0       -3.044490   -4.799194   -1.294373
      3          8           0       -6.937936   -1.551294   -1.744228
      4          8           0       -3.953793   -3.204484   -0.059310
      5          8           0       -7.595971   -0.407136    0.104233
      6          8           0        3.085368    2.280999    0.351135
      7          7           0        0.299858   -0.496229    0.608402
      8          7           0       -1.533937    1.863838    0.483060
      9          7           0        3.284810   -3.169023   -0.672658
     10          7           0        0.844434    2.917730    0.149909
     11          6           0       -0.694831   -2.406619    1.364665
     12          6           0       -0.928868   -1.060139    1.011547
     13          6           0        0.723599   -2.562458    1.319672
     14          6           0        1.334763   -1.403407    0.810852
     15          6           0       -3.816027    1.625837    0.232818
     16          6           0       -2.524177    0.916556    0.635011
     17          6           0       -2.234920   -0.456216    0.962163
     18          6           0       -3.447890    2.880648   -0.170513
     19          6           0       -1.724889   -3.348976    1.991481
     20          6           0        5.465593   -2.794665   -1.298575
     21          6           0        3.601368   -1.903873   -0.145529
     22          6           0       -2.042808    3.016295   -0.006735
     23          6           0        5.008369   -1.606174   -0.550854
     24          6           0       -5.186533    1.076187    0.361332
     25          6           0        2.657436   -1.053378    0.451970
     26          6           0        1.422114   -3.755056    1.668829
     27          6           0        4.278897   -3.806811   -1.314634
     28          6           0       -2.216975   -4.456702    1.026238
     29          6           0       -5.395743   -0.043550   -0.795388
     30          6           0       -4.458642    4.000252   -0.524900
     31          6           0       -1.161449    4.070617   -0.322730
     32          6           0        6.686413   -3.520582   -0.649178
     33          6           0        5.931084   -0.652859   -0.237949
     34          6           0        0.244348    3.997921   -0.323602
     35          6           0        1.169896    5.119100   -0.548428
     36          6           0        2.361347    4.648826   -0.329340
     37          6           0       -3.183774   -4.074812   -0.154305
     38          6           0        5.651468    0.547475    0.666611
     39          6           0       -6.746190   -0.703391   -0.725998
     40          6           0        3.737625    5.239130   -0.285490
     41          6           0        2.176688    3.143754    0.086815
     42          6           0        0.766452    6.508944   -1.040738
     43          6           0        4.293339    5.467643    1.157543
     44          1           0        0.420167    0.466244    0.160540
     45          1           0       -3.067154   -1.091652    1.174254
     46          1           0       -2.456825   -2.570247    2.482179
     47          1           0       -1.204716   -3.942953    2.794804
     48          1           0        5.506720   -2.461644   -2.440269
     49          1           0       -5.495367    0.745081    1.288614
     50          1           0       -6.049035    1.718973    0.320517
     51          1           0        3.066500   -0.168606    0.696846
     52          1           0       -0.437271    1.803442    0.548871
     53          1           0        1.286211   -4.636985    0.923572
     54          1           0        2.448811   -3.612205    2.047467
     55          1           0        0.946213   -4.443909    2.475661
     56          1           0        2.332688   -3.508616   -0.734880
     57          1           0       -1.491070   -5.147167    0.667044
     58          1           0       -2.937719   -5.068973    1.599783
     59          1           0       -4.437258   -0.726217   -0.632123
     60          1           0       -5.290445    0.407958   -1.789799
     61          1           0       -4.123553    4.928254   -0.188648
     62          1           0       -5.664138    3.912900    0.049164
     63          1           0       -4.356651    3.943933   -1.640425
     64          1           0       -1.672185    4.976390   -0.607529
     65          1           0        7.663743   -2.874817   -0.720013
     66          1           0        7.085489   -4.411724   -1.113682
     67          1           0        6.607936   -3.749109    0.427696
     68          1           0        6.817678   -0.844828   -0.808308
     69          1           0        4.664994    1.233954    0.177363
     70          1           0        6.654796    1.050115    0.733386
     71          1           0        5.266563    0.288411    1.870491
     72          1           0        3.899619    6.254125   -0.711939
     73          1           0        4.278197    4.516713   -0.793247
     74          1           0        0.163758    6.520394   -1.814404
     75          1           0        1.698633    7.064443   -1.192408
     76          1           0        0.248780    7.007331   -0.204806
     77          1           0        3.352744    5.920446    1.925278
     78          1           0        5.337255    6.082988    1.263034
     79          1           0        4.154920    4.579653    1.602351
     80          1           0       -3.624786   -4.566021   -2.044812
     81          1           0       -7.775327   -2.113967   -1.495747
 ---------------------------------------------------------------------

 SCF Done:  E(RB3LYP) =  -1949.10061584     A.U. after   16 cycles

 Excitation energies and oscillator strengths:

 Excited State   1:      Singlet-A      1.7600 eV  704.46 nm  f=0.3133  <S**2>=0.000
     156 ->157         0.70702
     156 <-157        -0.11639
 This state for optimization and/or second-order correction.
 Total Energy, E(TD-HF/TD-DFT) =  -1949.03593745
 Copying the excited state density for this state as the 1-particle RhoCI density.

 The electronic state is 1-A.
 Alpha  occ. eigenvalues --  -19.19276 -19.18692 -19.13776 -19.12789 -19.10444
 Alpha  occ. eigenvalues --  -19.09861 -14.38232 -14.37517 -14.36709 -14.29690
 Alpha  occ. eigenvalues --  -10.33188 -10.32307 -10.28925 -10.27205 -10.25157
 Alpha  occ. eigenvalues --  -10.24682 -10.24269 -10.23870 -10.23808 -10.23019
 Alpha  occ. eigenvalues --  -10.22990 -10.22581 -10.22299 -10.21956 -10.21643
 Alpha  occ. eigenvalues --  -10.21580 -10.21360 -10.20581 -10.20294 -10.20285
 Alpha  occ. eigenvalues --  -10.20222 -10.19822 -10.19663 -10.19531 -10.19514
 Alpha  occ. eigenvalues --  -10.19490 -10.19319 -10.19252 -10.18987 -10.18855
 Alpha  occ. eigenvalues --  -10.18598 -10.18574 -10.18553  -1.11185  -1.09425
 Alpha  occ. eigenvalues --   -1.02606  -1.00528  -1.00200  -0.99518  -0.98513
 Alpha  occ. eigenvalues --   -0.97221  -0.93320  -0.93030  -0.82364  -0.81953
 Alpha  occ. eigenvalues --   -0.81881  -0.81383  -0.80433  -0.79184  -0.77762
 Alpha  occ. eigenvalues --   -0.76695  -0.76333  -0.75143  -0.73588  -0.72317
 Alpha  occ. eigenvalues --   -0.70895  -0.69643  -0.69272  -0.68615  -0.68142
 Alpha  occ. eigenvalues --   -0.67728  -0.66129  -0.64010  -0.62733  -0.62276
 Alpha  occ. eigenvalues --   -0.61488  -0.59840  -0.59155  -0.58188  -0.57528
 Alpha  occ. eigenvalues --   -0.56368  -0.56098  -0.55220  -0.53721  -0.53349
 Alpha  occ. eigenvalues --   -0.53013  -0.52061  -0.51131  -0.50281  -0.49450
 Alpha  occ. eigenvalues --   -0.49087  -0.48802  -0.48408  -0.48077  -0.47529
 Alpha  occ. eigenvalues --   -0.47059  -0.46651  -0.46530  -0.45888  -0.45346
 Alpha  occ. eigenvalues --   -0.45153  -0.44656  -0.44520  -0.44308  -0.43788
 Alpha  occ. eigenvalues --   -0.43352  -0.43307  -0.42940  -0.42861  -0.42140
 Alpha  occ. eigenvalues --   -0.41987  -0.41580  -0.41476  -0.40992  -0.40630
 Alpha  occ. eigenvalues --   -0.40454  -0.40268  -0.40135  -0.39948  -0.39372
 Alpha  occ. eigenvalues --   -0.39012  -0.38918  -0.38807  -0.38790  -0.38275
 Alpha  occ. eigenvalues --   -0.37685  -0.37138  -0.36816  -0.36581  -0.36419
 Alpha  occ. eigenvalues --   -0.36216  -0.35718  -0.35088  -0.34949  -0.34575
 Alpha  occ. eigenvalues --   -0.34039  -0.33970  -0.33828  -0.33104  -0.32939
 Alpha  occ. eigenvalues --   -0.32432  -0.32150  -0.30689  -0.29877  -0.29140
 Alpha  occ. eigenvalues --   -0.28595  -0.28380  -0.26302  -0.26060  -0.25065
 Alpha  occ. eigenvalues --   -0.24868  -0.24570  -0.24466  -0.24046  -0.21942
 Alpha  occ. eigenvalues --   -0.18213
 Alpha virt. eigenvalues --   -0.11089  -0.05865  -0.04557  -0.00568  -0.00203
 Alpha virt. eigenvalues --    0.00361   0.01357   0.02540   0.02772   0.03087
 Alpha virt. eigenvalues --    0.04163   0.04648   0.05019   0.05887   0.06236

 Mulliken charges:
               1
     1  O   -0.303238
     2  O   -0.205644
     3  O   -0.206120
     4  O   -0.175300
     5  O   -0.246653
     6  O   -0.282458
     7  N   -0.134638
     8  N   -0.108276
     9  N   -0.069603
    10  N   -0.264480
    11  C   -0.086899
    12  C    0.071989
    13  C   -0.122720
    14  C    0.152796
    15  C   -0.057377
    16  C    0.054930
    17  C   -0.032633
    18  C   -0.126456
    19  C    0.060356
    20  C   -0.089325
    21  C    0.037829
    22  C    0.068684
    23  C   -0.034285
    24  C    0.136298
    25  C   -0.022463
    26  C    0.009700
    27  C    0.134777
    28  C    0.048250
    29  C   -0.088947
    30  C    0.052100
    31  C   -0.110361
    32  C    0.040296
    33  C   -0.068045
    34  C    0.093546
    35  C   -0.129709
    36  C   -0.202821
    37  C    0.089646
    38  C   -0.092504
    39  C    0.174151
    40  C    0.123612
    41  C    0.171541
    42  C    0.214631
    43  C   -0.034906
    44  H    0.152276
    45  H    0.000205
    46  H    0.052659
    47  H    0.021056
    48  H    0.069035
    49  H   -0.006812
    50  H   -0.018647
    51  H   -0.059483
    52  H    0.175865
    53  H    0.028663
    54  H    0.041376
    55  H   -0.004881
    56  H    0.134983
    57  H    0.016439
    58  H    0.036652
    59  H    0.084072
    60  H    0.037377
    61  H    0.015056
    62  H    0.066303
    63  H    0.041554
    64  H   -0.051332
    65  H    0.010101
    66  H    0.023975
    67  H    0.024146
    68  H   -0.015433
    69  H    0.152465
    70  H    0.021943
    71  H    0.053913
    72  H   -0.000110
    73  H    0.001966
    74  H   -0.017875
    75  H    0.008022
    76  H    0.010892
    77  H    0.000182
    78  H    0.058188
    79  H   -0.011328
    80  H    0.194227
    81  H    0.213038
 Sum of Mulliken charges =  -0.00000

 Dipole moment (field-independent basis, Debye):
    X=             -3.5464    Y=              0.8550    Z=             -0.4355  Tot=              3.6739
 Quadrupole moment (field-independent basis, Debye-Ang):
   XX=           -253.5927   YY=           -244.9479   ZZ=           -254.8560
   XY=             20.8203   XZ=             13.5226   YZ=            -16.7109

 Normal termination of Gaussian 16 at Fri Jun 28 05:45:29 2019.
