 Gaussian 16, Revision A.03,
 Gaussian 16:  ES64L-G16RevA.03 25-Dec-2016

 --------------------------
 # td=(NStates=1) B3LYP/SVP
 --------------------------

 --
 TD
 --
 Symbolic Z-matrix:
 Charge =  0 Multiplicity = 1

                         Standard orientation:
 ---------------------------------------------------------------------
 Center     Atomic      Atomic             Coordinates (Angstroms)
 Number     Number       Type             X           Y           Z
 ---------------------------------------------------------------------
      1          8           0        4.327679   -4.919911   -1.525325
      2          8           0       -2.876815   -5.021200   -1.071864
      3          8           0       -6.905231   -1.516030   -2.026233
      4          8           0       -3.667176   -3.165680   -0.050223
      5          8           0       -7.630593   -0.759725   -0.015234
      6          8           0        2.976224    2.432622    0.266432
      7          7           0        0.262026   -0.519300    0.547618
      8          7           0       -1.641698    1.773605    0.432054
      9          7           0        3.400124   -3.142090   -0.494604
     10          7           0        0.673543    2.913070    0.098908
     11          6           0       -0.590258   -2.375325    1.399365
     12          6           0       -0.985059   -1.154373    0.862868
     13          6           0        0.728414   -2.637529    1.243342
     14          6           0        1.319153   -1.448694    0.658246
     15          6           0       -3.855209    1.414206    0.353025
     16          6           0       -2.576870    0.840240    0.566659
     17          6           0       -2.220177   -0.562141    0.838279
     18          6           0       -3.624096    2.846881    0.071484
     19          6           0       -1.544915   -3.398743    1.937689
     20          6           0        5.496928   -2.744922   -1.287726
     21          6           0        3.645409   -1.811532   -0.101270
     22          6           0       -2.217610    3.011443    0.002522
     23          6           0        5.041299   -1.536765   -0.474160
     24          6           0       -5.188573    0.680554    0.349086
     25          6           0        2.691940   -1.054925    0.374661
     26          6           0        1.575317   -3.775636    1.838471
     27          6           0        4.467903   -3.760350   -1.158566
     28          6           0       -2.042568   -4.465031    1.045215
     29          6           0       -5.419478   -0.187195   -0.811359
     30          6           0       -4.575167    3.928351   -0.301286
     31          6           0       -1.364994    4.133980   -0.239230
     32          6           0        6.971414   -3.216716   -1.011458
     33          6           0        5.804229   -0.511443   -0.166530
     34          6           0        0.017382    3.966352   -0.341994
     35          6           0        0.975941    5.202826   -0.545837
     36          6           0        2.277927    4.702213   -0.220106
     37          6           0       -2.912966   -4.130905   -0.074167
     38          6           0        5.475275    0.771182    0.542945
     39          6           0       -6.758116   -0.803171   -0.895698
     40          6           0        3.632571    5.344040   -0.435876
     41          6           0        2.077842    3.221668    0.065130
     42          6           0        0.474846    6.631202   -0.634310
     43          6           0        4.304232    5.647590    1.050389
     44          1           0        0.156564    0.442307    0.205998
     45          1           0       -3.097137   -1.137663    1.207575
     46          1           0       -2.594869   -2.953947    2.139828
     47          1           0       -1.153122   -3.782016    2.892010
     48          1           0        5.411886   -2.259705   -2.466857
     49          1           0       -5.125822    0.054323    1.397668
     50          1           0       -5.947376    1.531213    0.278063
     51          1           0        2.778066    0.199760    0.208280
     52          1           0       -0.603539    1.707871    0.674907
     53          1           0        1.874366   -4.507865    1.121247
     54          1           0        2.532653   -3.383291    2.099291
     55          1           0        0.906565   -4.377796    2.591877
     56          1           0        2.434205   -3.555998   -0.596824
     57          1           0       -1.190948   -5.071940    0.504795
     58          1           0       -2.395013   -5.410627    1.579447
     59          1           0       -4.688392   -0.941976   -0.988343
     60          1           0       -5.116829    0.245820   -1.795757
     61          1           0       -4.418202    4.709149    0.385911
     62          1           0       -5.689613    3.756020   -0.268795
     63          1           0       -4.218851    4.312140   -1.367534
     64          1           0       -1.832741    5.082856   -0.561686
     65          1           0        7.773924   -2.502415   -1.323705
     66          1           0        7.321660   -4.119503   -1.531993
     67          1           0        7.234695   -3.674503    0.122519
     68          1           0        6.783468   -0.609209   -0.684385
     69          1           0        4.902137    1.501227    0.041127
     70          1           0        6.428124    1.260695    0.762682
     71          1           0        4.965311    0.658945    1.451985
     72          1           0        3.299722    6.362236   -0.951045
     73          1           0        4.304451    4.639559   -0.912884
     74          1           0       -0.165544    6.774613   -1.419404
     75          1           0        1.326644    7.228482   -0.874334
     76          1           0        0.035015    7.199203    0.373853
     77          1           0        3.761032    6.325570    1.647162
     78          1           0        5.382956    6.051636    0.690081
     79          1           0        4.242228    4.656436    1.484797
     80          1           0       -3.236731   -4.608572   -1.935465
     81          1           0       -7.643405   -1.984640   -1.889157
 ---------------------------------------------------------------------

 SCF Done:  E(RB3LYP) =  -1949.12825796     A.U. after   18 cycles

 Excitation energies and oscillator strengths:

 Excited State   1:      Singlet-A      1.7035 eV  727.84 nm  f=0.3683  <S**2>=0.000
     156 ->157         0.71380
     156 <-157        -0.15026
 This state for optimization and/or second-order correction.
 Total Energy, E(TD-HF/TD-DFT) =  -1949.06565725
 Copying the excited state density for this state as the 1-particle RhoCI density.

 The electronic state is 1-A.
 Alpha  occ. eigenvalues --  -19.20129 -19.17818 -19.13930 -19.12125 -19.11464
 Alpha  occ. eigenvalues --  -19.10770 -14.38057 -14.37043 -14.35477 -14.28589
 Alpha  occ. eigenvalues --  -10.33463 -10.31797 -10.29779 -10.26641 -10.25573
 Alpha  occ. eigenvalues --  -10.24440 -10.23577 -10.23313 -10.23191 -10.22939
 Alpha  occ. eigenvalues --  -10.22206 -10.21998 -10.21934 -10.21421 -10.21298
 Alpha  occ. eigenvalues --  -10.21223 -10.20646 -10.20540 -10.20492 -10.20454
 Alpha  occ. eigenvalues --  -10.20325 -10.20121 -10.20086 -10.20078 -10.20072
 Alpha  occ. eigenvalues --  -10.19958 -10.19896 -10.19550 -10.19543 -10.19100
 Alpha  occ. eigenvalues --  -10.18676 -10.18432 -10.16734  -1.10962  -1.10740
 Alpha  occ. eigenvalues --   -1.03793  -1.01945  -1.01501  -0.99614  -0.97743
 Alpha  occ. eigenvalues --   -0.96594  -0.95128  -0.90380  -0.83570  -0.82340
 Alpha  occ. eigenvalues --   -0.81576  -0.81274  -0.79326  -0.78925  -0.78183
 Alpha  occ. eigenvalues --   -0.77528  -0.76261  -0.74873  -0.73843  -0.72346
 Alpha  occ. eigenvalues --   -0.71750  -0.70057  -0.69556  -0.68352  -0.67975
 Alpha  occ. eigenvalues --   -0.67404  -0.66551  -0.65278  -0.61802  -0.61369
 Alpha  occ. eigenvalues --   -0.60839  -0.59989  -0.58713  -0.58093  -0.57488
 Alpha  occ. eigenvalues --   -0.55630  -0.54790  -0.54538  -0.53690  -0.53037
 Alpha  occ. eigenvalues --   -0.52478  -0.52197  -0.51250  -0.50669  -0.49804
 Alpha  occ. eigenvalues --   -0.49467  -0.49002  -0.48535  -0.48237  -0.47759
 Alpha  occ. eigenvalues --   -0.47314  -0.47024  -0.46114  -0.45520  -0.45006
 Alpha  occ. eigenvalues --   -0.44922  -0.44282  -0.43946  -0.43628  -0.43409
 Alpha  occ. eigenvalues --   -0.43098  -0.42713  -0.42638  -0.42260  -0.41972
 Alpha  occ. eigenvalues --   -0.41760  -0.41552  -0.41195  -0.40949  -0.40767
 Alpha  occ. eigenvalues --   -0.40556  -0.40383  -0.40272  -0.39959  -0.39739
 Alpha  occ. eigenvalues --   -0.39620  -0.39341  -0.39016  -0.38623  -0.38138
 Alpha  occ. eigenvalues --   -0.38095  -0.37905  -0.37659  -0.37228  -0.36651
 Alpha  occ. eigenvalues --   -0.36536  -0.35964  -0.35614  -0.35334  -0.34649
 Alpha  occ. eigenvalues --   -0.33924  -0.33773  -0.33443  -0.33374  -0.33015
 Alpha  occ. eigenvalues --   -0.32812  -0.32308  -0.31869  -0.29927  -0.29280
 Alpha  occ. eigenvalues --   -0.27851  -0.27622  -0.27151  -0.26680  -0.26361
 Alpha  occ. eigenvalues --   -0.25502  -0.24115  -0.23704  -0.22682  -0.21718
 Alpha  occ. eigenvalues --   -0.17354
 Alpha virt. eigenvalues --   -0.10850  -0.06074  -0.04050  -0.02369  -0.02221
 Alpha virt. eigenvalues --    0.00075   0.01950   0.02347   0.02922   0.03562
 Alpha virt. eigenvalues --    0.04310   0.05230   0.05530   0.05630   0.05991

 Mulliken charges:
               1
     1  O   -0.209024
     2  O   -0.197841
     3  O   -0.115548
     4  O   -0.236693
     5  O   -0.256449
     6  O   -0.215255
     7  N   -0.127681
     8  N   -0.125936
     9  N   -0.180982
    10  N   -0.325817
    11  C   -0.076836
    12  C    0.089144
    13  C   -0.177703
    14  C    0.076465
    15  C   -0.140095
    16  C    0.017343
    17  C   -0.040500
    18  C   -0.110999
    19  C    0.100038
    20  C   -0.084244
    21  C    0.152110
    22  C    0.088708
    23  C    0.000851
    24  C    0.119412
    25  C   -0.203005
    26  C    0.149518
    27  C    0.144080
    28  C   -0.030746
    29  C    0.022077
    30  C    0.067086
    31  C   -0.110779
    32  C   -0.007837
    33  C   -0.162465
    34  C    0.093817
    35  C   -0.138465
    36  C   -0.170966
    37  C    0.134239
    38  C    0.139337
    39  C    0.134019
    40  C    0.032617
    41  C    0.174504
    42  C    0.116404
    43  C   -0.031127
    44  H    0.120942
    45  H    0.017178
    46  H    0.023008
    47  H    0.014685
    48  H    0.091135
    49  H    0.053678
    50  H    0.019155
    51  H    0.104986
    52  H    0.160906
    53  H   -0.003205
    54  H    0.021209
    55  H    0.027970
    56  H    0.157242
    57  H    0.020847
    58  H    0.056340
    59  H    0.014801
    60  H    0.016529
    61  H    0.011767
    62  H    0.026627
    63  H    0.043903
    64  H   -0.020004
    65  H    0.028603
    66  H    0.025030
    67  H    0.041584
    68  H   -0.011160
    69  H    0.044131
    70  H   -0.007859
    71  H    0.011214
    72  H    0.027439
    73  H    0.025536
    74  H   -0.004732
    75  H   -0.016307
    76  H    0.054890
    77  H    0.012624
    78  H    0.035345
    79  H    0.033737
    80  H    0.220323
    81  H    0.125130
 Sum of Mulliken charges =  -0.00000

 Dipole moment (field-independent basis, Debye):
    X=             -0.0101    Y=             -0.6261    Z=             -1.6319  Tot=              1.7479
 Quadrupole moment (field-independent basis, Debye-Ang):
   XX=           -260.2885   YY=           -242.2109   ZZ=           -251.2122
   XY=             10.2848   XZ=             10.4174   YZ=             -9.0191

 Normal termination of Gaussian 16 at Wed Jun 26 21:03:22 2019.
