 Gaussian 16, Revision A.03,
 Gaussian 16:  ES64L-G16RevA.03 25-Dec-2016

 --------------------------
 # td=(NStates=1) B3LYP/SVP
 --------------------------

 --
 TD
 --
 Symbolic Z-matrix:
 Charge =  0 Multiplicity = 1

                         Standard orientation:
 ---------------------------------------------------------------------
 Center     Atomic      Atomic             Coordinates (Angstroms)
 Number     Number       Type             X           Y           Z
 ---------------------------------------------------------------------
      1          8           0        4.368105   -4.706146   -1.847359
      2          8           0       -2.517594   -4.924142   -1.160734
      3          8           0       -7.020457   -1.764326   -1.806632
      4          8           0       -3.654678   -3.360069   -0.123209
      5          8           0       -7.673647   -0.580588   -0.081675
      6          8           0        2.935584    2.471142    0.238970
      7          7           0        0.264666   -0.564755    0.556456
      8          7           0       -1.541099    1.852699    0.365362
      9          7           0        3.368059   -3.122352   -0.652946
     10          7           0        0.645998    2.903202   -0.018705
     11          6           0       -0.584754   -2.391722    1.415233
     12          6           0       -0.956872   -1.160003    0.911022
     13          6           0        0.752366   -2.554925    1.255582
     14          6           0        1.344025   -1.364216    0.764328
     15          6           0       -3.876335    1.466884    0.394325
     16          6           0       -2.595290    0.837759    0.592680
     17          6           0       -2.269255   -0.489113    0.828712
     18          6           0       -3.596946    2.770417    0.059645
     19          6           0       -1.634887   -3.372473    2.016783
     20          6           0        5.492962   -2.621040   -1.285282
     21          6           0        3.639401   -1.749560   -0.176157
     22          6           0       -2.183267    2.988019    0.037176
     23          6           0        5.077131   -1.479912   -0.504270
     24          6           0       -5.109949    0.621742    0.418970
     25          6           0        2.658043   -0.931876    0.400193
     26          6           0        1.589243   -3.705391    1.887250
     27          6           0        4.407856   -3.669541   -1.257446
     28          6           0       -1.893741   -4.581498    1.096796
     29          6           0       -5.439737   -0.283717   -0.836502
     30          6           0       -4.670708    3.900959   -0.242504
     31          6           0       -1.325999    4.151530   -0.387217
     32          6           0        6.866396   -3.311004   -0.851039
     33          6           0        5.788445   -0.422020   -0.179003
     34          6           0        0.007598    4.086612   -0.318528
     35          6           0        0.927355    5.171506   -0.442421
     36          6           0        2.217164    4.704379   -0.322810
     37          6           0       -2.719969   -4.213024   -0.120095
     38          6           0        5.624606    0.689879    0.826107
     39          6           0       -6.802566   -0.887466   -0.858077
     40          6           0        3.556051    5.384347   -0.360592
     41          6           0        1.917911    3.241750    0.015833
     42          6           0        0.580894    6.577844   -0.801099
     43          6           0        4.172981    5.424332    1.046438
     44          1           0        0.302292    0.505406    0.300637
     45          1           0       -3.025282   -1.345379    0.940797
     46          1           0       -2.343651   -2.664744    2.444691
     47          1           0       -1.112753   -3.777646    2.799333
     48          1           0        5.642513   -2.311473   -2.308315
     49          1           0       -5.241295   -0.007810    1.373611
     50          1           0       -5.964259    1.175623    0.556290
     51          1           0        2.817720    0.178504    0.732164
     52          1           0       -0.432881    1.749276    0.310983
     53          1           0        1.441337   -4.625286    1.222272
     54          1           0        2.715717   -3.497556    1.948905
     55          1           0        1.186307   -4.050765    2.816339
     56          1           0        2.557150   -3.586824   -0.734987
     57          1           0       -0.929639   -4.857767    0.695645
     58          1           0       -2.456937   -5.455370    1.510206
     59          1           0       -4.646221   -1.178253   -1.108124
     60          1           0       -5.283508    0.385566   -1.743439
     61          1           0       -4.186444    4.825681    0.101371
     62          1           0       -5.778673    3.657317    0.372120
     63          1           0       -4.871829    3.864592   -1.472628
     64          1           0       -2.060836    5.062988   -0.696168
     65          1           0        7.742326   -2.787661   -1.070148
     66          1           0        6.920696   -4.226376   -1.409534
     67          1           0        6.816623   -3.444155    0.349359
     68          1           0        6.763382   -0.194494   -0.714040
     69          1           0        4.767249    1.492413    0.487086
     70          1           0        6.438351    1.189130    1.146651
     71          1           0        5.094561    0.373278    1.708396
     72          1           0        3.467149    6.314314   -0.849638
     73          1           0        4.199285    4.841770   -1.056186
     74          1           0        0.081609    6.700024   -1.812059
     75          1           0        1.415804    7.197434   -0.763770
     76          1           0       -0.247411    7.050437   -0.059929
     77          1           0        3.536288    6.083592    1.631284
     78          1           0        5.194164    5.779833    1.064982
     79          1           0        4.178657    4.496110    1.412828
     80          1           0       -3.139183   -4.578327   -1.791285
     81          1           0       -7.981145   -1.878661   -1.985930
 ---------------------------------------------------------------------

 SCF Done:  E(RB3LYP) =  -1949.13990790     A.U. after   24 cycles

 Excitation energies and oscillator strengths:

 Excited State   1:      Singlet-A      1.9410 eV  638.77 nm  f=0.3134  <S**2>=0.000
     156 ->157         0.70384
 This state for optimization and/or second-order correction.
 Total Energy, E(TD-HF/TD-DFT) =  -1949.06857778
 Copying the excited state density for this state as the 1-particle RhoCI density.

 The electronic state is 1-A.
 Alpha  occ. eigenvalues --  -19.21203 -19.18585 -19.13185 -19.11832 -19.09853
 Alpha  occ. eigenvalues --  -19.08077 -14.38183 -14.36588 -14.36249 -14.29260
 Alpha  occ. eigenvalues --  -10.33557 -10.31886 -10.27634 -10.25700 -10.25396
 Alpha  occ. eigenvalues --  -10.25298 -10.24040 -10.23782 -10.23541 -10.23315
 Alpha  occ. eigenvalues --  -10.23195 -10.22898 -10.22296 -10.22194 -10.21655
 Alpha  occ. eigenvalues --  -10.21390 -10.20900 -10.20732 -10.20461 -10.20387
 Alpha  occ. eigenvalues --  -10.20072 -10.19859 -10.19658 -10.19471 -10.19443
 Alpha  occ. eigenvalues --  -10.19382 -10.19344 -10.18981 -10.18691 -10.18664
 Alpha  occ. eigenvalues --  -10.18275 -10.16857 -10.16080  -1.14783  -1.11015
 Alpha  occ. eigenvalues --   -1.04562  -1.00496  -0.99678  -0.98625  -0.98041
 Alpha  occ. eigenvalues --   -0.96698  -0.94969  -0.91467  -0.83087  -0.82542
 Alpha  occ. eigenvalues --   -0.82315  -0.80589  -0.79822  -0.78376  -0.78117
 Alpha  occ. eigenvalues --   -0.77154  -0.76317  -0.75229  -0.74247  -0.72795
 Alpha  occ. eigenvalues --   -0.70994  -0.70046  -0.69436  -0.68467  -0.68104
 Alpha  occ. eigenvalues --   -0.67230  -0.65795  -0.65380  -0.63244  -0.63059
 Alpha  occ. eigenvalues --   -0.61695  -0.60782  -0.58492  -0.58355  -0.57445
 Alpha  occ. eigenvalues --   -0.56368  -0.55537  -0.54556  -0.53832  -0.52847
 Alpha  occ. eigenvalues --   -0.52664  -0.51631  -0.51150  -0.50928  -0.50601
 Alpha  occ. eigenvalues --   -0.50244  -0.49112  -0.49041  -0.48349  -0.48016
 Alpha  occ. eigenvalues --   -0.47391  -0.46719  -0.46232  -0.45594  -0.45419
 Alpha  occ. eigenvalues --   -0.44853  -0.44524  -0.44383  -0.43838  -0.43630
 Alpha  occ. eigenvalues --   -0.43452  -0.42732  -0.42488  -0.42183  -0.42011
 Alpha  occ. eigenvalues --   -0.41612  -0.41458  -0.41376  -0.40967  -0.40790
 Alpha  occ. eigenvalues --   -0.40223  -0.39858  -0.39542  -0.39243  -0.39032
 Alpha  occ. eigenvalues --   -0.38860  -0.38700  -0.38499  -0.38247  -0.38056
 Alpha  occ. eigenvalues --   -0.37675  -0.37601  -0.37399  -0.37113  -0.36728
 Alpha  occ. eigenvalues --   -0.36513  -0.36080  -0.35938  -0.35506  -0.35241
 Alpha  occ. eigenvalues --   -0.34390  -0.33933  -0.33726  -0.33321  -0.32826
 Alpha  occ. eigenvalues --   -0.32743  -0.32347  -0.32078  -0.29630  -0.28933
 Alpha  occ. eigenvalues --   -0.28384  -0.27786  -0.26609  -0.26235  -0.25706
 Alpha  occ. eigenvalues --   -0.25579  -0.24354  -0.23294  -0.22600  -0.21787
 Alpha  occ. eigenvalues --   -0.18934
 Alpha virt. eigenvalues --   -0.10855  -0.05719  -0.04185  -0.01606   0.00164
 Alpha virt. eigenvalues --    0.01074   0.01965   0.02943   0.03378   0.03973
 Alpha virt. eigenvalues --    0.04605   0.04654   0.05306   0.05688   0.06259

 Mulliken charges:
               1
     1  O   -0.203845
     2  O   -0.075705
     3  O   -0.159906
     4  O   -0.304282
     5  O   -0.233241
     6  O   -0.323565
     7  N   -0.120958
     8  N   -0.177195
     9  N   -0.060680
    10  N   -0.270715
    11  C   -0.166353
    12  C   -0.019310
    13  C   -0.179304
    14  C    0.056530
    15  C   -0.023213
    16  C    0.115454
    17  C   -0.052055
    18  C   -0.153188
    19  C    0.223180
    20  C   -0.072689
    21  C    0.116717
    22  C    0.049940
    23  C    0.096158
    24  C    0.150377
    25  C   -0.109734
    26  C    0.054324
    27  C    0.074565
    28  C    0.068506
    29  C   -0.082983
    30  C   -0.025315
    31  C   -0.184199
    32  C    0.043059
    33  C   -0.194774
    34  C    0.204975
    35  C   -0.108373
    36  C   -0.179657
    37  C    0.081361
    38  C    0.039483
    39  C    0.124251
    40  C    0.132472
    41  C    0.140110
    42  C    0.085701
    43  C    0.077975
    44  H    0.148865
    45  H    0.057283
    46  H    0.017628
    47  H   -0.039555
    48  H    0.033533
    49  H    0.026157
    50  H   -0.034708
    51  H    0.066401
    52  H    0.198258
    53  H    0.013407
    54  H    0.051047
    55  H    0.012039
    56  H    0.081425
    57  H    0.023242
    58  H    0.063488
    59  H    0.076432
    60  H    0.044041
    61  H    0.045525
    62  H    0.067325
    63  H    0.062304
    64  H    0.014347
    65  H   -0.002791
    66  H    0.026564
    67  H    0.026863
    68  H    0.003718
    69  H    0.106565
    70  H   -0.016232
    71  H   -0.000901
    72  H   -0.030012
    73  H   -0.000353
    74  H    0.026701
    75  H   -0.005112
    76  H    0.019560
    77  H    0.001609
    78  H   -0.000810
    79  H   -0.005877
    80  H    0.172928
    81  H    0.195195
 Sum of Mulliken charges =  -0.00000

 Dipole moment (field-independent basis, Debye):
    X=             -3.5323    Y=              0.0949    Z=             -0.6360  Tot=              3.5904
 Quadrupole moment (field-independent basis, Debye-Ang):
   XX=           -253.4239   YY=           -242.4367   ZZ=           -250.6434
   XY=             17.1404   XZ=             18.9115   YZ=            -12.2981

 Normal termination of Gaussian 16 at Tue Jul  2 10:42:55 2019.
