 Gaussian 16, Revision A.03,
 Gaussian 16:  ES64L-G16RevA.03 25-Dec-2016

 --------------------------
 # td=(NStates=1) B3LYP/SVP
 --------------------------

 --
 TD
 --
 Symbolic Z-matrix:
 Charge =  0 Multiplicity = 1

                         Standard orientation:
 ---------------------------------------------------------------------
 Center     Atomic      Atomic             Coordinates (Angstroms)
 Number     Number       Type             X           Y           Z
 ---------------------------------------------------------------------
      1          8           0        4.302398   -5.010267   -1.707060
      2          8           0       -3.227594   -4.797717   -1.021978
      3          8           0       -7.245386   -1.413040   -1.877544
      4          8           0       -3.925060   -3.071110    0.153137
      5          8           0       -7.641101   -0.597061    0.291260
      6          8           0        3.094136    2.561284    0.497214
      7          7           0        0.273040   -0.562078    0.499895
      8          7           0       -1.521631    1.757509    0.227235
      9          7           0        3.312951   -3.160350   -0.779613
     10          7           0        0.905176    2.943673    0.053614
     11          6           0       -0.597998   -2.443285    1.379608
     12          6           0       -0.886162   -1.101017    0.924904
     13          6           0        0.855071   -2.733825    1.064936
     14          6           0        1.285208   -1.528062    0.653268
     15          6           0       -3.767175    1.468362    0.254481
     16          6           0       -2.437951    0.884109    0.507827
     17          6           0       -2.161330   -0.464326    0.885648
     18          6           0       -3.535926    2.806601   -0.131470
     19          6           0       -1.605759   -3.364664    1.947854
     20          6           0        5.611414   -2.856263   -1.336086
     21          6           0        3.622547   -1.885140   -0.227580
     22          6           0       -2.126243    2.967939   -0.190914
     23          6           0        5.048849   -1.604812   -0.594911
     24          6           0       -5.074237    0.806275    0.445164
     25          6           0        2.592145   -1.147725    0.387880
     26          6           0        1.593153   -3.953999    1.665820
     27          6           0        4.422359   -3.841594   -1.152261
     28          6           0       -2.058764   -4.450221    0.982197
     29          6           0       -5.559218   -0.069419   -0.880411
     30          6           0       -4.530316    3.862653   -0.511970
     31          6           0       -1.325304    4.065722   -0.322416
     32          6           0        6.926867   -3.338742   -0.977049
     33          6           0        5.813365   -0.627458    0.000458
     34          6           0        0.133997    3.994865   -0.210370
     35          6           0        1.016651    5.214506   -0.415289
     36          6           0        2.273763    4.740458   -0.165366
     37          6           0       -3.086673   -3.972031   -0.014491
     38          6           0        5.469115    0.601503    0.752433
     39          6           0       -6.887692   -0.723079   -0.695179
     40          6           0        3.616852    5.426218   -0.301134
     41          6           0        2.234990    3.306871    0.144932
     42          6           0        0.703594    6.540383   -0.807685
     43          6           0        4.408433    5.609045    1.013119
     44          1           0        0.611071    0.539136    0.171546
     45          1           0       -2.961976   -1.135390    1.054872
     46          1           0       -2.548086   -2.793667    2.244434
     47          1           0       -1.216715   -3.783760    2.731089
     48          1           0        5.614491   -2.607512   -2.483135
     49          1           0       -5.150628    0.145164    1.372303
     50          1           0       -5.709522    1.721766    0.700590
     51          1           0        2.781554   -0.121727    0.735831
     52          1           0       -0.433580    1.883171    0.557794
     53          1           0        1.775194   -4.695391    1.066466
     54          1           0        2.530066   -3.395156    2.046394
     55          1           0        1.100576   -4.371438    2.720728
     56          1           0        2.379908   -3.819455   -0.542214
     57          1           0       -1.239482   -4.799586    0.338890
     58          1           0       -2.422994   -5.417351    1.362830
     59          1           0       -4.764962   -0.929693   -1.140924
     60          1           0       -5.602016    0.508658   -1.897693
     61          1           0       -4.340503    4.756907    0.061438
     62          1           0       -5.705789    3.571616   -0.348328
     63          1           0       -4.596005    3.956102   -1.558056
     64          1           0       -1.779309    5.020252   -0.750920
     65          1           0        7.721964   -2.497990   -1.261616
     66          1           0        7.014309   -4.124921   -1.486298
     67          1           0        7.212216   -3.748032   -0.099008
     68          1           0        6.945294   -0.761364   -0.194388
     69          1           0        4.788796    1.276186    0.158639
     70          1           0        6.544352    1.056788    1.024424
     71          1           0        4.767081    0.513868    1.630879
     72          1           0        3.284496    6.308184   -1.007382
     73          1           0        4.277450    4.780320   -0.887745
     74          1           0        0.489349    6.845620   -1.922363
     75          1           0        1.506579    7.517683   -0.463990
     76          1           0       -0.470367    6.770464   -0.157282
     77          1           0        3.998331    6.207985    1.844654
     78          1           0        5.355518    5.932512    0.981447
     79          1           0        4.603795    4.667705    1.597128
     80          1           0       -3.836683   -4.485865   -1.730666
     81          1           0       -8.095427   -1.858882   -1.614192
 ---------------------------------------------------------------------

 SCF Done:  E(RB3LYP) =  -1949.02778628     A.U. after   17 cycles

 Excitation energies and oscillator strengths:

 Excited State   1:      Singlet-A      1.6516 eV  750.69 nm  f=0.3155  <S**2>=0.000
     156 ->157         0.70895
     156 <-157        -0.13659
 This state for optimization and/or second-order correction.
 Total Energy, E(TD-HF/TD-DFT) =  -1948.96709136
 Copying the excited state density for this state as the 1-particle RhoCI density.

 The electronic state is 1-A.
 Alpha  occ. eigenvalues --  -19.19770 -19.18188 -19.13375 -19.13328 -19.11163
 Alpha  occ. eigenvalues --  -19.09714 -14.38046 -14.37735 -14.35834 -14.29830
 Alpha  occ. eigenvalues --  -10.33340 -10.32702 -10.28756 -10.26573 -10.25259
 Alpha  occ. eigenvalues --  -10.24294 -10.23676 -10.23595 -10.23255 -10.23181
 Alpha  occ. eigenvalues --  -10.22889 -10.22647 -10.21952 -10.21690 -10.21670
 Alpha  occ. eigenvalues --  -10.21529 -10.20979 -10.20852 -10.20759 -10.20699
 Alpha  occ. eigenvalues --  -10.20644 -10.20506 -10.20475 -10.20252 -10.20111
 Alpha  occ. eigenvalues --  -10.19891 -10.19863 -10.19757 -10.19158 -10.18890
 Alpha  occ. eigenvalues --  -10.18518 -10.17152 -10.17026  -1.11597  -1.07012
 Alpha  occ. eigenvalues --   -1.03898  -1.00211  -1.00051  -0.99111  -0.98650
 Alpha  occ. eigenvalues --   -0.97178  -0.92884  -0.92552  -0.82441  -0.81900
 Alpha  occ. eigenvalues --   -0.81568  -0.81178  -0.80108  -0.79516  -0.77533
 Alpha  occ. eigenvalues --   -0.76750  -0.76114  -0.75148  -0.74188  -0.72443
 Alpha  occ. eigenvalues --   -0.71742  -0.70369  -0.69452  -0.69223  -0.67952
 Alpha  occ. eigenvalues --   -0.67612  -0.65359  -0.63800  -0.62653  -0.62490
 Alpha  occ. eigenvalues --   -0.61638  -0.58985  -0.57723  -0.57551  -0.56521
 Alpha  occ. eigenvalues --   -0.55293  -0.55177  -0.54858  -0.53054  -0.52797
 Alpha  occ. eigenvalues --   -0.52472  -0.51808  -0.51187  -0.49504  -0.49176
 Alpha  occ. eigenvalues --   -0.49094  -0.48814  -0.48044  -0.47597  -0.47234
 Alpha  occ. eigenvalues --   -0.46843  -0.46513  -0.46300  -0.45850  -0.45605
 Alpha  occ. eigenvalues --   -0.45051  -0.44752  -0.44658  -0.44367  -0.44143
 Alpha  occ. eigenvalues --   -0.43721  -0.43490  -0.43167  -0.42812  -0.41952
 Alpha  occ. eigenvalues --   -0.41738  -0.41643  -0.41293  -0.40871  -0.40553
 Alpha  occ. eigenvalues --   -0.40206  -0.40077  -0.39892  -0.39769  -0.39512
 Alpha  occ. eigenvalues --   -0.39237  -0.39041  -0.38823  -0.38768  -0.38405
 Alpha  occ. eigenvalues --   -0.38024  -0.37876  -0.37601  -0.37309  -0.36577
 Alpha  occ. eigenvalues --   -0.35976  -0.35884  -0.35419  -0.34823  -0.34383
 Alpha  occ. eigenvalues --   -0.34017  -0.33489  -0.33212  -0.32900  -0.32832
 Alpha  occ. eigenvalues --   -0.32216  -0.32146  -0.32085  -0.29910  -0.28898
 Alpha  occ. eigenvalues --   -0.28524  -0.28355  -0.26797  -0.25486  -0.25406
 Alpha  occ. eigenvalues --   -0.24848  -0.24453  -0.24377  -0.23407  -0.21623
 Alpha  occ. eigenvalues --   -0.17534
 Alpha virt. eigenvalues --   -0.11035  -0.06203  -0.04742  -0.01908  -0.01688
 Alpha virt. eigenvalues --   -0.01305   0.01399   0.01794   0.02847   0.03075
 Alpha virt. eigenvalues --    0.03885   0.04395   0.04608   0.04896   0.05492

 Mulliken charges:
               1
     1  O   -0.314092
     2  O   -0.155852
     3  O   -0.244543
     4  O   -0.265180
     5  O   -0.252663
     6  O   -0.174175
     7  N   -0.170641
     8  N   -0.130396
     9  N   -0.166905
    10  N   -0.301293
    11  C   -0.181099
    12  C    0.088344
    13  C   -0.171011
    14  C    0.134324
    15  C   -0.084064
    16  C    0.061952
    17  C   -0.054955
    18  C   -0.107948
    19  C    0.234651
    20  C   -0.047536
    21  C    0.107155
    22  C    0.112005
    23  C   -0.009134
    24  C    0.062731
    25  C   -0.159462
    26  C    0.059408
    27  C    0.130050
    28  C    0.008402
    29  C   -0.064631
    30  C    0.077461
    31  C   -0.148122
    32  C    0.164794
    33  C   -0.159383
    34  C    0.075340
    35  C    0.010678
    36  C   -0.188869
    37  C    0.112755
    38  C    0.019373
    39  C    0.196366
    40  C    0.087336
    41  C    0.147899
    42  C   -0.155991
    43  C    0.036920
    44  H    0.220352
    45  H   -0.021015
    46  H    0.027543
    47  H   -0.068039
    48  H    0.065769
    49  H    0.043767
    50  H    0.032209
    51  H    0.004554
    52  H    0.201663
    53  H   -0.007568
    54  H    0.053841
    55  H    0.049731
    56  H    0.200053
    57  H    0.019275
    58  H    0.045099
    59  H    0.078660
    60  H    0.058088
    61  H    0.035620
    62  H    0.022491
    63  H    0.021322
    64  H    0.004218
    65  H    0.029564
    66  H   -0.043261
    67  H   -0.027051
    68  H    0.011988
    69  H    0.079725
    70  H    0.033536
    71  H    0.043030
    72  H    0.010175
    73  H    0.010597
    74  H    0.066053
    75  H    0.065485
    76  H    0.039524
    77  H   -0.002718
    78  H   -0.029188
    79  H    0.015041
    80  H    0.201149
    81  H    0.188720
 Sum of Mulliken charges =  -0.00000

 Dipole moment (field-independent basis, Debye):
    X=             -1.7834    Y=              0.9581    Z=             -0.4672  Tot=              2.0777
 Quadrupole moment (field-independent basis, Debye-Ang):
   XX=           -253.4994   YY=           -244.7856   ZZ=           -254.4227
   XY=             15.4747   XZ=             19.0718   YZ=            -15.3578

 Normal termination of Gaussian 16 at Sat Jun 29 11:00:35 2019.
