 Gaussian 16, Revision A.03,
 Gaussian 16:  ES64L-G16RevA.03 25-Dec-2016

 --------------------------
 # td=(NStates=1) B3LYP/SVP
 --------------------------

 --
 TD
 --
 Symbolic Z-matrix:
 Charge =  0 Multiplicity = 1

                         Standard orientation:
 ---------------------------------------------------------------------
 Center     Atomic      Atomic             Coordinates (Angstroms)
 Number     Number       Type             X           Y           Z
 ---------------------------------------------------------------------
      1          8           0        4.363176   -4.851527   -1.882222
      2          8           0       -3.044130   -4.878861   -1.160020
      3          8           0       -6.948595   -1.720590   -1.850492
      4          8           0       -3.690141   -3.093271    0.166360
      5          8           0       -7.646505   -0.471503   -0.133533
      6          8           0        3.082015    2.396231    0.364382
      7          7           0        0.271921   -0.569783    0.647997
      8          7           0       -1.633062    1.865746    0.389885
      9          7           0        3.285337   -3.219073   -0.618012
     10          7           0        0.800602    2.945294    0.175279
     11          6           0       -0.666927   -2.428907    1.457221
     12          6           0       -0.962808   -1.062776    0.990383
     13          6           0        0.687222   -2.661314    1.277848
     14          6           0        1.253087   -1.484578    0.775752
     15          6           0       -3.836328    1.568661    0.362513
     16          6           0       -2.527728    0.928774    0.563630
     17          6           0       -2.195339   -0.359741    0.962318
     18          6           0       -3.536783    2.859635   -0.022112
     19          6           0       -1.586784   -3.520507    2.017848
     20          6           0        5.492789   -2.770620   -1.383117
     21          6           0        3.496215   -1.927227   -0.141046
     22          6           0       -2.140457    2.979003   -0.079846
     23          6           0        4.972730   -1.637207   -0.494312
     24          6           0       -5.138093    0.824999    0.343513
     25          6           0        2.523344   -1.075145    0.419296
     26          6           0        1.390647   -3.852188    1.763071
     27          6           0        4.432297   -3.742808   -1.326412
     28          6           0       -2.004805   -4.546996    1.039754
     29          6           0       -5.497686   -0.027208   -0.928041
     30          6           0       -4.538607    3.924438   -0.417919
     31          6           0       -1.227423    4.211561   -0.238408
     32          6           0        6.895933   -3.388819   -1.011522
     33          6           0        5.690817   -0.564350   -0.171643
     34          6           0        0.063095    4.074567   -0.196656
     35          6           0        1.199002    5.234792   -0.405652
     36          6           0        2.391461    4.564058   -0.283310
     37          6           0       -2.900889   -4.000008   -0.079570
     38          6           0        5.413036    0.531104    0.818891
     39          6           0       -6.800937   -0.721508   -0.881840
     40          6           0        3.760546    5.257617   -0.336022
     41          6           0        2.125616    3.199371    0.057003
     42          6           0        0.740005    6.589994   -0.947484
     43          6           0        4.348959    5.530120    1.076445
     44          1           0        0.452145    0.487140    0.295521
     45          1           0       -3.023929   -0.957862    0.966223
     46          1           0       -2.476819   -2.968819    2.406627
     47          1           0       -1.170052   -4.079360    3.064381
     48          1           0        5.715650   -2.298987   -2.422376
     49          1           0       -5.107947    0.156752    1.147493
     50          1           0       -5.903772    1.581879    0.298401
     51          1           0        2.564396   -0.040617    0.443064
     52          1           0       -0.660914    1.932829    0.526722
     53          1           0        1.256465   -4.723725    1.333386
     54          1           0        2.457243   -3.667938    1.991058
     55          1           0        1.128835   -4.206136    2.704089
     56          1           0        2.311082   -3.654078   -0.721729
     57          1           0       -0.991828   -5.087335    0.591637
     58          1           0       -2.814983   -5.341034    1.470870
     59          1           0       -4.765103   -0.770672   -1.199925
     60          1           0       -5.280036    0.701984   -1.875459
     61          1           0       -4.154240    4.887032   -0.010306
     62          1           0       -5.449305    3.735047   -0.080360
     63          1           0       -4.450319    3.898760   -1.426882
     64          1           0       -1.763023    5.092966   -0.737243
     65          1           0        7.764131   -2.533530   -1.158137
     66          1           0        7.298056   -4.199983   -1.862129
     67          1           0        6.981658   -3.499703    0.149742
     68          1           0        6.751240   -0.389054   -0.624388
     69          1           0        4.751179    1.142012    0.218894
     70          1           0        6.221946    1.187497    1.041602
     71          1           0        4.958557    0.096231    1.822569
     72          1           0        3.555264    6.304840   -0.714010
     73          1           0        4.478816    4.665080   -0.937172
     74          1           0        0.101648    6.398397   -1.954221
     75          1           0        1.624006    7.412400   -1.208305
     76          1           0        0.042698    6.819771   -0.135562
     77          1           0        3.637513    6.304799    1.657402
     78          1           0        5.365934    5.892756    1.037725
     79          1           0        4.365513    4.807447    1.859692
     80          1           0       -3.656092   -4.460433   -1.745745
     81          1           0       -8.006994   -1.866185   -1.898441
 ---------------------------------------------------------------------

 SCF Done:  E(RB3LYP) =  -1949.08020436     A.U. after   23 cycles

 Excitation energies and oscillator strengths:

 Excited State   1:      Singlet-A      1.8216 eV  680.63 nm  f=0.3305  <S**2>=0.000
     155 ->157         0.13676
     156 ->157         0.69408
     156 <-157        -0.10794
 This state for optimization and/or second-order correction.
 Total Energy, E(TD-HF/TD-DFT) =  -1949.01326097
 Copying the excited state density for this state as the 1-particle RhoCI density.

 The electronic state is 1-A.
 Alpha  occ. eigenvalues --  -19.19589 -19.17714 -19.15131 -19.13409 -19.11867
 Alpha  occ. eigenvalues --  -19.07158 -14.38544 -14.38466 -14.36352 -14.27751
 Alpha  occ. eigenvalues --  -10.34403 -10.31875 -10.30361 -10.26330 -10.24462
 Alpha  occ. eigenvalues --  -10.24350 -10.24165 -10.23702 -10.23588 -10.22982
 Alpha  occ. eigenvalues --  -10.22738 -10.22626 -10.22296 -10.21658 -10.21513
 Alpha  occ. eigenvalues --  -10.21393 -10.21249 -10.21238 -10.20797 -10.20700
 Alpha  occ. eigenvalues --  -10.20406 -10.20271 -10.19749 -10.19718 -10.19586
 Alpha  occ. eigenvalues --  -10.19127 -10.18749 -10.18530 -10.18294 -10.18248
 Alpha  occ. eigenvalues --  -10.17234 -10.17194 -10.17029  -1.10124  -1.09997
 Alpha  occ. eigenvalues --   -1.02857  -1.02156  -1.01968  -1.00300  -0.99359
 Alpha  occ. eigenvalues --   -0.96303  -0.94627  -0.88653  -0.83047  -0.82733
 Alpha  occ. eigenvalues --   -0.82375  -0.81822  -0.79679  -0.78465  -0.78146
 Alpha  occ. eigenvalues --   -0.77411  -0.76518  -0.75257  -0.73350  -0.72874
 Alpha  occ. eigenvalues --   -0.72315  -0.70451  -0.69325  -0.68501  -0.68086
 Alpha  occ. eigenvalues --   -0.67273  -0.66238  -0.64864  -0.61885  -0.60533
 Alpha  occ. eigenvalues --   -0.60171  -0.59472  -0.58160  -0.57496  -0.57324
 Alpha  occ. eigenvalues --   -0.56341  -0.55732  -0.55153  -0.54552  -0.52381
 Alpha  occ. eigenvalues --   -0.51963  -0.51171  -0.50872  -0.50617  -0.50271
 Alpha  occ. eigenvalues --   -0.49461  -0.49175  -0.48761  -0.48235  -0.47963
 Alpha  occ. eigenvalues --   -0.46916  -0.46850  -0.46583  -0.46040  -0.45631
 Alpha  occ. eigenvalues --   -0.45464  -0.44698  -0.44133  -0.43770  -0.43719
 Alpha  occ. eigenvalues --   -0.43377  -0.43347  -0.42787  -0.42577  -0.42541
 Alpha  occ. eigenvalues --   -0.42316  -0.42238  -0.41950  -0.41603  -0.41345
 Alpha  occ. eigenvalues --   -0.40945  -0.40795  -0.40478  -0.40318  -0.39990
 Alpha  occ. eigenvalues --   -0.39510  -0.38937  -0.38822  -0.38040  -0.37908
 Alpha  occ. eigenvalues --   -0.37298  -0.36994  -0.36838  -0.36352  -0.36195
 Alpha  occ. eigenvalues --   -0.35948  -0.35880  -0.35490  -0.35067  -0.34608
 Alpha  occ. eigenvalues --   -0.34339  -0.33999  -0.33787  -0.32722  -0.32295
 Alpha  occ. eigenvalues --   -0.32177  -0.31955  -0.31222  -0.29945  -0.29734
 Alpha  occ. eigenvalues --   -0.28961  -0.26969  -0.26398  -0.26116  -0.25808
 Alpha  occ. eigenvalues --   -0.25157  -0.24936  -0.23120  -0.22200  -0.20862
 Alpha  occ. eigenvalues --   -0.18075
 Alpha virt. eigenvalues --   -0.10702  -0.04895  -0.03945  -0.03303  -0.02936
 Alpha virt. eigenvalues --   -0.00554   0.01422   0.02389   0.02973   0.04253
 Alpha virt. eigenvalues --    0.04343   0.04712   0.04928   0.05011   0.05555

 Mulliken charges:
               1
     1  O   -0.222863
     2  O   -0.191540
     3  O   -0.283095
     4  O   -0.236534
     5  O   -0.160157
     6  O   -0.314944
     7  N   -0.116173
     8  N    0.081279
     9  N   -0.177949
    10  N   -0.339949
    11  C   -0.095816
    12  C    0.048755
    13  C   -0.174096
    14  C    0.090807
    15  C   -0.094442
    16  C   -0.016017
    17  C    0.019915
    18  C   -0.200079
    19  C    0.059745
    20  C   -0.053109
    21  C    0.148529
    22  C   -0.048436
    23  C   -0.008009
    24  C    0.177390
    25  C   -0.078225
    26  C    0.207474
    27  C    0.183393
    28  C   -0.045354
    29  C   -0.050893
    30  C    0.231129
    31  C   -0.122880
    32  C   -0.053534
    33  C   -0.220480
    34  C    0.125000
    35  C   -0.083749
    36  C   -0.148409
    37  C    0.161985
    38  C    0.078036
    39  C    0.151731
    40  C    0.110261
    41  C    0.155102
    42  C   -0.006702
    43  C   -0.015152
    44  H    0.196623
    45  H   -0.033993
    46  H    0.016996
    47  H    0.045385
    48  H    0.075997
    49  H    0.008358
    50  H    0.002168
    51  H   -0.032571
    52  H    0.087752
    53  H   -0.043243
    54  H    0.023465
    55  H   -0.032407
    56  H    0.165850
    57  H    0.059118
    58  H    0.082808
    59  H    0.017437
    60  H    0.051710
    61  H    0.021895
    62  H   -0.024373
    63  H    0.000366
    64  H    0.004963
    65  H    0.024497
    66  H    0.074496
    67  H    0.043882
    68  H    0.017814
    69  H    0.070161
    70  H   -0.008350
    71  H    0.045831
    72  H   -0.002039
    73  H    0.013593
    74  H    0.054214
    75  H    0.053399
    76  H    0.041124
    77  H   -0.000013
    78  H    0.003699
    79  H    0.009209
    80  H    0.173660
    81  H    0.218575
 Sum of Mulliken charges =  -0.00000

 Dipole moment (field-independent basis, Debye):
    X=             -2.6314    Y=             -1.2046    Z=             -1.2848  Tot=              3.1663
 Quadrupole moment (field-independent basis, Debye-Ang):
   XX=           -243.1415   YY=           -252.7798   ZZ=           -251.9868
   XY=              6.2123   XZ=             12.6094   YZ=            -16.8041

 Normal termination of Gaussian 16 at Thu Jun 27 22:12:09 2019.
