 Gaussian 16, Revision A.03,
 Gaussian 16:  ES64L-G16RevA.03 25-Dec-2016

 --------------------------
 # td=(NStates=1) B3LYP/SVP
 --------------------------

 --
 TD
 --
 Symbolic Z-matrix:
 Charge =  0 Multiplicity = 1

                         Standard orientation:
 ---------------------------------------------------------------------
 Center     Atomic      Atomic             Coordinates (Angstroms)
 Number     Number       Type             X           Y           Z
 ---------------------------------------------------------------------
      1          8           0        4.275544   -4.941053   -1.777942
      2          8           0       -3.031547   -4.915119   -1.047731
      3          8           0       -7.190632   -1.362563   -1.990172
      4          8           0       -3.671758   -3.092755    0.030988
      5          8           0       -7.462290   -0.716872    0.234766
      6          8           0        3.016971    2.397926    0.250957
      7          7           0        0.176951   -0.530669    0.605391
      8          7           0       -1.547151    1.795966    0.455892
      9          7           0        3.375451   -3.017070   -0.769930
     10          7           0        0.785328    2.965775   -0.067835
     11          6           0       -0.572200   -2.490107    1.334156
     12          6           0       -0.948040   -1.091121    1.001259
     13          6           0        0.864881   -2.602082    1.301177
     14          6           0        1.362316   -1.423317    0.759445
     15          6           0       -3.788632    1.471908    0.331994
     16          6           0       -2.441304    0.814144    0.540419
     17          6           0       -2.266973   -0.474190    0.910258
     18          6           0       -3.531333    2.773304   -0.060415
     19          6           0       -1.585445   -3.411047    1.974862
     20          6           0        5.511470   -2.770464   -1.247651
     21          6           0        3.628900   -1.780392   -0.262579
     22          6           0       -2.111930    2.997388    0.071015
     23          6           0        4.981756   -1.636299   -0.516059
     24          6           0       -5.147459    0.714857    0.308596
     25          6           0        2.659343   -0.914334    0.360898
     26          6           0        1.615177   -3.811470    1.762242
     27          6           0        4.392422   -3.771110   -1.351003
     28          6           0       -2.099487   -4.482333    1.077976
     29          6           0       -5.445331   -0.131235   -0.915823
     30          6           0       -4.480494    3.911670   -0.517117
     31          6           0       -1.309135    4.082346   -0.276146
     32          6           0        6.875010   -3.344681   -0.955053
     33          6           0        5.747071   -0.583657   -0.128833
     34          6           0        0.125693    4.067905   -0.277493
     35          6           0        1.008206    5.210449   -0.529544
     36          6           0        2.278539    4.753232   -0.296991
     37          6           0       -3.026136   -4.104689   -0.000387
     38          6           0        5.395863    0.623138    0.574956
     39          6           0       -6.760755   -0.806357   -0.814840
     40          6           0        3.556870    5.375765   -0.155187
     41          6           0        2.092327    3.308117    0.060342
     42          6           0        0.670455    6.636865   -0.818398
     43          6           0        4.228368    5.397722    1.231090
     44          1           0        0.240289    0.323341    0.043281
     45          1           0       -3.107644   -1.120787    1.324519
     46          1           0       -2.495355   -2.842382    2.383987
     47          1           0       -0.909916   -4.096999    2.752454
     48          1           0        5.374103   -2.470179   -2.405011
     49          1           0       -5.013375    0.266532    1.294922
     50          1           0       -5.936715    1.374905    0.533471
     51          1           0        2.790019    0.204987    0.440634
     52          1           0       -0.554707    1.678139    0.591594
     53          1           0        1.534234   -5.039599    1.229935
     54          1           0        2.691981   -3.477015    1.756319
     55          1           0        1.470018   -4.145789    2.926222
     56          1           0        2.376535   -3.228224   -0.514697
     57          1           0       -1.308238   -5.092722    0.546010
     58          1           0       -2.569820   -5.227557    1.678354
     59          1           0       -4.592391   -0.900637   -0.903711
     60          1           0       -5.252064    0.387284   -2.119890
     61          1           0       -4.424131    4.828539   -0.023391
     62          1           0       -5.561905    3.655783   -0.338582
     63          1           0       -4.620209    3.880467   -1.603433
     64          1           0       -1.916312    4.917829   -0.560786
     65          1           0        7.672802   -2.633336   -1.175727
     66          1           0        7.163041   -4.153234   -1.616563
     67          1           0        6.819005   -3.792134    0.153074
     68          1           0        6.987522   -0.572215   -0.351075
     69          1           0        5.114418    1.654529   -0.141227
     70          1           0        6.131615    1.153972    1.175016
     71          1           0        4.523956    0.566853    1.412707
     72          1           0        3.623908    6.400972   -0.625192
     73          1           0        4.365723    4.643830   -0.794781
     74          1           0        0.092325    6.868468   -1.811545
     75          1           0        1.608922    7.085109   -0.626498
     76          1           0       -0.009953    6.954561    0.081618
     77          1           0        3.736665    5.917174    2.004468
     78          1           0        5.445250    5.522174    1.182367
     79          1           0        4.274425    4.338364    1.652799
     80          1           0       -3.636726   -4.636230   -1.657334
     81          1           0       -8.031708   -1.708832   -1.928878
 ---------------------------------------------------------------------

 SCF Done:  E(RB3LYP) =  -1949.06653311     A.U. after   19 cycles

 Excitation energies and oscillator strengths:

 Excited State   1:      Singlet-A      1.3916 eV  890.94 nm  f=0.2146  <S**2>=0.000
     156 ->157         0.71054
     156 <-157        -0.13295
 This state for optimization and/or second-order correction.
 Total Energy, E(TD-HF/TD-DFT) =  -1949.01539227
 Copying the excited state density for this state as the 1-particle RhoCI density.

 The electronic state is 1-A.
 Alpha  occ. eigenvalues --  -19.19082 -19.18709 -19.13276 -19.12801 -19.11085
 Alpha  occ. eigenvalues --  -19.09826 -14.37204 -14.36791 -14.36720 -14.28608
 Alpha  occ. eigenvalues --  -10.33086 -10.32540 -10.29776 -10.26245 -10.24356
 Alpha  occ. eigenvalues --  -10.23886 -10.23870 -10.23676 -10.23246 -10.23029
 Alpha  occ. eigenvalues --  -10.22928 -10.22771 -10.22000 -10.21465 -10.21414
 Alpha  occ. eigenvalues --  -10.21380 -10.21123 -10.20977 -10.20559 -10.20526
 Alpha  occ. eigenvalues --  -10.20433 -10.20397 -10.20185 -10.20170 -10.20024
 Alpha  occ. eigenvalues --  -10.19911 -10.19777 -10.19176 -10.19153 -10.19097
 Alpha  occ. eigenvalues --  -10.19008 -10.18841 -10.18802  -1.12706  -1.09298
 Alpha  occ. eigenvalues --   -1.02592  -1.02119  -0.99628  -0.99279  -0.98170
 Alpha  occ. eigenvalues --   -0.96889  -0.96203  -0.92151  -0.82504  -0.82090
 Alpha  occ. eigenvalues --   -0.81767  -0.81590  -0.80625  -0.79512  -0.77825
 Alpha  occ. eigenvalues --   -0.77489  -0.76346  -0.75195  -0.73847  -0.71999
 Alpha  occ. eigenvalues --   -0.71515  -0.70079  -0.69706  -0.68694  -0.68371
 Alpha  occ. eigenvalues --   -0.68251  -0.66266  -0.64198  -0.62579  -0.62127
 Alpha  occ. eigenvalues --   -0.61678  -0.61022  -0.59415  -0.58336  -0.57865
 Alpha  occ. eigenvalues --   -0.55959  -0.55492  -0.54574  -0.53589  -0.52651
 Alpha  occ. eigenvalues --   -0.51899  -0.51772  -0.51084  -0.50365  -0.50044
 Alpha  occ. eigenvalues --   -0.49647  -0.49051  -0.48707  -0.48144  -0.47755
 Alpha  occ. eigenvalues --   -0.47187  -0.46150  -0.45989  -0.45770  -0.44925
 Alpha  occ. eigenvalues --   -0.44193  -0.43755  -0.43681  -0.43582  -0.43218
 Alpha  occ. eigenvalues --   -0.42972  -0.42902  -0.42740  -0.42234  -0.42012
 Alpha  occ. eigenvalues --   -0.41719  -0.41301  -0.41216  -0.40946  -0.40589
 Alpha  occ. eigenvalues --   -0.40541  -0.40346  -0.40072  -0.39528  -0.39044
 Alpha  occ. eigenvalues --   -0.38929  -0.38758  -0.38552  -0.38159  -0.38103
 Alpha  occ. eigenvalues --   -0.37905  -0.37606  -0.37068  -0.36777  -0.36290
 Alpha  occ. eigenvalues --   -0.36135  -0.35608  -0.34999  -0.34487  -0.34266
 Alpha  occ. eigenvalues --   -0.33824  -0.33709  -0.33641  -0.33042  -0.32763
 Alpha  occ. eigenvalues --   -0.32001  -0.31814  -0.30777  -0.29588  -0.28875
 Alpha  occ. eigenvalues --   -0.28108  -0.27409  -0.26625  -0.26284  -0.26058
 Alpha  occ. eigenvalues --   -0.25001  -0.24172  -0.23919  -0.23205  -0.21141
 Alpha  occ. eigenvalues --   -0.16960
 Alpha virt. eigenvalues --   -0.11144  -0.06259  -0.05039  -0.02279  -0.00183
 Alpha virt. eigenvalues --    0.00065   0.01440   0.02151   0.03507   0.04088
 Alpha virt. eigenvalues --    0.04337   0.04672   0.05512   0.05614   0.05845

 Mulliken charges:
               1
     1  O   -0.233801
     2  O   -0.109089
     3  O   -0.160227
     4  O   -0.224064
     5  O   -0.272689
     6  O   -0.297158
     7  N   -0.118938
     8  N   -0.029467
     9  N   -0.111225
    10  N   -0.211121
    11  C   -0.102340
    12  C   -0.005616
    13  C   -0.097258
    14  C    0.059554
    15  C   -0.143502
    16  C    0.071134
    17  C   -0.054746
    18  C   -0.111012
    19  C    0.051198
    20  C   -0.073055
    21  C    0.029559
    22  C    0.051097
    23  C    0.029590
    24  C    0.160433
    25  C   -0.101367
    26  C   -0.091950
    27  C    0.141201
    28  C    0.031463
    29  C   -0.063010
    30  C    0.129524
    31  C   -0.091245
    32  C    0.083961
    33  C   -0.157639
    34  C    0.099462
    35  C   -0.134596
    36  C   -0.098922
    37  C    0.086047
    38  C   -0.044845
    39  C    0.191618
    40  C   -0.009825
    41  C    0.155187
    42  C    0.098742
    43  C   -0.026660
    44  H    0.138232
    45  H    0.041125
    46  H    0.038476
    47  H    0.025188
    48  H    0.063714
    49  H    0.018772
    50  H   -0.016263
    51  H    0.065390
    52  H    0.114972
    53  H    0.067219
    54  H    0.041837
    55  H    0.048933
    56  H    0.139085
    57  H    0.032105
    58  H    0.025315
    59  H    0.074274
    60  H    0.070909
    61  H    0.026766
    62  H   -0.008972
    63  H    0.019942
    64  H   -0.047027
    65  H    0.014693
    66  H    0.017260
    67  H    0.042804
    68  H    0.026338
    69  H    0.086909
    70  H   -0.004326
    71  H    0.050906
    72  H    0.015004
    73  H    0.035153
    74  H    0.053400
    75  H   -0.002217
    76  H    0.028891
    77  H    0.007772
    78  H    0.025596
    79  H    0.026981
    80  H    0.145178
    81  H    0.155262
 Sum of Mulliken charges =  -0.00000

 Dipole moment (field-independent basis, Debye):
    X=             -3.1043    Y=              1.5054    Z=             -0.7931  Tot=              3.5401
 Quadrupole moment (field-independent basis, Debye-Ang):
   XX=           -243.5186   YY=           -243.7316   ZZ=           -253.8601
   XY=             13.0318   XZ=             18.1085   YZ=            -10.4433

 Normal termination of Gaussian 16 at Tue Jul  2 05:40:53 2019.
