 Gaussian 16, Revision A.03,
 Gaussian 16:  ES64L-G16RevA.03 25-Dec-2016

 --------------------------
 # td=(NStates=1) B3LYP/SVP
 --------------------------

 --
 TD
 --
 Symbolic Z-matrix:
 Charge =  0 Multiplicity = 1

                         Standard orientation:
 ---------------------------------------------------------------------
 Center     Atomic      Atomic             Coordinates (Angstroms)
 Number     Number       Type             X           Y           Z
 ---------------------------------------------------------------------
      1          8           0        4.061307   -5.010347   -1.854235
      2          8           0       -3.379489   -4.637248   -1.175105
      3          8           0       -7.193048   -1.238969   -1.769940
      4          8           0       -4.016018   -2.905358    0.164095
      5          8           0       -7.503799   -0.293550    0.215885
      6          8           0        3.123991    2.228623    0.540902
      7          7           0        0.167781   -0.502731    0.666332
      8          7           0       -1.418302    1.890435    0.275034
      9          7           0        3.109546   -3.265725   -0.614833
     10          7           0        1.005882    2.882719    0.103806
     11          6           0       -0.773019   -2.332832    1.355486
     12          6           0       -0.987861   -1.050477    0.988531
     13          6           0        0.592492   -2.701372    1.184170
     14          6           0        1.154486   -1.439382    0.764661
     15          6           0       -3.646657    1.700189    0.188570
     16          6           0       -2.430635    0.929307    0.445289
     17          6           0       -2.253883   -0.341857    0.951350
     18          6           0       -3.379650    2.972377   -0.181612
     19          6           0       -1.767086   -3.380750    1.946323
     20          6           0        5.422216   -2.979058   -1.389850
     21          6           0        3.459758   -1.988907   -0.121605
     22          6           0       -1.960023    3.144653   -0.080239
     23          6           0        4.890345   -1.793753   -0.578956
     24          6           0       -5.084706    1.086859    0.300407
     25          6           0        2.578996   -1.107706    0.548596
     26          6           0        1.336080   -3.877389    1.681909
     27          6           0        4.166873   -3.867296   -1.470517
     28          6           0       -2.278716   -4.429804    0.978793
     29          6           0       -5.400366    0.093059   -0.847815
     30          6           0       -4.256376    4.106079   -0.560303
     31          6           0       -1.046317    4.168441   -0.345831
     32          6           0        6.545865   -3.874068   -0.875481
     33          6           0        5.782827   -0.796530   -0.178029
     34          6           0        0.422896    4.068967   -0.281509
     35          6           0        1.384910    5.060346   -0.497046
     36          6           0        2.589503    4.487070   -0.213813
     37          6           0       -3.357526   -3.936593   -0.008662
     38          6           0        5.462395    0.406860    0.755575
     39          6           0       -6.761777   -0.482969   -0.709208
     40          6           0        3.974113    5.022129   -0.355956
     41          6           0        2.332862    3.036290    0.070848
     42          6           0        1.111620    6.536567   -0.836329
     43          6           0        4.590015    5.433342    1.139978
     44          1           0        0.401999    0.362500    0.373044
     45          1           0       -3.085873   -1.021538    1.001500
     46          1           0       -2.674538   -2.930863    2.344387
     47          1           0       -1.266872   -3.988827    2.835961
     48          1           0        5.580471   -2.807321   -2.426786
     49          1           0       -5.308658    0.559626    1.303244
     50          1           0       -5.796388    2.023604    0.213590
     51          1           0        3.052228   -0.086410    0.788064
     52          1           0       -0.539854    1.997479    0.782068
     53          1           0        1.711392   -4.937235    1.126790
     54          1           0        2.270998   -3.458903    2.297714
     55          1           0        0.715970   -4.236708    2.515289
     56          1           0        2.207218   -3.599449   -0.865650
     57          1           0       -1.404564   -4.851654    0.268894
     58          1           0       -2.828286   -5.221997    1.579166
     59          1           0       -4.738923   -0.676792   -1.033808
     60          1           0       -5.501133    0.464055   -1.961433
     61          1           0       -4.039558    4.836828    0.142274
     62          1           0       -5.277936    3.689098   -0.809757
     63          1           0       -4.079098    4.747560   -1.575826
     64          1           0       -1.609108    5.050664   -0.551574
     65          1           0        7.423128   -3.315376   -1.050923
     66          1           0        6.486015   -4.780998   -1.497694
     67          1           0        6.219889   -4.040795    0.280802
     68          1           0        6.817175   -0.909112   -0.475965
     69          1           0        4.972447    1.195757    0.255602
     70          1           0        6.321354    0.978436    1.130623
     71          1           0        4.962900    0.036080    1.659794
     72          1           0        4.013516    5.913222   -0.989005
     73          1           0        4.837616    4.193988   -0.859459
     74          1           0        0.777633    6.593014   -1.698772
     75          1           0        1.887752    7.075789   -0.956197
     76          1           0        0.413694    7.029630    0.020134
     77          1           0        3.732221    5.919965    1.697603
     78          1           0        5.480466    6.120198    1.122331
     79          1           0        4.825077    4.549765    1.651101
     80          1           0       -4.143941   -4.269100   -1.639876
     81          1           0       -8.096244   -1.613022   -1.588784
 ---------------------------------------------------------------------

 SCF Done:  E(RB3LYP) =  -1949.10897971     A.U. after   17 cycles

 Excitation energies and oscillator strengths:

 Excited State   1:      Singlet-A      1.6363 eV  757.73 nm  f=0.2398  <S**2>=0.000
     156 ->157         0.70664
     156 <-157        -0.11518
 This state for optimization and/or second-order correction.
 Total Energy, E(TD-HF/TD-DFT) =  -1949.04884846
 Copying the excited state density for this state as the 1-particle RhoCI density.

 The electronic state is 1-A.
 Alpha  occ. eigenvalues --  -19.20179 -19.17381 -19.14681 -19.12175 -19.11963
 Alpha  occ. eigenvalues --  -19.09914 -14.36864 -14.35698 -14.35225 -14.27728
 Alpha  occ. eigenvalues --  -10.33944 -10.31425 -10.29362 -10.25315 -10.24723
 Alpha  occ. eigenvalues --  -10.23950 -10.23525 -10.23480 -10.23205 -10.22863
 Alpha  occ. eigenvalues --  -10.22253 -10.22186 -10.21424 -10.21292 -10.21110
 Alpha  occ. eigenvalues --  -10.20976 -10.20946 -10.20872 -10.20838 -10.20743
 Alpha  occ. eigenvalues --  -10.20464 -10.20442 -10.20329 -10.19573 -10.19560
 Alpha  occ. eigenvalues --  -10.19453 -10.19418 -10.19320 -10.19121 -10.18959
 Alpha  occ. eigenvalues --  -10.18443 -10.17655 -10.16802  -1.10919  -1.08678
 Alpha  occ. eigenvalues --   -1.03802  -1.01586  -1.01252  -1.00417  -0.99636
 Alpha  occ. eigenvalues --   -0.96755  -0.92788  -0.92065  -0.82223  -0.81886
 Alpha  occ. eigenvalues --   -0.81169  -0.80915  -0.79165  -0.78520  -0.77866
 Alpha  occ. eigenvalues --   -0.77266  -0.75955  -0.74679  -0.73281  -0.71826
 Alpha  occ. eigenvalues --   -0.71331  -0.69575  -0.68998  -0.68343  -0.68061
 Alpha  occ. eigenvalues --   -0.67190  -0.65891  -0.64062  -0.62514  -0.61250
 Alpha  occ. eigenvalues --   -0.60829  -0.59185  -0.59023  -0.56981  -0.56073
 Alpha  occ. eigenvalues --   -0.55560  -0.55482  -0.54738  -0.53589  -0.53087
 Alpha  occ. eigenvalues --   -0.52392  -0.51536  -0.50657  -0.50082  -0.49721
 Alpha  occ. eigenvalues --   -0.49208  -0.49089  -0.48280  -0.47451  -0.47197
 Alpha  occ. eigenvalues --   -0.47171  -0.46675  -0.46041  -0.45777  -0.44836
 Alpha  occ. eigenvalues --   -0.44485  -0.44305  -0.43957  -0.43650  -0.43348
 Alpha  occ. eigenvalues --   -0.43076  -0.43010  -0.42822  -0.42098  -0.41962
 Alpha  occ. eigenvalues --   -0.41788  -0.41399  -0.40998  -0.40772  -0.40688
 Alpha  occ. eigenvalues --   -0.40539  -0.40188  -0.39808  -0.39695  -0.39591
 Alpha  occ. eigenvalues --   -0.39496  -0.39115  -0.38694  -0.38538  -0.37893
 Alpha  occ. eigenvalues --   -0.37584  -0.37425  -0.37322  -0.36580  -0.36229
 Alpha  occ. eigenvalues --   -0.36145  -0.35955  -0.35224  -0.34954  -0.34907
 Alpha  occ. eigenvalues --   -0.34305  -0.34163  -0.33854  -0.33623  -0.33207
 Alpha  occ. eigenvalues --   -0.32754  -0.32270  -0.31918  -0.29879  -0.29567
 Alpha  occ. eigenvalues --   -0.27711  -0.26875  -0.26438  -0.25964  -0.25762
 Alpha  occ. eigenvalues --   -0.25200  -0.24872  -0.23814  -0.22560  -0.21438
 Alpha  occ. eigenvalues --   -0.17737
 Alpha virt. eigenvalues --   -0.11041  -0.06110  -0.04069  -0.02231  -0.00946
 Alpha virt. eigenvalues --    0.01053   0.02422   0.03108   0.03399   0.03725
 Alpha virt. eigenvalues --    0.04268   0.04811   0.05182   0.05600   0.06129

 Mulliken charges:
               1
     1  O   -0.199514
     2  O   -0.168059
     3  O   -0.232116
     4  O   -0.249283
     5  O   -0.222732
     6  O   -0.214717
     7  N    0.061715
     8  N   -0.143948
     9  N   -0.177206
    10  N   -0.276740
    11  C   -0.101238
    12  C    0.011518
    13  C   -0.122198
    14  C    0.010243
    15  C   -0.092335
    16  C    0.105532
    17  C   -0.023299
    18  C   -0.053673
    19  C    0.076094
    20  C   -0.024263
    21  C    0.106874
    22  C    0.009209
    23  C   -0.048779
    24  C    0.058836
    25  C   -0.107935
    26  C    0.000778
    27  C    0.095750
    28  C   -0.021523
    29  C    0.028750
    30  C    0.053900
    31  C   -0.060105
    32  C    0.063829
    33  C   -0.126048
    34  C    0.104402
    35  C   -0.129960
    36  C   -0.157269
    37  C    0.137427
    38  C    0.079984
    39  C    0.120764
    40  C   -0.018690
    41  C    0.141895
    42  C    0.313775
    43  C   -0.020433
    44  H    0.083003
    45  H    0.005759
    46  H    0.006912
    47  H    0.032161
    48  H    0.016575
    49  H    0.058065
    50  H    0.029430
    51  H    0.049156
    52  H    0.152718
    53  H    0.064054
    54  H    0.040501
    55  H   -0.009333
    56  H    0.130720
    57  H    0.065877
    58  H    0.051659
    59  H    0.010418
    60  H    0.037150
    61  H    0.022641
    62  H    0.036354
    63  H    0.033897
    64  H   -0.058030
    65  H    0.011705
    66  H    0.040237
    67  H    0.044746
    68  H   -0.010238
    69  H    0.048849
    70  H   -0.013073
    71  H    0.036271
    72  H    0.005039
    73  H    0.044984
    74  H   -0.065083
    75  H   -0.075597
    76  H    0.041338
    77  H    0.020139
    78  H    0.024308
    79  H    0.022170
    80  H    0.181402
    81  H    0.193909
 Sum of Mulliken charges =  -0.00000

 Dipole moment (field-independent basis, Debye):
    X=             -2.4325    Y=              1.2458    Z=             -1.3285  Tot=              3.0387
 Quadrupole moment (field-independent basis, Debye-Ang):
   XX=           -245.1877   YY=           -237.1868   ZZ=           -253.6539
   XY=             16.2733   XZ=             10.6495   YZ=            -11.7890

 Normal termination of Gaussian 16 at Sun Jun 30 16:03:16 2019.
