 Gaussian 16, Revision A.03,
 Gaussian 16:  ES64L-G16RevA.03 25-Dec-2016

 --------------------------
 # td=(NStates=1) B3LYP/SVP
 --------------------------

 --
 TD
 --
 Symbolic Z-matrix:
 Charge =  0 Multiplicity = 1

                         Standard orientation:
 ---------------------------------------------------------------------
 Center     Atomic      Atomic             Coordinates (Angstroms)
 Number     Number       Type             X           Y           Z
 ---------------------------------------------------------------------
      1          8           0        4.569661   -4.858636   -1.746945
      2          8           0       -2.761116   -4.985912   -0.956119
      3          8           0       -7.217629   -1.513740   -1.901576
      4          8           0       -3.876239   -3.310622    0.110201
      5          8           0       -7.675565   -0.720262    0.220822
      6          8           0        3.002268    2.409577    0.150978
      7          7           0        0.254063   -0.539723    0.408428
      8          7           0       -1.585678    1.751061    0.275017
      9          7           0        3.437266   -3.064759   -0.755998
     10          7           0        0.728823    2.920295   -0.075328
     11          6           0       -0.538535   -2.385881    1.391386
     12          6           0       -0.840771   -1.154137    0.860715
     13          6           0        0.840198   -2.674547    1.094262
     14          6           0        1.305972   -1.406134    0.679657
     15          6           0       -3.847812    1.387766    0.284511
     16          6           0       -2.516499    0.848061    0.500398
     17          6           0       -2.193487   -0.502144    0.778092
     18          6           0       -3.649244    2.710656   -0.023375
     19          6           0       -1.561734   -3.219997    2.047020
     20          6           0        5.696279   -2.660199   -1.267426
     21          6           0        3.687967   -1.815641   -0.240888
     22          6           0       -2.196700    2.909289   -0.090433
     23          6           0        5.169999   -1.507329   -0.459903
     24          6           0       -5.191538    0.700588    0.346990
     25          6           0        2.681058   -1.006348    0.283701
     26          6           0        1.650625   -3.745628    1.667115
     27          6           0        4.496357   -3.739574   -1.347160
     28          6           0       -2.065321   -4.447974    1.140467
     29          6           0       -5.488693   -0.252860   -0.850167
     30          6           0       -4.652545    3.717618   -0.546859
     31          6           0       -1.418365    4.062722   -0.376381
     32          6           0        6.879547   -3.420938   -0.707914
     33          6           0        5.990076   -0.501534   -0.074206
     34          6           0        0.051407    4.033361   -0.342409
     35          6           0        0.922416    5.200254   -0.396383
     36          6           0        2.157943    4.813522   -0.123150
     37          6           0       -2.962242   -4.075654    0.027940
     38          6           0        5.489632    0.880600    0.566304
     39          6           0       -6.862329   -0.822138   -0.722952
     40          6           0        3.476019    5.565889   -0.115835
     41          6           0        2.084179    3.314939    0.018756
     42          6           0        0.637838    6.683482   -0.754951
     43          6           0        4.141795    5.522715    1.323424
     44          1           0        0.289223    0.422688   -0.089544
     45          1           0       -3.157218   -1.213115    1.173857
     46          1           0       -2.498601   -2.687202    2.397475
     47          1           0       -1.181611   -3.859378    2.943832
     48          1           0        5.879527   -2.216842   -2.205952
     49          1           0       -5.219637    0.029348    1.248734
     50          1           0       -6.029760    1.428701    0.268922
     51          1           0        2.965713    0.037261    0.331021
     52          1           0       -0.603953    1.740297    0.426153
     53          1           0        1.945929   -4.490866    0.873956
     54          1           0        2.652641   -3.668439    2.191733
     55          1           0        1.134177   -4.104113    2.508382
     56          1           0        2.428843   -3.735446   -0.683886
     57          1           0       -1.220278   -5.003781    0.753774
     58          1           0       -2.576257   -5.314321    1.735210
     59          1           0       -4.772525   -1.061328   -0.921170
     60          1           0       -5.263048    0.176647   -1.890626
     61          1           0       -4.634300    4.427041    0.202801
     62          1           0       -5.729022    3.433425   -0.495007
     63          1           0       -4.335679    4.070799   -1.566685
     64          1           0       -1.855235    5.052525   -0.428781
     65          1           0        7.644243   -2.674756   -0.501289
     66          1           0        7.258886   -4.202794   -1.496345
     67          1           0        6.639387   -3.938725    0.281798
     68          1           0        6.986444   -0.579971   -0.491005
     69          1           0        4.917189    1.476861   -0.216977
     70          1           0        6.408403    1.323384    0.821507
     71          1           0        4.912017    0.600735    1.466388
     72          1           0        3.164512    6.589300   -0.610258
     73          1           0        4.263579    5.192917   -0.811172
     74          1           0        0.125220    6.795082   -1.647948
     75          1           0        1.602991    7.299553   -0.523061
     76          1           0       -0.158210    7.252910   -0.265768
     77          1           0        3.518284    6.069699    2.186990
     78          1           0        5.204569    5.874082    1.477141
     79          1           0        4.320215    4.421047    1.509303
     80          1           0       -3.361899   -4.790667   -1.614613
     81          1           0       -8.078057   -1.880745   -1.744705
 ---------------------------------------------------------------------

 SCF Done:  E(RB3LYP) =  -1949.15158282     A.U. after   17 cycles

 Excitation energies and oscillator strengths:

 Excited State   1:      Singlet-A      1.6438 eV  754.28 nm  f=0.2516  <S**2>=0.000
     155 ->157         0.10018
     156 ->157         0.70461
     156 <-157        -0.11036
 This state for optimization and/or second-order correction.
 Total Energy, E(TD-HF/TD-DFT) =  -1949.09117612
 Copying the excited state density for this state as the 1-particle RhoCI density.

 The electronic state is 1-A.
 Alpha  occ. eigenvalues --  -19.19070 -19.17555 -19.14556 -19.13611 -19.11536
 Alpha  occ. eigenvalues --  -19.10737 -14.38221 -14.37842 -14.37113 -14.29680
 Alpha  occ. eigenvalues --  -10.33049 -10.33007 -10.28838 -10.27373 -10.24998
 Alpha  occ. eigenvalues --  -10.24508 -10.24154 -10.23705 -10.23652 -10.23229
 Alpha  occ. eigenvalues --  -10.23134 -10.21883 -10.21542 -10.21438 -10.21305
 Alpha  occ. eigenvalues --  -10.21281 -10.20988 -10.20776 -10.20637 -10.20251
 Alpha  occ. eigenvalues --  -10.20056 -10.19905 -10.19868 -10.19855 -10.19794
 Alpha  occ. eigenvalues --  -10.19661 -10.19608 -10.19495 -10.19109 -10.19038
 Alpha  occ. eigenvalues --  -10.18847 -10.18227 -10.17304  -1.11896  -1.07600
 Alpha  occ. eigenvalues --   -1.04295  -1.03509  -1.01180  -0.99261  -0.99013
 Alpha  occ. eigenvalues --   -0.98497  -0.94611  -0.92108  -0.83222  -0.82300
 Alpha  occ. eigenvalues --   -0.80969  -0.80535  -0.80132  -0.79012  -0.78030
 Alpha  occ. eigenvalues --   -0.77015  -0.75111  -0.74337  -0.72833  -0.72624
 Alpha  occ. eigenvalues --   -0.72429  -0.69797  -0.69395  -0.68789  -0.68525
 Alpha  occ. eigenvalues --   -0.67027  -0.65153  -0.62775  -0.62298  -0.61668
 Alpha  occ. eigenvalues --   -0.60759  -0.60211  -0.58734  -0.58135  -0.56910
 Alpha  occ. eigenvalues --   -0.56530  -0.55894  -0.55030  -0.54610  -0.52804
 Alpha  occ. eigenvalues --   -0.52128  -0.51996  -0.51409  -0.50724  -0.50067
 Alpha  occ. eigenvalues --   -0.49427  -0.48748  -0.48279  -0.47887  -0.47544
 Alpha  occ. eigenvalues --   -0.46780  -0.46653  -0.46133  -0.45671  -0.45269
 Alpha  occ. eigenvalues --   -0.45079  -0.44212  -0.44092  -0.43916  -0.43664
 Alpha  occ. eigenvalues --   -0.43231  -0.43120  -0.42909  -0.42669  -0.42480
 Alpha  occ. eigenvalues --   -0.42203  -0.41842  -0.41388  -0.41177  -0.40781
 Alpha  occ. eigenvalues --   -0.40482  -0.40251  -0.39982  -0.39477  -0.39082
 Alpha  occ. eigenvalues --   -0.38871  -0.38604  -0.38284  -0.38095  -0.37895
 Alpha  occ. eigenvalues --   -0.37678  -0.37566  -0.37208  -0.36954  -0.36696
 Alpha  occ. eigenvalues --   -0.36605  -0.36241  -0.36007  -0.35424  -0.35098
 Alpha  occ. eigenvalues --   -0.34793  -0.34240  -0.33972  -0.33671  -0.32745
 Alpha  occ. eigenvalues --   -0.32322  -0.32089  -0.31686  -0.29928  -0.29455
 Alpha  occ. eigenvalues --   -0.28795  -0.28429  -0.26720  -0.26139  -0.25797
 Alpha  occ. eigenvalues --   -0.25435  -0.25154  -0.24539  -0.24242  -0.21225
 Alpha  occ. eigenvalues --   -0.17782
 Alpha virt. eigenvalues --   -0.11020  -0.06233  -0.04051  -0.02061  -0.01547
 Alpha virt. eigenvalues --    0.01004   0.01438   0.02616   0.03399   0.03614
 Alpha virt. eigenvalues --    0.04421   0.04734   0.05706   0.05989   0.06234

 Mulliken charges:
               1
     1  O   -0.180647
     2  O   -0.139787
     3  O   -0.216244
     4  O   -0.207622
     5  O   -0.255151
     6  O   -0.267198
     7  N   -0.078609
     8  N    0.013166
     9  N   -0.206382
    10  N   -0.294987
    11  C   -0.066310
    12  C    0.019220
    13  C   -0.153929
    14  C    0.092757
    15  C   -0.066286
    16  C    0.037638
    17  C   -0.122024
    18  C   -0.148381
    19  C    0.045110
    20  C   -0.099778
    21  C    0.100241
    22  C    0.063483
    23  C    0.011487
    24  C    0.114787
    25  C   -0.090428
    26  C    0.070171
    27  C    0.139625
    28  C   -0.020504
    29  C   -0.030773
    30  C    0.135805
    31  C   -0.096217
    32  C    0.041974
    33  C   -0.189882
    34  C    0.056812
    35  C   -0.079745
    36  C   -0.147313
    37  C    0.126556
    38  C    0.071055
    39  C    0.186125
    40  C    0.047128
    41  C    0.184716
    42  C    0.105420
    43  C   -0.068367
    44  H    0.170109
    45  H    0.071782
    46  H    0.032191
    47  H    0.017151
    48  H    0.023853
    49  H    0.036550
    50  H    0.021953
    51  H   -0.000625
    52  H    0.114946
    53  H    0.003108
    54  H    0.032276
    55  H   -0.003716
    56  H    0.206016
    57  H    0.012626
    58  H    0.058588
    59  H    0.042423
    60  H    0.042942
    61  H    0.000565
    62  H    0.009808
    63  H    0.051167
    64  H   -0.031569
    65  H    0.000453
    66  H    0.045525
    67  H    0.022085
    68  H   -0.006739
    69  H    0.087554
    70  H   -0.010559
    71  H    0.039596
    72  H    0.007451
    73  H    0.027087
    74  H   -0.009092
    75  H    0.047429
    76  H   -0.005559
    77  H    0.034733
    78  H    0.016146
    79  H    0.046444
    80  H    0.141500
    81  H    0.167090
 Sum of Mulliken charges =  -0.00000

 Dipole moment (field-independent basis, Debye):
    X=             -3.0365    Y=              1.8312    Z=             -0.5874  Tot=              3.5943
 Quadrupole moment (field-independent basis, Debye-Ang):
   XX=           -261.7326   YY=           -237.3524   ZZ=           -254.4616
   XY=             12.5170   XZ=             15.1727   YZ=            -12.1904

 Normal termination of Gaussian 16 at Fri Jun 28 22:13:10 2019.
