 Gaussian 16, Revision A.03,
 Gaussian 16:  ES64L-G16RevA.03 25-Dec-2016

 --------------------------
 # td=(NStates=1) B3LYP/SVP
 --------------------------

 --
 TD
 --
 Symbolic Z-matrix:
 Charge =  0 Multiplicity = 1

                         Standard orientation:
 ---------------------------------------------------------------------
 Center     Atomic      Atomic             Coordinates (Angstroms)
 Number     Number       Type             X           Y           Z
 ---------------------------------------------------------------------
      1          8           0        4.571908   -4.854698   -1.706877
      2          8           0       -2.614270   -4.873911   -1.244835
      3          8           0       -6.755242   -2.095010   -1.669074
      4          8           0       -3.596937   -3.261756   -0.065223
      5          8           0       -7.700569   -0.829816    0.060211
      6          8           0        2.902608    2.568840    0.507221
      7          7           0        0.367076   -0.488564    0.520261
      8          7           0       -1.679209    1.855985    0.324175
      9          7           0        3.483850   -2.985353   -0.699368
     10          7           0        0.591105    2.993808    0.125061
     11          6           0       -0.485806   -2.443798    1.408277
     12          6           0       -0.873631   -1.118365    1.006025
     13          6           0        0.890724   -2.569460    1.124870
     14          6           0        1.398962   -1.334383    0.613694
     15          6           0       -3.837489    1.413366    0.283632
     16          6           0       -2.599893    0.835997    0.597610
     17          6           0       -2.197005   -0.476212    0.988751
     18          6           0       -3.745722    2.717014   -0.061037
     19          6           0       -1.458965   -3.470417    1.958452
     20          6           0        5.688153   -2.586475   -1.241362
     21          6           0        3.645665   -1.629090   -0.268733
     22          6           0       -2.257258    2.968727   -0.111993
     23          6           0        5.074319   -1.445483   -0.475382
     24          6           0       -5.192801    0.692223    0.333688
     25          6           0        2.734477   -0.903336    0.281025
     26          6           0        1.628881   -3.688527    1.682121
     27          6           0        4.546662   -3.693641   -1.251712
     28          6           0       -1.827184   -4.632531    0.944262
     29          6           0       -5.407995   -0.444872   -0.685540
     30          6           0       -4.745237    3.645805   -0.428993
     31          6           0       -1.515060    4.123605   -0.322726
     32          6           0        6.959300   -3.170382   -0.648468
     33          6           0        5.733867   -0.302214   -0.055990
     34          6           0       -0.134073    4.109698   -0.288792
     35          6           0        0.850241    5.239745   -0.474689
     36          6           0        2.055641    4.752257   -0.237581
     37          6           0       -2.742370   -4.092489   -0.160579
     38          6           0        5.368165    0.846389    0.755133
     39          6           0       -6.777326   -1.090037   -0.670856
     40          6           0        3.406436    5.454899   -0.450663
     41          6           0        1.923766    3.415559    0.198275
     42          6           0        0.336414    6.600357   -0.844651
     43          6           0        4.170179    5.356743    0.899464
     44          1           0        0.189032    0.427416    0.039485
     45          1           0       -3.046908   -1.297395    1.076866
     46          1           0       -2.427969   -2.907409    2.151876
     47          1           0       -1.120868   -3.937715    2.754979
     48          1           0        5.905727   -2.306207   -2.226354
     49          1           0       -5.353036    0.224788    1.440358
     50          1           0       -6.022683    1.481687    0.093817
     51          1           0        2.924967    0.277334    0.640249
     52          1           0       -0.592044    1.877358    0.341381
     53          1           0        1.522432   -4.399106    0.985205
     54          1           0        2.631806   -3.289973    1.813052
     55          1           0        1.334579   -4.068691    2.577178
     56          1           0        2.501591   -3.460179   -0.759348
     57          1           0       -1.005194   -5.227080    0.561188
     58          1           0       -2.359092   -5.534444    1.496114
     59          1           0       -4.525160   -1.072945   -0.732318
     60          1           0       -5.288460    0.115883   -1.667221
     61          1           0       -4.549264    4.629145   -0.050152
     62          1           0       -5.788938    3.362572    0.021503
     63          1           0       -4.994652    3.691329   -1.579141
     64          1           0       -2.086590    4.989610   -0.646492
     65          1           0        7.851802   -2.595879   -0.758519
     66          1           0        7.227229   -4.032055   -1.203423
     67          1           0        6.881251   -3.413263    0.321113
     68          1           0        6.801273   -0.304728   -0.420589
     69          1           0        4.959848    1.619000    0.093235
     70          1           0        6.361429    1.211586    1.394033
     71          1           0        4.661199    0.895276    1.580112
     72          1           0        3.274034    6.412983   -0.803073
     73          1           0        3.932452    4.543307   -1.012189
     74          1           0       -0.461592    6.596776   -1.702535
     75          1           0        1.329796    7.251766   -1.170811
     76          1           0       -0.315950    7.090001    0.015946
     77          1           0        3.639823    5.909892    1.778293
     78          1           0        5.191829    5.980122    0.727660
     79          1           0        4.189336    4.398287    1.124072
     80          1           0       -3.038058   -4.347356   -1.936783
     81          1           0       -7.818950   -2.136053   -1.674242
 ---------------------------------------------------------------------

 SCF Done:  E(RB3LYP) =  -1949.10833891     A.U. after   19 cycles

 Excitation energies and oscillator strengths:

 Excited State   1:      Singlet-A      1.8312 eV  677.05 nm  f=0.2932  <S**2>=0.000
     156 ->157         0.70383
     156 <-157        -0.10787
 This state for optimization and/or second-order correction.
 Total Energy, E(TD-HF/TD-DFT) =  -1949.04104218
 Copying the excited state density for this state as the 1-particle RhoCI density.

 The electronic state is 1-A.
 Alpha  occ. eigenvalues --  -19.19570 -19.18684 -19.15129 -19.14813 -19.11506
 Alpha  occ. eigenvalues --  -19.09877 -14.38510 -14.37520 -14.36153 -14.29436
 Alpha  occ. eigenvalues --  -10.33831 -10.33108 -10.29757 -10.26543 -10.24632
 Alpha  occ. eigenvalues --  -10.24311 -10.24279 -10.24072 -10.23993 -10.23890
 Alpha  occ. eigenvalues --  -10.22975 -10.22817 -10.22311 -10.21651 -10.21202
 Alpha  occ. eigenvalues --  -10.20825 -10.20806 -10.20730 -10.20389 -10.20316
 Alpha  occ. eigenvalues --  -10.20210 -10.20109 -10.19970 -10.19702 -10.19499
 Alpha  occ. eigenvalues --  -10.19412 -10.19369 -10.19235 -10.18466 -10.18445
 Alpha  occ. eigenvalues --  -10.17552 -10.17454 -10.16643  -1.12347  -1.08621
 Alpha  occ. eigenvalues --   -1.03220  -1.01529  -1.00664  -0.99040  -0.97479
 Alpha  occ. eigenvalues --   -0.96907  -0.94282  -0.90492  -0.83018  -0.82746
 Alpha  occ. eigenvalues --   -0.81466  -0.81042  -0.80266  -0.79458  -0.78480
 Alpha  occ. eigenvalues --   -0.77524  -0.76757  -0.75202  -0.74588  -0.73229
 Alpha  occ. eigenvalues --   -0.72201  -0.70407  -0.69399  -0.69208  -0.68100
 Alpha  occ. eigenvalues --   -0.66478  -0.65234  -0.63809  -0.62092  -0.61073
 Alpha  occ. eigenvalues --   -0.60691  -0.59569  -0.58230  -0.57782  -0.57195
 Alpha  occ. eigenvalues --   -0.56459  -0.55250  -0.54899  -0.54102  -0.53513
 Alpha  occ. eigenvalues --   -0.52627  -0.52347  -0.51461  -0.50749  -0.49758
 Alpha  occ. eigenvalues --   -0.49484  -0.49062  -0.48884  -0.48349  -0.47572
 Alpha  occ. eigenvalues --   -0.47299  -0.46621  -0.46518  -0.46312  -0.46114
 Alpha  occ. eigenvalues --   -0.45725  -0.45230  -0.44435  -0.44268  -0.43649
 Alpha  occ. eigenvalues --   -0.43366  -0.43171  -0.43106  -0.42969  -0.42807
 Alpha  occ. eigenvalues --   -0.42475  -0.41890  -0.41348  -0.41064  -0.40830
 Alpha  occ. eigenvalues --   -0.40766  -0.40676  -0.40405  -0.40169  -0.39739
 Alpha  occ. eigenvalues --   -0.39714  -0.39288  -0.39056  -0.38661  -0.38437
 Alpha  occ. eigenvalues --   -0.37926  -0.37516  -0.37121  -0.37066  -0.36866
 Alpha  occ. eigenvalues --   -0.36247  -0.36108  -0.35520  -0.35256  -0.34962
 Alpha  occ. eigenvalues --   -0.34549  -0.34428  -0.34234  -0.33928  -0.32984
 Alpha  occ. eigenvalues --   -0.32375  -0.31493  -0.30951  -0.30688  -0.29787
 Alpha  occ. eigenvalues --   -0.29541  -0.27382  -0.26681  -0.26010  -0.25764
 Alpha  occ. eigenvalues --   -0.25671  -0.24704  -0.24343  -0.23589  -0.22096
 Alpha  occ. eigenvalues --   -0.18654
 Alpha virt. eigenvalues --   -0.11164  -0.06600  -0.03944  -0.02384  -0.01232
 Alpha virt. eigenvalues --    0.00157   0.01634   0.02775   0.03321   0.03709
 Alpha virt. eigenvalues --    0.03805   0.04001   0.04432   0.05314   0.05855

 Mulliken charges:
               1
     1  O   -0.240416
     2  O   -0.161091
     3  O   -0.262330
     4  O   -0.201136
     5  O   -0.203660
     6  O   -0.335326
     7  N   -0.096898
     8  N   -0.114343
     9  N   -0.209133
    10  N   -0.339525
    11  C   -0.089981
    12  C   -0.000346
    13  C   -0.235693
    14  C    0.073973
    15  C   -0.045863
    16  C    0.080666
    17  C   -0.064735
    18  C   -0.092332
    19  C    0.195401
    20  C   -0.050689
    21  C    0.217658
    22  C    0.042151
    23  C   -0.047468
    24  C    0.014406
    25  C   -0.220931
    26  C    0.213438
    27  C    0.176470
    28  C   -0.043171
    29  C   -0.016690
    30  C    0.034549
    31  C   -0.089365
    32  C    0.134185
    33  C   -0.115991
    34  C    0.100982
    35  C   -0.073483
    36  C   -0.150628
    37  C    0.131216
    38  C    0.030375
    39  C    0.195523
    40  C    0.146496
    41  C    0.183091
    42  C   -0.008242
    43  C   -0.022492
    44  H    0.141481
    45  H    0.068515
    46  H    0.028206
    47  H   -0.047388
    48  H    0.018975
    49  H    0.041664
    50  H    0.018487
    51  H    0.111864
    52  H    0.165910
    53  H   -0.020936
    54  H    0.026056
    55  H   -0.014325
    56  H    0.152068
    57  H    0.020343
    58  H    0.060719
    59  H    0.042398
    60  H    0.030251
    61  H    0.018845
    62  H    0.031051
    63  H    0.044421
    64  H   -0.033095
    65  H   -0.007153
    66  H    0.002875
    67  H   -0.022677
    68  H    0.000696
    69  H    0.067008
    70  H    0.020599
    71  H    0.038051
    72  H   -0.029274
    73  H    0.040102
    74  H    0.038552
    75  H    0.045762
    76  H    0.049410
    77  H    0.009309
    78  H    0.020347
    79  H    0.006033
    80  H    0.176081
    81  H    0.200145
 Sum of Mulliken charges =  -0.00000

 Dipole moment (field-independent basis, Debye):
    X=             -3.2324    Y=              1.1947    Z=             -1.1610  Tot=              3.6365
 Quadrupole moment (field-independent basis, Debye-Ang):
   XX=           -260.5615   YY=           -246.6627   ZZ=           -253.3700
   XY=              7.1249   XZ=             14.4547   YZ=            -17.0407

 Normal termination of Gaussian 16 at Wed Jul  3 18:23:45 2019.
