 Gaussian 16, Revision A.03,
 Gaussian 16:  ES64L-G16RevA.03 25-Dec-2016

 --------------------------
 # td=(NStates=1) B3LYP/SVP
 --------------------------

 --
 TD
 --
 Symbolic Z-matrix:
 Charge =  0 Multiplicity = 1

                         Standard orientation:
 ---------------------------------------------------------------------
 Center     Atomic      Atomic             Coordinates (Angstroms)
 Number     Number       Type             X           Y           Z
 ---------------------------------------------------------------------
      1          8           0        4.306674   -4.851163   -1.724565
      2          8           0       -2.955364   -4.851891   -1.113747
      3          8           0       -6.955067   -1.673333   -1.841305
      4          8           0       -3.731423   -3.226856    0.188210
      5          8           0       -7.703688   -0.457276   -0.154371
      6          8           0        3.057370    2.558560    0.326494
      7          7           0        0.263804   -0.532794    0.628937
      8          7           0       -1.563043    1.762544    0.512974
      9          7           0        3.337857   -3.113738   -0.699363
     10          7           0        0.730200    2.900170    0.228272
     11          6           0       -0.596127   -2.397526    1.395118
     12          6           0       -0.906152   -1.063248    0.993244
     13          6           0        0.724135   -2.605675    1.165452
     14          6           0        1.254259   -1.335041    0.830904
     15          6           0       -3.752006    1.463742    0.281290
     16          6           0       -2.566873    0.862679    0.579747
     17          6           0       -2.105830   -0.515299    0.871619
     18          6           0       -3.557297    2.744401   -0.083062
     19          6           0       -1.565687   -3.405721    2.018937
     20          6           0        5.554143   -2.709729   -1.330368
     21          6           0        3.691352   -1.819662   -0.160839
     22          6           0       -2.159752    2.933786    0.034657
     23          6           0        5.036254   -1.613539   -0.471186
     24          6           0       -5.065072    0.783087    0.294533
     25          6           0        2.664830   -1.065241    0.487682
     26          6           0        1.564700   -3.803268    1.786176
     27          6           0        4.362939   -3.768931   -1.258437
     28          6           0       -1.879696   -4.565339    0.997918
     29          6           0       -5.398411   -0.277782   -0.776327
     30          6           0       -4.541648    3.789994   -0.606200
     31          6           0       -1.341660    4.078662   -0.257325
     32          6           0        6.825995   -3.433222   -0.973418
     33          6           0        5.789574   -0.433572   -0.345197
     34          6           0        0.078937    3.985650   -0.213978
     35          6           0        0.928614    5.126424   -0.433147
     36          6           0        2.268252    4.726410   -0.315090
     37          6           0       -2.982466   -4.097503   -0.033383
     38          6           0        5.609024    0.806774    0.508291
     39          6           0       -6.886543   -0.696100   -0.894133
     40          6           0        3.568049    5.363564   -0.285062
     41          6           0        2.106504    3.326896    0.080325
     42          6           0        0.444751    6.507302   -0.858550
     43          6           0        4.122356    5.588122    1.068305
     44          1           0        0.446380    0.480300    0.284936
     45          1           0       -2.935938   -1.259488    1.015338
     46          1           0       -2.483203   -2.973407    2.089232
     47          1           0       -1.282685   -3.834029    2.858254
     48          1           0        5.448403   -2.521305   -2.520510
     49          1           0       -4.778286    0.157279    1.386365
     50          1           0       -5.978050    1.310350    0.556171
     51          1           0        2.953200    0.047459    0.675709
     52          1           0       -0.466784    1.798058    0.717774
     53          1           0        1.617843   -4.741101    1.104212
     54          1           0        2.802905   -3.502076    1.781203
     55          1           0        1.229434   -4.205356    2.796532
     56          1           0        2.356748   -3.425850   -0.458622
     57          1           0       -0.900315   -4.896746    0.714687
     58          1           0       -2.362917   -5.238443    1.790522
     59          1           0       -4.643113   -1.163616   -0.511912
     60          1           0       -5.079811    0.195811   -1.923735
     61          1           0       -4.200364    4.898369   -0.124264
     62          1           0       -5.498152    3.506844    0.034979
     63          1           0       -4.698640    3.620761   -1.812542
     64          1           0       -1.622856    5.046941   -0.493411
     65          1           0        7.680970   -2.807983   -0.847496
     66          1           0        6.994601   -4.295207   -1.663138
     67          1           0        6.652529   -3.896514    0.112174
     68          1           0        6.957563   -0.681188   -0.734655
     69          1           0        4.911239    1.623436   -0.064475
     70          1           0        6.600058    1.355312    0.835509
     71          1           0        4.843144    0.709179    1.296761
     72          1           0        3.381650    6.272336   -0.713695
     73          1           0        4.471523    4.850035   -0.843926
     74          1           0       -0.020822    6.628774   -1.771495
     75          1           0        1.305835    7.287774   -0.793832
     76          1           0       -0.371476    6.929341   -0.158232
     77          1           0        3.332061    6.280009    1.641537
     78          1           0        5.115358    6.118601    0.971954
     79          1           0        4.526009    4.643245    1.684376
     80          1           0       -3.663668   -4.311336   -1.823559
     81          1           0       -7.906806   -1.990771   -1.821172
 ---------------------------------------------------------------------

 SCF Done:  E(RB3LYP) =  -1949.02172276     A.U. after   19 cycles

 Excitation energies and oscillator strengths:

 Excited State   1:      Singlet-A      1.6262 eV  762.41 nm  f=0.2954  <S**2>=0.000
     156 ->157         0.71227
     156 <-157        -0.13984
 This state for optimization and/or second-order correction.
 Total Energy, E(TD-HF/TD-DFT) =  -1948.96196010
 Copying the excited state density for this state as the 1-particle RhoCI density.

 The electronic state is 1-A.
 Alpha  occ. eigenvalues --  -19.21263 -19.17857 -19.15400 -19.13948 -19.10409
 Alpha  occ. eigenvalues --  -19.09457 -14.39326 -14.36815 -14.35159 -14.28771
 Alpha  occ. eigenvalues --  -10.34077 -10.31904 -10.28301 -10.25644 -10.25528
 Alpha  occ. eigenvalues --  -10.24917 -10.23149 -10.23077 -10.22899 -10.22879
 Alpha  occ. eigenvalues --  -10.22737 -10.22660 -10.22261 -10.22038 -10.21569
 Alpha  occ. eigenvalues --  -10.21297 -10.21251 -10.20840 -10.20672 -10.20580
 Alpha  occ. eigenvalues --  -10.20558 -10.20377 -10.20259 -10.19890 -10.19859
 Alpha  occ. eigenvalues --  -10.19372 -10.19356 -10.19190 -10.19125 -10.18819
 Alpha  occ. eigenvalues --  -10.18582 -10.18438 -10.17831  -1.12692  -1.12266
 Alpha  occ. eigenvalues --   -1.04897  -1.03851  -1.02849  -1.02839  -0.99505
 Alpha  occ. eigenvalues --   -0.97862  -0.95339  -0.90898  -0.83496  -0.82166
 Alpha  occ. eigenvalues --   -0.81747  -0.81611  -0.80261  -0.78333  -0.77795
 Alpha  occ. eigenvalues --   -0.76420  -0.75688  -0.75234  -0.73627  -0.71538
 Alpha  occ. eigenvalues --   -0.70491  -0.69496  -0.68789  -0.68037  -0.67716
 Alpha  occ. eigenvalues --   -0.66747  -0.65359  -0.63672  -0.62136  -0.60887
 Alpha  occ. eigenvalues --   -0.60294  -0.59118  -0.58668  -0.58200  -0.58045
 Alpha  occ. eigenvalues --   -0.56877  -0.55415  -0.54417  -0.53174  -0.52951
 Alpha  occ. eigenvalues --   -0.52073  -0.52040  -0.51476  -0.50765  -0.50202
 Alpha  occ. eigenvalues --   -0.49843  -0.49300  -0.49017  -0.48497  -0.47942
 Alpha  occ. eigenvalues --   -0.47428  -0.47378  -0.46995  -0.46065  -0.45696
 Alpha  occ. eigenvalues --   -0.45099  -0.44824  -0.44219  -0.44124  -0.43944
 Alpha  occ. eigenvalues --   -0.43627  -0.43171  -0.42948  -0.42530  -0.42077
 Alpha  occ. eigenvalues --   -0.41572  -0.41106  -0.40643  -0.40515  -0.40253
 Alpha  occ. eigenvalues --   -0.40015  -0.39930  -0.39787  -0.39472  -0.39137
 Alpha  occ. eigenvalues --   -0.39001  -0.38802  -0.38699  -0.38341  -0.37909
 Alpha  occ. eigenvalues --   -0.37785  -0.37363  -0.36977  -0.36908  -0.36676
 Alpha  occ. eigenvalues --   -0.36080  -0.35784  -0.35534  -0.35091  -0.34945
 Alpha  occ. eigenvalues --   -0.34554  -0.33791  -0.33742  -0.33511  -0.33167
 Alpha  occ. eigenvalues --   -0.32890  -0.31933  -0.31336  -0.30854  -0.30271
 Alpha  occ. eigenvalues --   -0.29007  -0.28556  -0.27145  -0.26213  -0.25467
 Alpha  occ. eigenvalues --   -0.25098  -0.24900  -0.23631  -0.22763  -0.21524
 Alpha  occ. eigenvalues --   -0.17173
 Alpha virt. eigenvalues --   -0.10720  -0.06547  -0.05192  -0.01710  -0.00253
 Alpha virt. eigenvalues --    0.00672   0.00839   0.02504   0.03102   0.03390
 Alpha virt. eigenvalues --    0.03999   0.04465   0.04677   0.05242   0.05656

 Mulliken charges:
               1
     1  O   -0.175721
     2  O   -0.218248
     3  O   -0.220227
     4  O   -0.181537
     5  O   -0.125088
     6  O   -0.255908
     7  N    0.016884
     8  N   -0.158882
     9  N   -0.126752
    10  N   -0.347215
    11  C   -0.104329
    12  C    0.103198
    13  C   -0.159109
    14  C    0.023587
    15  C    0.012471
    16  C    0.061641
    17  C   -0.137551
    18  C   -0.136025
    19  C    0.236179
    20  C   -0.139534
    21  C    0.108012
    22  C    0.129379
    23  C   -0.023829
    24  C   -0.025092
    25  C   -0.129803
    26  C   -0.068409
    27  C    0.084408
    28  C   -0.035692
    29  C   -0.110672
    30  C   -0.005932
    31  C   -0.091950
    32  C    0.054331
    33  C   -0.112456
    34  C    0.074282
    35  C   -0.111796
    36  C   -0.134136
    37  C    0.142718
    38  C   -0.029347
    39  C    0.128552
    40  C    0.139058
    41  C    0.154911
    42  C    0.070763
    43  C   -0.069834
    44  H    0.166835
    45  H    0.019628
    46  H   -0.035931
    47  H   -0.042951
    48  H    0.068879
    49  H    0.025450
    50  H    0.017081
    51  H    0.042319
    52  H    0.188057
    53  H    0.043568
    54  H    0.068796
    55  H    0.050816
    56  H    0.141115
    57  H    0.027637
    58  H    0.049716
    59  H    0.090468
    60  H    0.045742
    61  H    0.057757
    62  H    0.040048
    63  H    0.073882
    64  H   -0.082744
    65  H    0.008938
    66  H    0.042422
    67  H    0.016189
    68  H    0.033695
    69  H    0.097198
    70  H    0.045133
    71  H    0.042283
    72  H   -0.041013
    73  H    0.024321
    74  H    0.012032
    75  H    0.024897
    76  H    0.022884
    77  H    0.023910
    78  H    0.007926
    79  H    0.047048
    80  H    0.248936
    81  H    0.181736
 Sum of Mulliken charges =  -0.00000

 Dipole moment (field-independent basis, Debye):
    X=             -2.5881    Y=             -0.1817    Z=             -0.4100  Tot=              2.6267
 Quadrupole moment (field-independent basis, Debye-Ang):
   XX=           -247.8766   YY=           -247.2254   ZZ=           -254.4133
   XY=             18.8189   XZ=             14.8095   YZ=            -14.9813

 Normal termination of Gaussian 16 at Mon Jul  1 22:05:55 2019.
