 Gaussian 16, Revision A.03,
 Gaussian 16:  ES64L-G16RevA.03 25-Dec-2016

 --------------------------
 # td=(NStates=1) B3LYP/SVP
 --------------------------

 --
 TD
 --
 Symbolic Z-matrix:
 Charge =  0 Multiplicity = 1

                         Standard orientation:
 ---------------------------------------------------------------------
 Center     Atomic      Atomic             Coordinates (Angstroms)
 Number     Number       Type             X           Y           Z
 ---------------------------------------------------------------------
      1          8           0        4.228911   -4.964381   -1.628556
      2          8           0       -2.996017   -4.889628   -1.141737
      3          8           0       -6.919943   -1.590276   -1.763317
      4          8           0       -3.785843   -3.067130   -0.000320
      5          8           0       -7.466157   -0.826409    0.304020
      6          8           0        3.020915    2.332341    0.492220
      7          7           0        0.315655   -0.479579    0.612799
      8          7           0       -1.554726    1.955399    0.269595
      9          7           0        3.261627   -3.140540   -0.728040
     10          7           0        0.845233    2.955202    0.055976
     11          6           0       -0.629953   -2.406559    1.263983
     12          6           0       -0.951144   -1.113951    0.937216
     13          6           0        0.824485   -2.642067    1.193544
     14          6           0        1.298408   -1.346797    0.655014
     15          6           0       -3.847129    1.485250    0.249538
     16          6           0       -2.437060    0.910854    0.437383
     17          6           0       -2.154262   -0.366518    0.943492
     18          6           0       -3.541707    2.851625   -0.226370
     19          6           0       -1.683745   -3.378747    1.906710
     20          6           0        5.525186   -2.909315   -1.244283
     21          6           0        3.527797   -1.901558   -0.138461
     22          6           0       -2.121549    3.105128   -0.106833
     23          6           0        5.011351   -1.685441   -0.426680
     24          6           0       -5.035724    0.765156    0.369368
     25          6           0        2.671277   -1.011960    0.322526
     26          6           0        1.504342   -3.813783    1.530996
     27          6           0        4.341424   -3.869966   -1.243190
     28          6           0       -2.173026   -4.470301    1.042230
     29          6           0       -5.340002   -0.076306   -0.868600
     30          6           0       -4.487392    3.963091   -0.512679
     31          6           0       -1.252807    4.171086   -0.499195
     32          6           0        6.854467   -3.446458   -0.762101
     33          6           0        5.797655   -0.568325   -0.127841
     34          6           0        0.115902    4.121803   -0.314486
     35          6           0        1.081108    5.218414   -0.487018
     36          6           0        2.341908    4.685612   -0.265613
     37          6           0       -3.128586   -4.069957   -0.109352
     38          6           0        5.332329    0.680500    0.547947
     39          6           0       -6.619084   -0.839252   -0.552699
     40          6           0        3.626546    5.315230   -0.176793
     41          6           0        2.147667    3.282181    0.104960
     42          6           0        0.601509    6.535893   -0.893814
     43          6           0        4.175176    5.587326    1.254804
     44          1           0        0.319228    0.490254    0.338051
     45          1           0       -2.990230   -1.035327    1.009262
     46          1           0       -2.717578   -2.768764    2.413316
     47          1           0       -1.007285   -3.576991    2.776748
     48          1           0        5.834924   -2.704737   -2.339066
     49          1           0       -5.238096    0.186109    1.251815
     50          1           0       -5.806238    1.650740    0.491390
     51          1           0        2.907448    0.006989    0.575694
     52          1           0       -0.586336    1.918041    0.461686
     53          1           0        1.245697   -4.659730    0.997752
     54          1           0        2.621835   -3.528106    1.771016
     55          1           0        1.165352   -4.317239    2.725329
     56          1           0        2.439420   -3.606950   -0.510397
     57          1           0       -1.346018   -5.235796    0.736392
     58          1           0       -2.767336   -5.267413    1.661034
     59          1           0       -4.581550   -0.807319   -1.029052
     60          1           0       -5.322528    0.353203   -2.026932
     61          1           0       -4.638562    4.656372    0.355666
     62          1           0       -5.519010    3.502649   -0.695701
     63          1           0       -4.260461    4.781455   -1.402200
     64          1           0       -1.640128    5.007078   -0.711718
     65          1           0        7.653456   -2.949272   -1.335069
     66          1           0        6.985451   -4.525666   -1.137426
     67          1           0        7.063445   -3.534565    0.357294
     68          1           0        6.812660   -0.434869   -0.472603
     69          1           0        4.784057    1.239899   -0.219897
     70          1           0        6.253363    1.445461    0.855270
     71          1           0        4.488653    0.460827    1.487377
     72          1           0        3.663279    6.121867   -0.601364
     73          1           0        4.378843    4.720231   -0.723583
     74          1           0       -0.102770    6.300780   -1.701014
     75          1           0        1.503258    7.214270   -1.030130
     76          1           0        0.055124    6.937808   -0.195046
     77          1           0        3.429674    6.304654    1.714232
     78          1           0        5.113869    6.014000    1.237908
     79          1           0        4.109520    4.541203    1.832294
     80          1           0       -3.546509   -4.481592   -1.823791
     81          1           0       -7.739568   -1.980371   -1.487533
 ---------------------------------------------------------------------

 SCF Done:  E(RB3LYP) =  -1949.03714799     A.U. after   25 cycles

 Excitation energies and oscillator strengths:

 Excited State   1:      Singlet-A      1.6897 eV  733.74 nm  f=0.2124  <S**2>=0.000
     154 ->157        -0.12702
     156 ->157         0.69370
     156 <-157        -0.10876
 This state for optimization and/or second-order correction.
 Total Energy, E(TD-HF/TD-DFT) =  -1948.97505097
 Copying the excited state density for this state as the 1-particle RhoCI density.

 The electronic state is 1-A.
 Alpha  occ. eigenvalues --  -19.21625 -19.16027 -19.15362 -19.15130 -19.11633
 Alpha  occ. eigenvalues --  -19.07726 -14.37910 -14.36592 -14.35805 -14.27517
 Alpha  occ. eigenvalues --  -10.34621 -10.33163 -10.29060 -10.24839 -10.24551
 Alpha  occ. eigenvalues --  -10.24488 -10.24403 -10.24259 -10.23239 -10.23007
 Alpha  occ. eigenvalues --  -10.22903 -10.22808 -10.22449 -10.22263 -10.22059
 Alpha  occ. eigenvalues --  -10.21925 -10.21599 -10.21549 -10.21425 -10.21033
 Alpha  occ. eigenvalues --  -10.20983 -10.20440 -10.20364 -10.20007 -10.19254
 Alpha  occ. eigenvalues --  -10.19243 -10.18850 -10.18359 -10.18212 -10.18144
 Alpha  occ. eigenvalues --  -10.17922 -10.17632 -10.15916  -1.13297  -1.08723
 Alpha  occ. eigenvalues --   -1.06335  -1.04376  -0.99849  -0.99336  -0.98397
 Alpha  occ. eigenvalues --   -0.95160  -0.94883  -0.88387  -0.83885  -0.82559
 Alpha  occ. eigenvalues --   -0.81761  -0.80462  -0.79917  -0.79566  -0.78271
 Alpha  occ. eigenvalues --   -0.77914  -0.77565  -0.76031  -0.74332  -0.73372
 Alpha  occ. eigenvalues --   -0.71955  -0.69522  -0.69104  -0.68603  -0.68210
 Alpha  occ. eigenvalues --   -0.67879  -0.65873  -0.63648  -0.62327  -0.61718
 Alpha  occ. eigenvalues --   -0.60977  -0.59783  -0.58219  -0.57512  -0.57338
 Alpha  occ. eigenvalues --   -0.56558  -0.56164  -0.54821  -0.54400  -0.53361
 Alpha  occ. eigenvalues --   -0.52664  -0.52042  -0.51427  -0.51201  -0.50209
 Alpha  occ. eigenvalues --   -0.49816  -0.49491  -0.48946  -0.48512  -0.48385
 Alpha  occ. eigenvalues --   -0.47293  -0.46812  -0.46572  -0.46220  -0.46025
 Alpha  occ. eigenvalues --   -0.45537  -0.45334  -0.44567  -0.44331  -0.44181
 Alpha  occ. eigenvalues --   -0.43887  -0.43585  -0.43439  -0.43061  -0.42764
 Alpha  occ. eigenvalues --   -0.42540  -0.42337  -0.42116  -0.41805  -0.41634
 Alpha  occ. eigenvalues --   -0.41001  -0.40547  -0.40434  -0.40258  -0.39675
 Alpha  occ. eigenvalues --   -0.39439  -0.39262  -0.38494  -0.38334  -0.38068
 Alpha  occ. eigenvalues --   -0.37695  -0.37003  -0.36800  -0.36286  -0.35900
 Alpha  occ. eigenvalues --   -0.35825  -0.35538  -0.35469  -0.34765  -0.34496
 Alpha  occ. eigenvalues --   -0.34412  -0.33886  -0.33501  -0.33151  -0.32945
 Alpha  occ. eigenvalues --   -0.31966  -0.31855  -0.31097  -0.30522  -0.29764
 Alpha  occ. eigenvalues --   -0.29315  -0.26754  -0.26081  -0.25520  -0.25108
 Alpha  occ. eigenvalues --   -0.24737  -0.23794  -0.22755  -0.22317  -0.21092
 Alpha  occ. eigenvalues --   -0.18248
 Alpha virt. eigenvalues --   -0.11164  -0.06215  -0.04139  -0.02377  -0.01591
 Alpha virt. eigenvalues --   -0.00299   0.01268   0.01820   0.02812   0.03354
 Alpha virt. eigenvalues --    0.03737   0.03970   0.04875   0.05580   0.06617

 Mulliken charges:
               1
     1  O   -0.146456
     2  O   -0.130794
     3  O   -0.254280
     4  O   -0.214055
     5  O   -0.202395
     6  O   -0.344890
     7  N   -0.051601
     8  N   -0.010069
     9  N   -0.108431
    10  N   -0.311290
    11  C   -0.089081
    12  C    0.043448
    13  C   -0.133455
    14  C    0.046278
    15  C   -0.057685
    16  C    0.031515
    17  C    0.012774
    18  C   -0.106224
    19  C    0.005911
    20  C   -0.089624
    21  C    0.162220
    22  C    0.078742
    23  C   -0.011913
    24  C    0.069101
    25  C   -0.113993
    26  C   -0.023935
    27  C    0.128063
    28  C   -0.019897
    29  C   -0.018321
    30  C   -0.017042
    31  C    0.010719
    32  C    0.010098
    33  C   -0.113286
    34  C    0.086346
    35  C   -0.129855
    36  C   -0.177934
    37  C    0.141102
    38  C   -0.033536
    39  C    0.176159
    40  C    0.226388
    41  C    0.167988
    42  C    0.209606
    43  C   -0.018045
    44  H    0.121180
    45  H    0.004613
    46  H    0.050215
    47  H    0.035281
    48  H    0.051165
    49  H    0.029240
    50  H    0.030914
    51  H    0.017546
    52  H    0.103185
    53  H    0.030860
    54  H    0.071756
    55  H    0.020334
    56  H    0.090947
    57  H    0.034608
    58  H    0.049269
    59  H    0.028732
    60  H    0.082307
    61  H    0.038641
    62  H    0.026208
    63  H    0.044981
    64  H   -0.136192
    65  H    0.012757
    66  H    0.020732
    67  H    0.031313
    68  H   -0.007881
    69  H    0.070203
    70  H    0.023086
    71  H    0.071832
    72  H   -0.122004
    73  H   -0.006443
    74  H    0.026782
    75  H    0.022169
    76  H   -0.034032
    77  H    0.003797
    78  H    0.000279
    79  H    0.052616
    80  H    0.180497
    81  H    0.150133
 Sum of Mulliken charges =  -0.00000

 Dipole moment (field-independent basis, Debye):
    X=             -3.1336    Y=              0.0689    Z=             -0.8341  Tot=              3.2434
 Quadrupole moment (field-independent basis, Debye-Ang):
   XX=           -253.9645   YY=           -236.3566   ZZ=           -256.6020
   XY=              9.1814   XZ=              5.6869   YZ=            -11.3519

 Normal termination of Gaussian 16 at Sun Jun 30 16:17:04 2019.
