 Gaussian 16, Revision A.03,
 Gaussian 16:  ES64L-G16RevA.03 25-Dec-2016

 --------------------------
 # td=(NStates=1) B3LYP/SVP
 --------------------------

 --
 TD
 --
 Symbolic Z-matrix:
 Charge =  0 Multiplicity = 1

                         Standard orientation:
 ---------------------------------------------------------------------
 Center     Atomic      Atomic             Coordinates (Angstroms)
 Number     Number       Type             X           Y           Z
 ---------------------------------------------------------------------
      1          8           0        4.129517   -4.954312   -1.776411
      2          8           0       -3.133481   -4.582378   -1.207752
      3          8           0       -7.091896   -1.453042   -1.633375
      4          8           0       -4.133648   -2.941032    0.047798
      5          8           0       -7.590534   -0.406491    0.229911
      6          8           0        3.158726    2.330103    0.494583
      7          7           0        0.261381   -0.506795    0.649501
      8          7           0       -1.449383    1.843392    0.241077
      9          7           0        3.161478   -3.097297   -0.800499
     10          7           0        0.918995    2.925531    0.082203
     11          6           0       -0.695353   -2.404736    1.418674
     12          6           0       -0.965618   -1.077255    0.899076
     13          6           0        0.702491   -2.612711    1.239278
     14          6           0        1.272319   -1.441817    0.715144
     15          6           0       -3.701862    1.545870    0.204527
     16          6           0       -2.458353    0.838554    0.427056
     17          6           0       -2.254720   -0.506962    0.753250
     18          6           0       -3.479309    2.871312   -0.186998
     19          6           0       -1.731604   -3.371478    1.934190
     20          6           0        5.444551   -2.881796   -1.351318
     21          6           0        3.518862   -1.809393   -0.337549
     22          6           0       -1.925442    3.024469   -0.074678
     23          6           0        4.976625   -1.746394   -0.552238
     24          6           0       -5.174407    0.964916    0.358887
     25          6           0        2.612182   -1.065760    0.376109
     26          6           0        1.544425   -3.929027    1.749555
     27          6           0        4.153658   -3.809174   -1.386762
     28          6           0       -2.239769   -4.310083    1.007395
     29          6           0       -5.449273   -0.012993   -0.800893
     30          6           0       -4.404511    4.005299   -0.462576
     31          6           0       -1.152331    4.126414   -0.408362
     32          6           0        6.655877   -3.732844   -0.886316
     33          6           0        5.803917   -0.810194    0.063375
     34          6           0        0.282054    4.023971   -0.284723
     35          6           0        1.249565    5.081528   -0.474691
     36          6           0        2.551945    4.600389   -0.239095
     37          6           0       -3.229379   -3.855755   -0.047046
     38          6           0        5.482423    0.414791    0.834567
     39          6           0       -6.759849   -0.662627   -0.630606
     40          6           0        3.923439    5.142063   -0.256360
     41          6           0        2.253126    3.102361    0.121386
     42          6           0        0.832020    6.533693   -0.911006
     43          6           0        4.415118    5.518497    1.128307
     44          1           0        0.420550    0.430452    0.289174
     45          1           0       -3.101238   -1.198305    0.917224
     46          1           0       -2.455547   -2.568301    2.279735
     47          1           0       -1.161510   -3.928094    2.865035
     48          1           0        5.495339   -2.589105   -2.462774
     49          1           0       -5.255894    0.616208    1.262969
     50          1           0       -5.860926    1.872570    0.439156
     51          1           0        2.903280    0.058821    0.538030
     52          1           0       -0.302316    1.798926    0.295238
     53          1           0        1.202811   -4.784592    1.187779
     54          1           0        2.651493   -3.828819    1.570029
     55          1           0        1.258132   -4.088780    2.718419
     56          1           0        2.289990   -3.505436   -0.627484
     57          1           0       -1.388444   -4.907871    0.703105
     58          1           0       -2.913031   -5.059211    1.564724
     59          1           0       -4.800219   -0.788619   -1.001618
     60          1           0       -5.691922    0.752649   -1.726454
     61          1           0       -4.444145    4.727348    0.224513
     62          1           0       -5.436853    3.547128   -0.963056
     63          1           0       -3.736867    4.365046   -1.440348
     64          1           0       -1.472705    5.135987   -0.558761
     65          1           0        7.706513   -3.187318   -1.008429
     66          1           0        6.670783   -4.696345   -1.319062
     67          1           0        6.905963   -3.804252    0.278087
     68          1           0        6.868708   -0.805127   -0.387261
     69          1           0        4.852184    1.081278    0.295120
     70          1           0        6.373186    0.937575    1.226254
     71          1           0        4.683382    0.014119    1.582969
     72          1           0        3.869786    6.027176   -0.940718
     73          1           0        4.585377    4.347770   -0.628000
     74          1           0        0.257451    6.366414   -1.767813
     75          1           0        1.656427    7.095825   -0.950576
     76          1           0        0.260308    6.970463   -0.103828
     77          1           0        3.892959    6.177914    1.767338
     78          1           0        5.397489    5.946400    0.930226
     79          1           0        4.561589    4.764966    1.901180
     80          1           0       -3.904367   -4.246330   -1.530371
     81          1           0       -8.111384   -1.663890   -1.501107
 ---------------------------------------------------------------------

 SCF Done:  E(RB3LYP) =  -1949.12120577     A.U. after   16 cycles

 Excitation energies and oscillator strengths:

 Excited State   1:      Singlet-A      1.7949 eV  690.76 nm  f=0.2707  <S**2>=0.000
     156 ->157         0.70471
 This state for optimization and/or second-order correction.
 Total Energy, E(TD-HF/TD-DFT) =  -1949.05524477
 Copying the excited state density for this state as the 1-particle RhoCI density.

 The electronic state is 1-A.
 Alpha  occ. eigenvalues --  -19.20698 -19.18218 -19.15941 -19.11219 -19.10985
 Alpha  occ. eigenvalues --  -19.10522 -14.38067 -14.36530 -14.36454 -14.29810
 Alpha  occ. eigenvalues --  -10.35942 -10.30853 -10.28498 -10.27158 -10.24740
 Alpha  occ. eigenvalues --  -10.24355 -10.24013 -10.23669 -10.23480 -10.23427
 Alpha  occ. eigenvalues --  -10.23223 -10.22416 -10.21958 -10.21676 -10.21061
 Alpha  occ. eigenvalues --  -10.20837 -10.20825 -10.20573 -10.20398 -10.20334
 Alpha  occ. eigenvalues --  -10.20269 -10.20158 -10.19921 -10.19902 -10.19742
 Alpha  occ. eigenvalues --  -10.19675 -10.19587 -10.19386 -10.19380 -10.19353
 Alpha  occ. eigenvalues --  -10.18225 -10.17510 -10.17331  -1.12932  -1.09585
 Alpha  occ. eigenvalues --   -1.03328  -1.00896  -1.00736  -0.98723  -0.98643
 Alpha  occ. eigenvalues --   -0.97313  -0.95470  -0.93292  -0.84454  -0.81927
 Alpha  occ. eigenvalues --   -0.81213  -0.80774  -0.79651  -0.78800  -0.78409
 Alpha  occ. eigenvalues --   -0.77596  -0.76651  -0.75455  -0.74247  -0.72555
 Alpha  occ. eigenvalues --   -0.71287  -0.69768  -0.69527  -0.69145  -0.67942
 Alpha  occ. eigenvalues --   -0.67204  -0.66028  -0.64145  -0.63333  -0.62220
 Alpha  occ. eigenvalues --   -0.61510  -0.59306  -0.58523  -0.58175  -0.57461
 Alpha  occ. eigenvalues --   -0.56182  -0.55269  -0.54842  -0.53660  -0.53159
 Alpha  occ. eigenvalues --   -0.53000  -0.52244  -0.51936  -0.51408  -0.49792
 Alpha  occ. eigenvalues --   -0.49625  -0.49520  -0.48609  -0.48094  -0.47447
 Alpha  occ. eigenvalues --   -0.47157  -0.46775  -0.46083  -0.46041  -0.45531
 Alpha  occ. eigenvalues --   -0.45274  -0.44852  -0.44515  -0.44115  -0.44062
 Alpha  occ. eigenvalues --   -0.43549  -0.43376  -0.43225  -0.43120  -0.43082
 Alpha  occ. eigenvalues --   -0.42628  -0.42349  -0.41799  -0.41660  -0.41606
 Alpha  occ. eigenvalues --   -0.41373  -0.40745  -0.40532  -0.40335  -0.40035
 Alpha  occ. eigenvalues --   -0.39662  -0.39574  -0.39069  -0.38765  -0.38497
 Alpha  occ. eigenvalues --   -0.38323  -0.37872  -0.37732  -0.37196  -0.36715
 Alpha  occ. eigenvalues --   -0.36529  -0.35486  -0.35186  -0.34996  -0.34683
 Alpha  occ. eigenvalues --   -0.34416  -0.33940  -0.33847  -0.33595  -0.33104
 Alpha  occ. eigenvalues --   -0.32739  -0.31859  -0.31345  -0.30963  -0.30540
 Alpha  occ. eigenvalues --   -0.27851  -0.27155  -0.26392  -0.25861  -0.25577
 Alpha  occ. eigenvalues --   -0.24835  -0.24251  -0.24045  -0.23185  -0.22087
 Alpha  occ. eigenvalues --   -0.18037
 Alpha virt. eigenvalues --   -0.10636  -0.06346  -0.04609  -0.04013   0.00072
 Alpha virt. eigenvalues --    0.00990   0.01913   0.03169   0.03602   0.03807
 Alpha virt. eigenvalues --    0.04476   0.04815   0.05535   0.06161   0.06653

 Mulliken charges:
               1
     1  O   -0.212331
     2  O   -0.113939
     3  O   -0.206419
     4  O   -0.301276
     5  O   -0.261368
     6  O   -0.245995
     7  N   -0.060846
     8  N   -0.166700
     9  N   -0.093453
    10  N   -0.274192
    11  C   -0.159186
    12  C    0.049982
    13  C   -0.180747
    14  C    0.068436
    15  C   -0.134997
    16  C    0.139690
    17  C   -0.082723
    18  C   -0.132033
    19  C    0.027683
    20  C   -0.034141
    21  C    0.105028
    22  C    0.108861
    23  C   -0.045137
    24  C    0.191928
    25  C   -0.170983
    26  C    0.108473
    27  C    0.087183
    28  C    0.123271
    29  C    0.029810
    30  C    0.042699
    31  C   -0.102403
    32  C    0.010185
    33  C   -0.158014
    34  C    0.055326
    35  C   -0.186863
    36  C   -0.191371
    37  C    0.155385
    38  C    0.073134
    39  C    0.111837
    40  C    0.121511
    41  C    0.159654
    42  C    0.218405
    43  C    0.019659
    44  H    0.112224
    45  H    0.025193
    46  H    0.034158
    47  H    0.035201
    48  H    0.051923
    49  H   -0.039015
    50  H    0.011793
    51  H    0.061528
    52  H    0.208610
    53  H    0.012770
    54  H    0.050407
    55  H    0.004260
    56  H    0.104753
    57  H    0.025176
    58  H    0.060795
    59  H    0.024513
    60  H    0.063677
    61  H    0.022024
    62  H    0.054679
    63  H    0.046644
    64  H   -0.031339
    65  H    0.014537
    66  H    0.036597
    67  H    0.021670
    68  H    0.008908
    69  H    0.054675
    70  H    0.020009
    71  H    0.036643
    72  H    0.007909
    73  H    0.016821
    74  H    0.017961
    75  H   -0.032746
    76  H    0.009050
    77  H   -0.009548
    78  H    0.002614
    79  H    0.013356
    80  H    0.134484
    81  H    0.214065
 Sum of Mulliken charges =  -0.00000

 Dipole moment (field-independent basis, Debye):
    X=             -2.5884    Y=              1.4180    Z=             -0.0802  Tot=              2.9525
 Quadrupole moment (field-independent basis, Debye-Ang):
   XX=           -256.8911   YY=           -238.3427   ZZ=           -256.9231
   XY=             19.7982   XZ=             15.0023   YZ=            -15.4423

 Normal termination of Gaussian 16 at Wed Jul  3 09:48:45 2019.
