 Gaussian 16, Revision A.03,
 Gaussian 16:  ES64L-G16RevA.03 25-Dec-2016

 --------------------------
 # td=(NStates=1) B3LYP/SVP
 --------------------------

 --
 TD
 --
 Symbolic Z-matrix:
 Charge =  0 Multiplicity = 1

                         Standard orientation:
 ---------------------------------------------------------------------
 Center     Atomic      Atomic             Coordinates (Angstroms)
 Number     Number       Type             X           Y           Z
 ---------------------------------------------------------------------
      1          8           0       -4.347887   -4.800768    1.971807
      2          8           0        2.937128   -4.801930    1.067498
      3          8           0        6.898771   -1.597244    2.040629
      4          8           0        3.992326   -3.252767   -0.233220
      5          8           0        7.689299   -0.661522    0.058492
      6          8           0       -2.939291    2.480907   -0.515361
      7          7           0       -0.302200   -0.554628   -0.575191
      8          7           0        1.600530    1.824910   -0.487967
      9          7           0       -3.401029   -2.957667    0.762878
     10          7           0       -0.694217    2.931382   -0.185263
     11          6           0        0.497301   -2.416687   -1.477354
     12          6           0        0.895821   -1.138821   -1.058776
     13          6           0       -0.819419   -2.603572   -1.179302
     14          6           0       -1.385597   -1.366711   -0.763959
     15          6           0        3.803948    1.405023   -0.379539
     16          6           0        2.474669    0.808982   -0.524608
     17          6           0        2.121483   -0.523588   -0.878063
     18          6           0        3.582143    2.728228    0.034725
     19          6           0        1.525299   -3.426368   -2.003632
     20          6           0       -5.666396   -2.668881    1.354305
     21          6           0       -3.691605   -1.732971    0.246675
     22          6           0        2.236969    2.999908   -0.083178
     23          6           0       -5.131043   -1.401268    0.562552
     24          6           0        5.172209    0.732943   -0.282172
     25          6           0       -2.701869   -0.926181   -0.407239
     26          6           0       -1.737167   -3.825538   -1.651470
     27          6           0       -4.460564   -3.664541    1.478916
     28          6           0        2.104842   -4.575621   -1.028139
     29          6           0        5.408482   -0.155516    0.796426
     30          6           0        4.608581    3.781622    0.307749
     31          6           0        1.410164    4.032404    0.335313
     32          6           0       -6.894571   -3.328167    0.733640
     33          6           0       -5.889084   -0.393072    0.085521
     34          6           0        0.004475    4.017250    0.152593
     35          6           0       -0.975121    5.117350    0.520759
     36          6           0       -2.170269    4.698490    0.264068
     37          6           0        3.099637   -4.032960   -0.029469
     38          6           0       -5.513491    0.750955   -0.709112
     39          6           0        6.865725   -0.802313    0.935335
     40          6           0       -3.518093    5.291384    0.417309
     41          6           0       -1.990786    3.237901   -0.246519
     42          6           0       -0.549466    6.485137    0.901073
     43          6           0       -4.207443    5.441243   -0.977573
     44          1           0       -0.391280    0.415690   -0.229012
     45          1           0        2.853441   -1.095542   -1.114218
     46          1           0        2.245082   -2.803702   -2.473492
     47          1           0        1.033004   -4.151213   -2.801733
     48          1           0       -5.892987   -2.491289    2.374103
     49          1           0        5.292789   -0.052143   -1.075749
     50          1           0        5.747003    1.596162   -0.450911
     51          1           0       -3.038132    0.058100   -0.492567
     52          1           0        0.666835    1.722120   -0.398573
     53          1           0       -1.766289   -4.680017   -1.058678
     54          1           0       -2.746347   -3.357798   -1.684998
     55          1           0       -1.516916   -4.170761   -2.712122
     56          1           0       -2.505624   -3.382749    0.781359
     57          1           0        1.088591   -5.045816   -0.521632
     58          1           0        2.418689   -5.508482   -1.557338
     59          1           0        4.699964   -1.108198    0.762700
     60          1           0        5.263565    0.586632    1.684267
     61          1           0        4.606368    4.520568   -0.528726
     62          1           0        5.667669    3.585583    0.312197
     63          1           0        4.526026    4.202410    1.362729
     64          1           0        1.763547    4.973684    0.681055
     65          1           0       -7.836257   -2.612981    0.832214
     66          1           0       -6.995622   -4.240006    1.270524
     67          1           0       -7.081246   -3.322372   -0.373443
     68          1           0       -6.802295   -0.513564    0.516226
     69          1           0       -5.314868    1.477953   -0.015499
     70          1           0       -6.327487    1.038082   -1.604062
     71          1           0       -4.558321    0.342423   -1.296402
     72          1           0       -3.462947    6.266047    1.165402
     73          1           0       -3.912631    4.643701    1.052148
     74          1           0        0.197345    6.304173    1.814580
     75          1           0       -1.545693    6.927581    1.346392
     76          1           0       -0.000180    7.030013    0.181449
     77          1           0       -3.473864    6.143906   -1.737010
     78          1           0       -5.242733    5.751560   -0.733037
     79          1           0       -4.318899    4.484643   -1.487824
     80          1           0        3.535970   -4.539685    1.588655
     81          1           0        7.801794   -1.912376    2.219941
 ---------------------------------------------------------------------

 SCF Done:  E(RB3LYP) =  -1949.06937590     A.U. after   17 cycles

 Excitation energies and oscillator strengths:

 Excited State   1:      Singlet-A      1.7972 eV  689.87 nm  f=0.4235  <S**2>=0.000
     156 ->157         0.71477
     156 <-157        -0.14461
 This state for optimization and/or second-order correction.
 Total Energy, E(TD-HF/TD-DFT) =  -1949.00332929
 Copying the excited state density for this state as the 1-particle RhoCI density.

 The electronic state is 1-A.
 Alpha  occ. eigenvalues --  -19.19136 -19.19115 -19.15585 -19.13602 -19.13294
 Alpha  occ. eigenvalues --  -19.09073 -14.37821 -14.37527 -14.34785 -14.27871
 Alpha  occ. eigenvalues --  -10.34143 -10.32671 -10.31465 -10.25740 -10.25244
 Alpha  occ. eigenvalues --  -10.24195 -10.23200 -10.23115 -10.23086 -10.22958
 Alpha  occ. eigenvalues --  -10.22126 -10.22123 -10.21746 -10.21331 -10.20881
 Alpha  occ. eigenvalues --  -10.20649 -10.20281 -10.20194 -10.20087 -10.19974
 Alpha  occ. eigenvalues --  -10.19965 -10.19931 -10.19681 -10.19614 -10.19399
 Alpha  occ. eigenvalues --  -10.19362 -10.19005 -10.19003 -10.18795 -10.18439
 Alpha  occ. eigenvalues --  -10.18045 -10.17583 -10.16687  -1.14002  -1.09114
 Alpha  occ. eigenvalues --   -1.04592  -1.03288  -1.01441  -0.99622  -0.98945
 Alpha  occ. eigenvalues --   -0.97915  -0.95660  -0.91725  -0.82731  -0.82383
 Alpha  occ. eigenvalues --   -0.82110  -0.81291  -0.79761  -0.79165  -0.78005
 Alpha  occ. eigenvalues --   -0.77596  -0.77062  -0.75329  -0.74205  -0.72311
 Alpha  occ. eigenvalues --   -0.71219  -0.70069  -0.69260  -0.68794  -0.67754
 Alpha  occ. eigenvalues --   -0.67156  -0.66060  -0.65407  -0.63015  -0.61996
 Alpha  occ. eigenvalues --   -0.61637  -0.60601  -0.59381  -0.58442  -0.57918
 Alpha  occ. eigenvalues --   -0.56559  -0.55059  -0.54821  -0.54284  -0.53838
 Alpha  occ. eigenvalues --   -0.52156  -0.51713  -0.51355  -0.50939  -0.50117
 Alpha  occ. eigenvalues --   -0.49504  -0.48989  -0.48959  -0.48243  -0.47970
 Alpha  occ. eigenvalues --   -0.47014  -0.46835  -0.46044  -0.45901  -0.45253
 Alpha  occ. eigenvalues --   -0.44907  -0.44486  -0.44145  -0.44040  -0.43818
 Alpha  occ. eigenvalues --   -0.43632  -0.43282  -0.43142  -0.42785  -0.42441
 Alpha  occ. eigenvalues --   -0.42355  -0.42081  -0.41687  -0.41583  -0.41336
 Alpha  occ. eigenvalues --   -0.41185  -0.41100  -0.40574  -0.40340  -0.40207
 Alpha  occ. eigenvalues --   -0.40064  -0.39467  -0.39367  -0.38306  -0.38092
 Alpha  occ. eigenvalues --   -0.37708  -0.37259  -0.37030  -0.36659  -0.36205
 Alpha  occ. eigenvalues --   -0.35544  -0.35498  -0.35260  -0.35043  -0.34683
 Alpha  occ. eigenvalues --   -0.34580  -0.33951  -0.33338  -0.33137  -0.32950
 Alpha  occ. eigenvalues --   -0.32506  -0.32215  -0.31866  -0.30796  -0.29923
 Alpha  occ. eigenvalues --   -0.27639  -0.27547  -0.27014  -0.26388  -0.26320
 Alpha  occ. eigenvalues --   -0.25683  -0.25200  -0.23627  -0.22635  -0.21745
 Alpha  occ. eigenvalues --   -0.17383
 Alpha virt. eigenvalues --   -0.10532  -0.05492  -0.03827  -0.02646  -0.01436
 Alpha virt. eigenvalues --    0.00207   0.02001   0.03170   0.03922   0.04247
 Alpha virt. eigenvalues --    0.04661   0.04845   0.05430   0.05838   0.06491

 Mulliken charges:
               1
     1  O   -0.219260
     2  O   -0.069330
     3  O   -0.191976
     4  O   -0.206259
     5  O   -0.208977
     6  O   -0.250215
     7  N   -0.114398
     8  N    0.011575
     9  N   -0.130528
    10  N   -0.248370
    11  C   -0.075101
    12  C    0.081406
    13  C   -0.180551
    14  C    0.115907
    15  C   -0.094580
    16  C    0.021127
    17  C    0.063084
    18  C   -0.123727
    19  C    0.076002
    20  C   -0.028163
    21  C    0.032839
    22  C    0.150390
    23  C   -0.044737
    24  C    0.164759
    25  C   -0.042403
    26  C    0.054589
    27  C    0.172308
    28  C   -0.053509
    29  C   -0.078493
    30  C    0.058640
    31  C   -0.092887
    32  C    0.017999
    33  C   -0.092529
    34  C    0.044339
    35  C   -0.116742
    36  C   -0.186598
    37  C    0.154226
    38  C    0.089542
    39  C    0.156917
    40  C    0.115540
    41  C    0.123345
    42  C    0.066484
    43  C   -0.026766
    44  H    0.138365
    45  H   -0.123100
    46  H    0.017101
    47  H    0.015128
    48  H    0.026478
    49  H    0.003617
    50  H   -0.004490
    51  H   -0.023703
    52  H    0.050236
    53  H    0.012151
    54  H    0.030300
    55  H    0.030955
    56  H    0.121453
    57  H    0.051549
    58  H    0.061138
    59  H    0.076701
    60  H    0.024308
    61  H    0.036506
    62  H   -0.000933
    63  H    0.031042
    64  H   -0.048874
    65  H    0.015545
    66  H    0.036835
    67  H    0.025980
    68  H   -0.051887
    69  H    0.040657
    70  H    0.040300
    71  H    0.060701
    72  H   -0.000692
    73  H   -0.031056
    74  H    0.019962
    75  H    0.027482
    76  H    0.028445
    77  H    0.039094
    78  H    0.014793
    79  H    0.039072
    80  H    0.089944
    81  H    0.183980
 Sum of Mulliken charges =  -0.00000

 Dipole moment (field-independent basis, Debye):
    X=              1.1394    Y=             -1.4474    Z=              1.6832  Tot=              2.4953
 Quadrupole moment (field-independent basis, Debye-Ang):
   XX=           -240.2929   YY=           -247.5207   ZZ=           -253.8274
   XY=             -8.0319   XZ=             17.5774   YZ=             11.1625

 Normal termination of Gaussian 16 at Thu Jun 27 09:06:30 2019.
