 Gaussian 16, Revision A.03,
 Gaussian 16:  ES64L-G16RevA.03 25-Dec-2016

 --------------------------
 # td=(NStates=1) B3LYP/SVP
 --------------------------

 --
 TD
 --
 Symbolic Z-matrix:
 Charge =  0 Multiplicity = 1

                         Standard orientation:
 ---------------------------------------------------------------------
 Center     Atomic      Atomic             Coordinates (Angstroms)
 Number     Number       Type             X           Y           Z
 ---------------------------------------------------------------------
      1          8           0        4.262248   -4.919295   -1.733268
      2          8           0       -2.924518   -4.873529   -1.022090
      3          8           0       -6.843937   -1.862990   -1.857077
      4          8           0       -3.808447   -3.156641    0.077054
      5          8           0       -7.509612   -0.842038   -0.044037
      6          8           0        2.986237    2.530677    0.265878
      7          7           0        0.298620   -0.524995    0.456199
      8          7           0       -1.586906    1.796858    0.295412
      9          7           0        3.350344   -3.126140   -0.577149
     10          7           0        0.680290    2.931648   -0.086632
     11          6           0       -0.569331   -2.306804    1.403975
     12          6           0       -0.896287   -1.097229    0.979988
     13          6           0        0.837792   -2.551294    1.270019
     14          6           0        1.282520   -1.364234    0.617781
     15          6           0       -3.902069    1.537414    0.244472
     16          6           0       -2.557783    0.895518    0.526756
     17          6           0       -2.257431   -0.471475    0.889687
     18          6           0       -3.654506    2.798265   -0.120620
     19          6           0       -1.499162   -3.313384    2.112511
     20          6           0        5.536530   -2.891655   -1.253819
     21          6           0        3.648746   -1.921305   -0.122429
     22          6           0       -2.230111    3.014571   -0.039151
     23          6           0        5.007541   -1.675859   -0.493832
     24          6           0       -5.159702    0.874204    0.178977
     25          6           0        2.676056   -1.006990    0.330600
     26          6           0        1.624802   -3.731017    1.878870
     27          6           0        4.354326   -3.799605   -1.207126
     28          6           0       -1.965546   -4.488355    1.142012
     29          6           0       -5.327947   -0.183088   -0.915925
     30          6           0       -4.602889    3.968667   -0.365887
     31          6           0       -1.353411    4.130995   -0.348520
     32          6           0        6.834637   -3.498551   -0.949695
     33          6           0        5.735206   -0.475493   -0.265896
     34          6           0        0.053332    4.108868   -0.239932
     35          6           0        0.975908    5.226912   -0.428167
     36          6           0        2.203929    4.743371   -0.248472
     37          6           0       -3.030899   -4.009295    0.030116
     38          6           0        5.485538    0.690048    0.589190
     39          6           0       -6.658438   -1.000531   -0.804413
     40          6           0        3.580418    5.450100   -0.295670
     41          6           0        2.023882    3.280610    0.071063
     42          6           0        0.530834    6.634686   -0.554341
     43          6           0        4.352655    5.494671    1.074200
     44          1           0        0.622903    0.364813    0.180262
     45          1           0       -2.996534   -1.138453    1.192221
     46          1           0       -2.452625   -2.778244    2.226831
     47          1           0       -1.149089   -3.735909    3.104922
     48          1           0        5.609837   -2.490895   -2.344869
     49          1           0       -5.351369    0.257587    1.073746
     50          1           0       -5.912761    1.544044    0.399259
     51          1           0        2.847642    0.061472    0.459180
     52          1           0       -0.600356    1.739286    0.150380
     53          1           0        1.978667   -4.601442    1.004915
     54          1           0        2.447453   -3.105432    2.220969
     55          1           0        0.936057   -4.106865    2.640926
     56          1           0        2.448759   -3.403878   -0.421706
     57          1           0       -1.162856   -5.085362    0.617480
     58          1           0       -2.492031   -5.463354    1.884326
     59          1           0       -4.631931   -1.030500   -0.960563
     60          1           0       -5.173669    0.290645   -1.925849
     61          1           0       -4.255929    4.822284    0.367392
     62          1           0       -5.510752    3.695901    0.072767
     63          1           0       -4.696646    4.400728   -1.371658
     64          1           0       -1.980523    5.099033   -0.830885
     65          1           0        7.662045   -2.688758   -1.179156
     66          1           0        7.112274   -4.316210   -1.695383
     67          1           0        6.816232   -3.955384    0.091163
     68          1           0        6.788950   -0.491880   -0.776488
     69          1           0        4.942635    1.497078   -0.061239
     70          1           0        6.613753    0.864497    0.949026
     71          1           0        4.972333    0.517215    1.498331
     72          1           0        3.643253    6.462176   -0.925001
     73          1           0        4.223087    4.864564   -1.066476
     74          1           0       -0.223360    6.797286   -1.434050
     75          1           0        1.416341    7.377426   -0.809020
     76          1           0        0.238568    7.159463    0.325301
     77          1           0        3.839619    5.925816    1.854986
     78          1           0        5.302902    5.990482    1.096054
     79          1           0        4.626555    4.508331    1.514089
     80          1           0       -3.691296   -4.670988   -1.630281
     81          1           0       -7.775168   -2.104046   -1.716330
 ---------------------------------------------------------------------

 SCF Done:  E(RB3LYP) =  -1949.12558244     A.U. after   16 cycles

 Excitation energies and oscillator strengths:

 Excited State   1:      Singlet-A      1.6950 eV  731.48 nm  f=0.2958  <S**2>=0.000
     156 ->157         0.70721
     156 <-157        -0.11253
 This state for optimization and/or second-order correction.
 Total Energy, E(TD-HF/TD-DFT) =  -1949.06329325
 Copying the excited state density for this state as the 1-particle RhoCI density.

 The electronic state is 1-A.
 Alpha  occ. eigenvalues --  -19.18820 -19.17400 -19.15410 -19.13566 -19.10629
 Alpha  occ. eigenvalues --  -19.10329 -14.37185 -14.37018 -14.36191 -14.29152
 Alpha  occ. eigenvalues --  -10.33614 -10.31996 -10.29122 -10.26524 -10.24727
 Alpha  occ. eigenvalues --  -10.24424 -10.24039 -10.23954 -10.23186 -10.22893
 Alpha  occ. eigenvalues --  -10.22739 -10.22137 -10.21792 -10.21435 -10.21414
 Alpha  occ. eigenvalues --  -10.21155 -10.21120 -10.20958 -10.20811 -10.20683
 Alpha  occ. eigenvalues --  -10.20637 -10.20524 -10.20147 -10.20068 -10.19972
 Alpha  occ. eigenvalues --  -10.19720 -10.19389 -10.19206 -10.18925 -10.18871
 Alpha  occ. eigenvalues --  -10.18845 -10.18630 -10.17011  -1.12213  -1.11627
 Alpha  occ. eigenvalues --   -1.03482  -1.03212  -1.01863  -1.00753  -0.99730
 Alpha  occ. eigenvalues --   -0.98076  -0.97266  -0.92349  -0.83939  -0.82377
 Alpha  occ. eigenvalues --   -0.82091  -0.80073  -0.79339  -0.78665  -0.77169
 Alpha  occ. eigenvalues --   -0.76405  -0.75896  -0.74445  -0.73734  -0.72103
 Alpha  occ. eigenvalues --   -0.71579  -0.70359  -0.69490  -0.68571  -0.68111
 Alpha  occ. eigenvalues --   -0.67608  -0.65718  -0.63968  -0.62628  -0.61956
 Alpha  occ. eigenvalues --   -0.59904  -0.59703  -0.58830  -0.58516  -0.57226
 Alpha  occ. eigenvalues --   -0.56055  -0.55779  -0.54865  -0.53386  -0.52979
 Alpha  occ. eigenvalues --   -0.52403  -0.51688  -0.50937  -0.50436  -0.50198
 Alpha  occ. eigenvalues --   -0.49862  -0.49291  -0.48895  -0.48185  -0.48043
 Alpha  occ. eigenvalues --   -0.47452  -0.47137  -0.46146  -0.45685  -0.45402
 Alpha  occ. eigenvalues --   -0.44720  -0.44382  -0.44136  -0.44056  -0.43884
 Alpha  occ. eigenvalues --   -0.43521  -0.43335  -0.42891  -0.42659  -0.42282
 Alpha  occ. eigenvalues --   -0.42031  -0.41840  -0.41708  -0.41472  -0.41166
 Alpha  occ. eigenvalues --   -0.40983  -0.40660  -0.39990  -0.39889  -0.39666
 Alpha  occ. eigenvalues --   -0.39229  -0.38786  -0.38594  -0.38250  -0.38159
 Alpha  occ. eigenvalues --   -0.37953  -0.37596  -0.37285  -0.37059  -0.36842
 Alpha  occ. eigenvalues --   -0.36478  -0.36317  -0.35734  -0.34975  -0.34518
 Alpha  occ. eigenvalues --   -0.34294  -0.34028  -0.33702  -0.33247  -0.33075
 Alpha  occ. eigenvalues --   -0.32741  -0.32694  -0.31996  -0.30471  -0.29737
 Alpha  occ. eigenvalues --   -0.29057  -0.28676  -0.26942  -0.26100  -0.25772
 Alpha  occ. eigenvalues --   -0.25214  -0.24540  -0.24108  -0.23283  -0.21043
 Alpha  occ. eigenvalues --   -0.17607
 Alpha virt. eigenvalues --   -0.10684  -0.05714  -0.04582  -0.01527  -0.00989
 Alpha virt. eigenvalues --    0.00851   0.02268   0.03081   0.03891   0.04022
 Alpha virt. eigenvalues --    0.04521   0.05061   0.05622   0.05719   0.06369

 Mulliken charges:
               1
     1  O   -0.231642
     2  O   -0.208563
     3  O   -0.210379
     4  O   -0.154113
     5  O   -0.168776
     6  O   -0.232713
     7  N   -0.024617
     8  N   -0.053607
     9  N    0.022037
    10  N   -0.320394
    11  C   -0.089964
    12  C    0.055177
    13  C   -0.192601
    14  C   -0.063921
    15  C   -0.078511
    16  C    0.076859
    17  C    0.000763
    18  C   -0.124144
    19  C    0.090673
    20  C   -0.047106
    21  C    0.049953
    22  C    0.055016
    23  C   -0.071032
    24  C    0.177174
    25  C   -0.098608
    26  C    0.052395
    27  C    0.113942
    28  C   -0.106613
    29  C   -0.019537
    30  C    0.109192
    31  C   -0.152701
    32  C    0.033211
    33  C   -0.175208
    34  C    0.100715
    35  C   -0.062264
    36  C   -0.126993
    37  C    0.137968
    38  C    0.056288
    39  C    0.116750
    40  C    0.020373
    41  C    0.164030
    42  C    0.043253
    43  C    0.034905
    44  H    0.127022
    45  H   -0.037555
    46  H    0.008315
    47  H    0.039306
    48  H    0.058077
    49  H   -0.004260
    50  H   -0.029271
    51  H    0.010202
    52  H    0.111201
    53  H    0.058310
    54  H    0.047059
    55  H    0.018059
    56  H    0.090573
    57  H    0.049796
    58  H    0.060870
    59  H    0.044492
    60  H    0.038745
    61  H    0.034267
    62  H   -0.009090
    63  H    0.041250
    64  H    0.020745
    65  H    0.025561
    66  H    0.037750
    67  H    0.029941
    68  H    0.013211
    69  H    0.106278
    70  H    0.025216
    71  H    0.021229
    72  H    0.017369
    73  H    0.018929
    74  H    0.033893
    75  H    0.007931
    76  H    0.025610
    77  H   -0.013688
    78  H   -0.006165
    79  H    0.023838
    80  H    0.190760
    81  H    0.167559
 Sum of Mulliken charges =  -0.00000

 Dipole moment (field-independent basis, Debye):
    X=             -2.7371    Y=              1.7585    Z=              0.2626  Tot=              3.2639
 Quadrupole moment (field-independent basis, Debye-Ang):
   XX=           -242.5006   YY=           -247.7682   ZZ=           -253.7871
   XY=             12.0215   XZ=             11.1144   YZ=            -12.2265

 Normal termination of Gaussian 16 at Thu Jun 27 20:13:02 2019.
