 Gaussian 16, Revision A.03,
 Gaussian 16:  ES64L-G16RevA.03 25-Dec-2016

 --------------------------
 # td=(NStates=1) B3LYP/SVP
 --------------------------

 --
 TD
 --
 Symbolic Z-matrix:
 Charge =  0 Multiplicity = 1

                         Standard orientation:
 ---------------------------------------------------------------------
 Center     Atomic      Atomic             Coordinates (Angstroms)
 Number     Number       Type             X           Y           Z
 ---------------------------------------------------------------------
      1          8           0        3.751961   -5.037860   -2.049733
      2          8           0       -3.226653   -4.779789   -0.987759
      3          8           0       -6.849394   -1.168324   -2.040566
      4          8           0       -3.901777   -3.028567    0.069323
      5          8           0       -7.628393   -0.238919   -0.175699
      6          8           0        3.166555    2.175787    0.503271
      7          7           0        0.260128   -0.473028    0.699334
      8          7           0       -1.471718    1.949195    0.459645
      9          7           0        3.014977   -3.264966   -0.596500
     10          7           0        0.940934    2.780292    0.083724
     11          6           0       -0.722382   -2.363134    1.458077
     12          6           0       -0.988277   -0.945958    1.119392
     13          6           0        0.610294   -2.549044    1.350871
     14          6           0        1.191144   -1.403250    0.779078
     15          6           0       -3.688968    1.724305    0.266091
     16          6           0       -2.465531    1.026709    0.690876
     17          6           0       -2.284012   -0.271344    0.997034
     18          6           0       -3.337296    2.991405   -0.043116
     19          6           0       -1.862237   -3.169203    2.084345
     20          6           0        5.200019   -3.037495   -1.371926
     21          6           0        3.484767   -2.071632   -0.187049
     22          6           0       -1.886031    3.155996    0.007095
     23          6           0        4.836469   -1.828506   -0.606634
     24          6           0       -5.073402    1.066238    0.211754
     25          6           0        2.537250   -1.141272    0.354840
     26          6           0        1.282789   -3.744738    1.804467
     27          6           0        3.868563   -3.919530   -1.529582
     28          6           0       -2.371781   -4.375110    1.301166
     29          6           0       -5.317125    0.142225   -0.956218
     30          6           0       -4.275683    4.113787   -0.497074
     31          6           0       -1.008277    4.149544   -0.360515
     32          6           0        6.524194   -3.711682   -1.044731
     33          6           0        5.711574   -0.850589   -0.215078
     34          6           0        0.400616    3.932684   -0.289608
     35          6           0        1.455854    5.002838   -0.547831
     36          6           0        2.610259    4.386447   -0.174990
     37          6           0       -3.263452   -4.023623    0.150776
     38          6           0        5.563806    0.253349    0.838626
     39          6           0       -6.618165   -0.412144   -0.910477
     40          6           0        4.015206    4.930132   -0.295120
     41          6           0        2.247328    2.987334    0.176761
     42          6           0        1.119979    6.442605   -0.915261
     43          6           0        4.695587    5.401215    1.021900
     44          1           0        0.568829    0.481104    0.202946
     45          1           0       -3.115754   -1.011694    1.223698
     46          1           0       -2.669931   -2.445377    2.522484
     47          1           0       -1.544380   -3.729081    3.052496
     48          1           0        5.347173   -2.783222   -2.428213
     49          1           0       -5.240001    0.510757    1.246228
     50          1           0       -5.853856    1.913100    0.496385
     51          1           0        2.740599    0.013009    0.502115
     52          1           0       -0.350409    1.776376    0.499338
     53          1           0        0.917208   -4.713510    1.250746
     54          1           0        2.280048   -3.444962    1.605013
     55          1           0        1.066800   -3.767775    2.908340
     56          1           0        1.956336   -3.228172   -0.527512
     57          1           0       -1.386701   -4.896697    0.874310
     58          1           0       -3.061547   -4.897625    1.918419
     59          1           0       -4.541738   -0.766062   -0.976148
     60          1           0       -5.161505    0.798410   -1.795129
     61          1           0       -4.478558    5.102540    0.151592
     62          1           0       -5.405519    3.733877   -0.728357
     63          1           0       -4.008814    4.623407   -1.526883
     64          1           0       -1.516022    5.069300   -0.708913
     65          1           0        7.450071   -3.007090   -1.092066
     66          1           0        6.941282   -4.635660   -1.844033
     67          1           0        6.234183   -4.362253   -0.066930
     68          1           0        6.620108   -0.781771   -0.691859
     69          1           0        4.909095    1.106755    0.329004
     70          1           0        6.601355    0.642334    0.807832
     71          1           0        4.875675    0.161376    1.811876
     72          1           0        3.842230    5.879453   -1.078645
     73          1           0        4.606352    4.240492   -0.563992
     74          1           0        0.016954    6.337653   -1.635406
     75          1           0        2.029855    6.964345   -1.059107
     76          1           0        0.705445    6.968932    0.021190
     77          1           0        4.323182    6.130243    1.715629
     78          1           0        5.852611    5.821647    0.720169
     79          1           0        5.199351    4.392993    1.535547
     80          1           0       -3.929301   -4.332667   -1.712557
     81          1           0       -7.687802   -1.514915   -2.041340
 ---------------------------------------------------------------------

 SCF Done:  E(RB3LYP) =  -1949.01731933     A.U. after   17 cycles

 Excitation energies and oscillator strengths:

 Excited State   1:      Singlet-A      1.6598 eV  746.97 nm  f=0.2778  <S**2>=0.000
     156 ->157         0.70881
     156 <-157        -0.11090
 This state for optimization and/or second-order correction.
 Total Energy, E(TD-HF/TD-DFT) =  -1948.95632198
 Copying the excited state density for this state as the 1-particle RhoCI density.

 The electronic state is 1-A.
 Alpha  occ. eigenvalues --  -19.18584 -19.16501 -19.13585 -19.12624 -19.12501
 Alpha  occ. eigenvalues --  -19.10305 -14.38776 -14.37973 -14.36067 -14.30676
 Alpha  occ. eigenvalues --  -10.32667 -10.32346 -10.31026 -10.26838 -10.24650
 Alpha  occ. eigenvalues --  -10.24283 -10.24223 -10.23875 -10.23280 -10.23162
 Alpha  occ. eigenvalues --  -10.23094 -10.22801 -10.22322 -10.22191 -10.22188
 Alpha  occ. eigenvalues --  -10.22109 -10.21815 -10.21757 -10.20830 -10.20817
 Alpha  occ. eigenvalues --  -10.20677 -10.20547 -10.20438 -10.20284 -10.20196
 Alpha  occ. eigenvalues --  -10.19866 -10.19765 -10.19666 -10.19644 -10.19513
 Alpha  occ. eigenvalues --  -10.19198 -10.18856 -10.18751  -1.10487  -1.08637
 Alpha  occ. eigenvalues --   -1.02865  -1.00575  -0.99840  -0.99517  -0.98154
 Alpha  occ. eigenvalues --   -0.98052  -0.96935  -0.93741  -0.83174  -0.82685
 Alpha  occ. eigenvalues --   -0.82147  -0.81607  -0.80328  -0.79785  -0.78760
 Alpha  occ. eigenvalues --   -0.78243  -0.76398  -0.75079  -0.74092  -0.72462
 Alpha  occ. eigenvalues --   -0.70848  -0.69654  -0.69104  -0.68294  -0.67688
 Alpha  occ. eigenvalues --   -0.67246  -0.65955  -0.63927  -0.62464  -0.61609
 Alpha  occ. eigenvalues --   -0.60107  -0.59857  -0.59124  -0.58104  -0.56980
 Alpha  occ. eigenvalues --   -0.55829  -0.55125  -0.55047  -0.53775  -0.53335
 Alpha  occ. eigenvalues --   -0.53187  -0.51873  -0.51544  -0.51033  -0.50615
 Alpha  occ. eigenvalues --   -0.49780  -0.49668  -0.48204  -0.47985  -0.47627
 Alpha  occ. eigenvalues --   -0.47156  -0.46817  -0.46163  -0.46022  -0.45262
 Alpha  occ. eigenvalues --   -0.44779  -0.44733  -0.44190  -0.43995  -0.43611
 Alpha  occ. eigenvalues --   -0.43504  -0.43452  -0.42817  -0.42392  -0.42013
 Alpha  occ. eigenvalues --   -0.41633  -0.41288  -0.40953  -0.40669  -0.40573
 Alpha  occ. eigenvalues --   -0.40252  -0.40090  -0.39856  -0.39580  -0.39481
 Alpha  occ. eigenvalues --   -0.38945  -0.38758  -0.38705  -0.38500  -0.38380
 Alpha  occ. eigenvalues --   -0.37851  -0.37655  -0.37281  -0.37128  -0.36849
 Alpha  occ. eigenvalues --   -0.36247  -0.36030  -0.35797  -0.35348  -0.35193
 Alpha  occ. eigenvalues --   -0.34550  -0.34350  -0.33453  -0.32765  -0.32613
 Alpha  occ. eigenvalues --   -0.31886  -0.31162  -0.30663  -0.30326  -0.28964
 Alpha  occ. eigenvalues --   -0.28843  -0.27693  -0.26984  -0.26448  -0.26142
 Alpha  occ. eigenvalues --   -0.25752  -0.24792  -0.24718  -0.24236  -0.22036
 Alpha  occ. eigenvalues --   -0.17664
 Alpha virt. eigenvalues --   -0.10798  -0.06393  -0.04643  -0.02014  -0.01816
 Alpha virt. eigenvalues --   -0.00658   0.01045   0.01540   0.02323   0.02669
 Alpha virt. eigenvalues --    0.03241   0.04139   0.04527   0.05147   0.05617

 Mulliken charges:
               1
     1  O   -0.209444
     2  O   -0.266587
     3  O   -0.177532
     4  O   -0.213715
     5  O   -0.267606
     6  O   -0.280497
     7  N   -0.093937
     8  N   -0.151150
     9  N   -0.130887
    10  N   -0.247227
    11  C   -0.038404
    12  C   -0.010470
    13  C   -0.221273
    14  C   -0.003143
    15  C   -0.077665
    16  C    0.142332
    17  C   -0.070350
    18  C   -0.052611
    19  C   -0.001139
    20  C   -0.057739
    21  C    0.022451
    22  C    0.078586
    23  C    0.053553
    24  C   -0.027927
    25  C   -0.142187
    26  C    0.098236
    27  C    0.183848
    28  C    0.065669
    29  C    0.053175
    30  C   -0.063791
    31  C   -0.123050
    32  C   -0.055682
    33  C   -0.126333
    34  C    0.098909
    35  C   -0.110476
    36  C   -0.151072
    37  C    0.096628
    38  C   -0.002986
    39  C    0.149056
    40  C    0.175435
    41  C    0.156649
    42  C    0.072456
    43  C   -0.101441
    44  H    0.183860
    45  H    0.037613
    46  H    0.040438
    47  H    0.019053
    48  H    0.027214
    49  H    0.028913
    50  H    0.045061
    51  H    0.057437
    52  H    0.190959
    53  H    0.049416
    54  H    0.012485
    55  H    0.033663
    56  H    0.159764
    57  H    0.069545
    58  H    0.031043
    59  H    0.096956
    60  H    0.047135
    61  H    0.047482
    62  H    0.033411
    63  H    0.032219
    64  H   -0.023782
    65  H    0.049766
    66  H    0.040910
    67  H    0.046004
    68  H   -0.034992
    69  H    0.094217
    70  H    0.010232
    71  H    0.064308
    72  H    0.026887
    73  H   -0.061581
    74  H    0.060580
    75  H    0.003075
    76  H    0.040248
    77  H    0.029660
    78  H    0.009305
    79  H    0.044046
    80  H    0.243794
    81  H    0.142993
 Sum of Mulliken charges =  -0.00000

 Dipole moment (field-independent basis, Debye):
    X=             -1.2790    Y=              1.5959    Z=             -0.3496  Tot=              2.0748
 Quadrupole moment (field-independent basis, Debye-Ang):
   XX=           -260.5468   YY=           -248.3194   ZZ=           -255.8161
   XY=             15.9164   XZ=              7.8405   YZ=            -14.7402

 Normal termination of Gaussian 16 at Sun Jun 30 03:55:56 2019.
