 Gaussian 16, Revision A.03,
 Gaussian 16:  ES64L-G16RevA.03 25-Dec-2016

 --------------------------
 # td=(NStates=1) B3LYP/SVP
 --------------------------

 --
 TD
 --
 Symbolic Z-matrix:
 Charge =  0 Multiplicity = 1

                         Standard orientation:
 ---------------------------------------------------------------------
 Center     Atomic      Atomic             Coordinates (Angstroms)
 Number     Number       Type             X           Y           Z
 ---------------------------------------------------------------------
      1          8           0       -4.115852   -4.787583    2.017783
      2          8           0        2.991010   -4.544370    1.238267
      3          8           0        6.891573   -1.501721    1.942771
      4          8           0        3.952279   -3.093301   -0.095832
      5          8           0        7.549193   -0.617046    0.024872
      6          8           0       -3.098858    2.486219   -0.377374
      7          7           0       -0.258498   -0.438299   -0.706050
      8          7           0        1.557740    1.883479   -0.498562
      9          7           0       -3.312536   -3.160066    0.608700
     10          7           0       -0.831808    2.862568   -0.132317
     11          6           0        0.701464   -2.420597   -1.515315
     12          6           0        0.997593   -1.098315   -1.014443
     13          6           0       -0.745048   -2.532024   -1.281811
     14          6           0       -1.298499   -1.326419   -0.718686
     15          6           0        3.766031    1.563585   -0.445334
     16          6           0        2.527605    0.860467   -0.724407
     17          6           0        2.240124   -0.399731   -1.022506
     18          6           0        3.567283    2.870990    0.017910
     19          6           0        1.672504   -3.419498   -2.047717
     20          6           0       -5.430062   -2.916587    1.329583
     21          6           0       -3.533309   -1.854393    0.162593
     22          6           0        2.104628    3.087116   -0.062196
     23          6           0       -4.912677   -1.740517    0.504901
     24          6           0        5.116203    0.829647   -0.347739
     25          6           0       -2.607701   -0.950053   -0.305946
     26          6           0       -1.554476   -3.716899   -1.730589
     27          6           0       -4.240217   -3.791553    1.327537
     28          6           0        2.092940   -4.453552   -0.947606
     29          6           0        5.394443   -0.057892    0.939324
     30          6           0        4.522318    3.950518    0.366429
     31          6           0        1.248113    4.053243    0.357790
     32          6           0       -6.674007   -3.622353    0.725936
     33          6           0       -5.781874   -0.671781    0.161124
     34          6           0       -0.239120    3.899341    0.275394
     35          6           0       -1.039987    5.051645    0.456538
     36          6           0       -2.337128    4.698162    0.262557
     37          6           0        3.099737   -3.933815    0.074524
     38          6           0       -5.453142    0.563210   -0.673791
     39          6           0        6.730374   -0.711987    0.882653
     40          6           0       -3.823477    5.196751    0.469950
     41          6           0       -2.120913    3.158163   -0.224481
     42          6           0       -0.774206    6.506679    0.880406
     43          6           0       -4.574785    5.271182   -0.899420
     44          1           0       -0.288726    0.484387   -0.343024
     45          1           0        3.015424   -1.095227   -1.240559
     46          1           0        2.395160   -2.819345   -2.439691
     47          1           0        1.116805   -3.823453   -2.887803
     48          1           0       -5.412276   -2.522837    2.421438
     49          1           0        5.163445    0.079978   -1.077693
     50          1           0        5.947399    1.422601   -0.489967
     51          1           0       -2.931503    0.099845   -0.279311
     52          1           0        0.590249    1.831445   -0.805816
     53          1           0       -1.344117   -4.732560   -1.154437
     54          1           0       -2.747004   -3.422578   -1.685173
     55          1           0       -1.506903   -4.103688   -2.787522
     56          1           0       -2.207504   -3.578316    0.518150
     57          1           0        1.336112   -5.157811   -0.569849
     58          1           0        2.573454   -5.257253   -1.407721
     59          1           0        4.680711   -0.908934    1.101910
     60          1           0        5.289752    0.644758    1.797395
     61          1           0        4.518875    4.946934   -0.188299
     62          1           0        5.563656    3.606672    0.064325
     63          1           0        4.315776    4.252676    1.566816
     64          1           0        1.636657    4.854809    0.765031
     65          1           0       -7.590544   -2.947278    0.565940
     66          1           0       -7.210345   -4.335286    1.591134
     67          1           0       -6.660338   -3.926545   -0.263853
     68          1           0       -6.704917   -0.794946    0.554638
     69          1           0       -5.078205    1.366094   -0.198754
     70          1           0       -6.332145    0.917616   -1.036690
     71          1           0       -4.584671    0.404058   -1.409290
     72          1           0       -3.878069    6.220021    1.048902
     73          1           0       -4.243443    4.464491    1.022264
     74          1           0       -0.479664    6.483001    1.999368
     75          1           0       -1.509296    7.351990    0.630785
     76          1           0        0.233292    6.929916    0.481757
     77          1           0       -4.043073    6.182852   -1.526847
     78          1           0       -5.568741    5.646484   -0.821592
     79          1           0       -4.977475    4.304868   -1.572216
     80          1           0        3.825393   -4.302068    1.743587
     81          1           0        7.813353   -1.995129    2.007378
 ---------------------------------------------------------------------

 SCF Done:  E(RB3LYP) =  -1949.07201662     A.U. after   16 cycles

 Excitation energies and oscillator strengths:

 Excited State   1:      Singlet-A      1.7911 eV  692.21 nm  f=0.3098  <S**2>=0.000
     156 ->157         0.70796
     156 <-157        -0.10416
 This state for optimization and/or second-order correction.
 Total Energy, E(TD-HF/TD-DFT) =  -1949.00619366
 Copying the excited state density for this state as the 1-particle RhoCI density.

 The electronic state is 1-A.
 Alpha  occ. eigenvalues --  -19.19906 -19.17925 -19.13989 -19.11916 -19.11310
 Alpha  occ. eigenvalues --  -19.09262 -14.37294 -14.36957 -14.35146 -14.29788
 Alpha  occ. eigenvalues --  -10.33675 -10.31263 -10.27564 -10.26966 -10.24056
 Alpha  occ. eigenvalues --  -10.23974 -10.23871 -10.23805 -10.23219 -10.22940
 Alpha  occ. eigenvalues --  -10.22142 -10.21991 -10.21237 -10.21223 -10.21044
 Alpha  occ. eigenvalues --  -10.20845 -10.20820 -10.20731 -10.20621 -10.20501
 Alpha  occ. eigenvalues --  -10.20321 -10.20262 -10.20232 -10.19975 -10.19966
 Alpha  occ. eigenvalues --  -10.19592 -10.19543 -10.19360 -10.19215 -10.19109
 Alpha  occ. eigenvalues --  -10.18868 -10.17684 -10.16509  -1.12201  -1.09324
 Alpha  occ. eigenvalues --   -1.03852  -1.02667  -1.01788  -1.00239  -0.97205
 Alpha  occ. eigenvalues --   -0.96375  -0.95411  -0.95189  -0.82713  -0.81558
 Alpha  occ. eigenvalues --   -0.81047  -0.80287  -0.79350  -0.79043  -0.77581
 Alpha  occ. eigenvalues --   -0.77006  -0.76387  -0.74735  -0.74058  -0.72570
 Alpha  occ. eigenvalues --   -0.71011  -0.69858  -0.68846  -0.67882  -0.67562
 Alpha  occ. eigenvalues --   -0.67161  -0.66030  -0.64722  -0.63118  -0.62268
 Alpha  occ. eigenvalues --   -0.61651  -0.60088  -0.59355  -0.58167  -0.56761
 Alpha  occ. eigenvalues --   -0.56368  -0.55367  -0.54895  -0.53417  -0.52785
 Alpha  occ. eigenvalues --   -0.52512  -0.52061  -0.51266  -0.50283  -0.49711
 Alpha  occ. eigenvalues --   -0.49417  -0.48904  -0.48716  -0.48026  -0.47565
 Alpha  occ. eigenvalues --   -0.47097  -0.46834  -0.46291  -0.45537  -0.45173
 Alpha  occ. eigenvalues --   -0.44839  -0.44415  -0.44186  -0.43873  -0.43668
 Alpha  occ. eigenvalues --   -0.43479  -0.42867  -0.42643  -0.42280  -0.42116
 Alpha  occ. eigenvalues --   -0.41782  -0.41639  -0.41445  -0.41235  -0.40650
 Alpha  occ. eigenvalues --   -0.40418  -0.39908  -0.39623  -0.39371  -0.39193
 Alpha  occ. eigenvalues --   -0.39003  -0.38873  -0.38210  -0.38000  -0.37864
 Alpha  occ. eigenvalues --   -0.37767  -0.37651  -0.37440  -0.36981  -0.36482
 Alpha  occ. eigenvalues --   -0.36282  -0.35476  -0.35279  -0.35089  -0.34836
 Alpha  occ. eigenvalues --   -0.34710  -0.34245  -0.33806  -0.33610  -0.33505
 Alpha  occ. eigenvalues --   -0.32432  -0.32338  -0.32161  -0.30800  -0.29894
 Alpha  occ. eigenvalues --   -0.29380  -0.27802  -0.26304  -0.25110  -0.25032
 Alpha  occ. eigenvalues --   -0.24430  -0.24217  -0.23957  -0.23220  -0.21701
 Alpha  occ. eigenvalues --   -0.17480
 Alpha virt. eigenvalues --   -0.10183  -0.06164  -0.04409  -0.00863   0.00857
 Alpha virt. eigenvalues --    0.01496   0.01898   0.02562   0.03003   0.03807
 Alpha virt. eigenvalues --    0.03965   0.04273   0.04733   0.04898   0.05926

 Mulliken charges:
               1
     1  O   -0.226340
     2  O   -0.163814
     3  O   -0.230262
     4  O   -0.231835
     5  O   -0.207341
     6  O   -0.182913
     7  N   -0.103295
     8  N   -0.168526
     9  N   -0.166675
    10  N   -0.154459
    11  C   -0.132416
    12  C    0.021924
    13  C   -0.159439
    14  C    0.129167
    15  C   -0.071279
    16  C    0.163367
    17  C   -0.050339
    18  C   -0.084075
    19  C    0.213209
    20  C   -0.007093
    21  C    0.111297
    22  C    0.143417
    23  C   -0.131089
    24  C    0.150408
    25  C   -0.089408
    26  C   -0.077983
    27  C    0.084286
    28  C    0.081437
    29  C   -0.041930
    30  C   -0.003279
    31  C   -0.064500
    32  C    0.046280
    33  C   -0.073931
    34  C    0.058176
    35  C   -0.134634
    36  C   -0.171203
    37  C    0.114754
    38  C    0.157764
    39  C    0.131671
    40  C    0.148883
    41  C    0.097423
    42  C    0.036339
    43  C   -0.078851
    44  H    0.106064
    45  H   -0.022183
    46  H   -0.015775
    47  H    0.000716
    48  H    0.062876
    49  H   -0.010153
    50  H   -0.015711
    51  H    0.010743
    52  H    0.134833
    53  H    0.034278
    54  H    0.060115
    55  H    0.029742
    56  H    0.188937
    57  H    0.017163
    58  H    0.012897
    59  H    0.052870
    60  H    0.037710
    61  H    0.042938
    62  H    0.027810
    63  H    0.051451
    64  H   -0.109814
    65  H    0.005687
    66  H    0.050555
    67  H    0.004121
    68  H   -0.054974
    69  H    0.010246
    70  H   -0.026310
    71  H    0.038709
    72  H    0.023470
    73  H   -0.010515
    74  H    0.025346
    75  H    0.046818
    76  H    0.010541
    77  H    0.026117
    78  H   -0.005378
    79  H    0.057440
    80  H    0.200285
    81  H    0.217439
 Sum of Mulliken charges =  -0.00000

 Dipole moment (field-independent basis, Debye):
    X=              2.1685    Y=              0.8293    Z=              0.2381  Tot=              2.3339
 Quadrupole moment (field-independent basis, Debye-Ang):
   XX=           -244.9198   YY=           -237.7317   ZZ=           -255.6489
   XY=            -22.4325   XZ=             19.1412   YZ=             16.9147

 Normal termination of Gaussian 16 at Wed Jul  3 17:55:17 2019.
