 Gaussian 16, Revision A.03,
 Gaussian 16:  ES64L-G16RevA.03 25-Dec-2016

 --------------------------
 # td=(NStates=1) B3LYP/SVP
 --------------------------

 --
 TD
 --
 Symbolic Z-matrix:
 Charge =  0 Multiplicity = 1

                         Standard orientation:
 ---------------------------------------------------------------------
 Center     Atomic      Atomic             Coordinates (Angstroms)
 Number     Number       Type             X           Y           Z
 ---------------------------------------------------------------------
      1          8           0        4.596054   -4.973583   -1.649916
      2          8           0       -3.193540   -4.767641   -1.120818
      3          8           0       -7.053669   -1.594288   -1.760636
      4          8           0       -3.994614   -3.084161    0.231902
      5          8           0       -7.628016   -0.475397    0.102722
      6          8           0        3.101387    2.378130    0.573103
      7          7           0        0.287551   -0.476143    0.512560
      8          7           0       -1.569681    1.762421    0.386383
      9          7           0        3.339674   -3.217758   -0.738686
     10          7           0        0.844126    2.815327    0.164283
     11          6           0       -0.666987   -2.377137    1.290600
     12          6           0       -0.924211   -1.050086    0.824077
     13          6           0        0.688522   -2.573551    1.125006
     14          6           0        1.264903   -1.368076    0.571095
     15          6           0       -3.784567    1.475997    0.191751
     16          6           0       -2.555133    0.803269    0.547109
     17          6           0       -2.277604   -0.450912    0.732693
     18          6           0       -3.546467    2.801817   -0.076293
     19          6           0       -1.642004   -3.300081    1.923403
     20          6           0        5.495494   -2.754514   -1.327815
     21          6           0        3.583299   -1.901247   -0.221539
     22          6           0       -2.058866    2.947061   -0.117856
     23          6           0        5.015253   -1.674382   -0.414199
     24          6           0       -5.225157    0.975801    0.317459
     25          6           0        2.591277   -1.018558    0.302239
     26          6           0        1.413062   -3.843208    1.862044
     27          6           0        4.465417   -3.759747   -1.274095
     28          6           0       -2.087027   -4.407444    1.006304
     29          6           0       -5.417978   -0.203949   -0.804132
     30          6           0       -4.455789    3.954008   -0.479246
     31          6           0       -1.199974    4.054980   -0.322941
     32          6           0        6.986149   -3.321244   -0.975830
     33          6           0        5.799387   -0.661711   -0.008967
     34          6           0        0.183935    3.977422   -0.270533
     35          6           0        1.063675    5.042299   -0.639074
     36          6           0        2.372930    4.596221   -0.310732
     37          6           0       -3.150026   -3.989724   -0.051865
     38          6           0        5.451278    0.554313    0.898296
     39          6           0       -6.805402   -0.725515   -0.793815
     40          6           0        3.696572    5.209020   -0.348901
     41          6           0        2.218470    3.234881    0.085504
     42          6           0        0.775240    6.481466   -0.867526
     43          6           0        4.249435    5.773040    1.116290
     44          1           0        0.401582    0.453193    0.015049
     45          1           0       -3.016022   -1.190805    1.043989
     46          1           0       -2.436192   -2.839180    2.365859
     47          1           0       -1.079315   -3.824912    2.762155
     48          1           0        5.473894   -2.271670   -2.420775
     49          1           0       -5.459095    0.702243    1.323971
     50          1           0       -5.919596    1.699100    0.192644
     51          1           0        2.991995    0.012455    0.342499
     52          1           0       -0.590561    1.933633    0.517478
     53          1           0        1.178688   -4.889203    1.311487
     54          1           0        2.529595   -3.499644    1.656822
     55          1           0        1.253029   -4.007301    2.905560
     56          1           0        2.529001   -3.692971   -0.622747
     57          1           0       -1.303058   -4.678542    0.355996
     58          1           0       -2.690231   -5.117591    1.518565
     59          1           0       -4.808359   -1.093959   -0.653205
     60          1           0       -5.198017    0.179533   -1.871494
     61          1           0       -4.519492    4.648730    0.334663
     62          1           0       -5.528159    3.491508   -0.668812
     63          1           0       -4.049397    4.405986   -1.332946
     64          1           0       -1.690934    4.872631   -0.621522
     65          1           0        7.850216   -2.638041   -1.174616
     66          1           0        7.100496   -4.330559   -1.703295
     67          1           0        7.107270   -3.504783    0.093927
     68          1           0        7.025094   -0.617521   -0.082035
     69          1           0        5.079157    1.432406    0.379168
     70          1           0        6.636218    0.793824    1.267668
     71          1           0        4.887335    0.246231    1.621519
     72          1           0        3.571239    5.821579   -1.002756
     73          1           0        4.344989    4.414077   -0.729608
     74          1           0       -0.284032    6.329426   -1.589546
     75          1           0        1.490042    7.125481   -1.440584
     76          1           0        0.356949    6.987085    0.039156
     77          1           0        3.287721    6.478011    1.545975
     78          1           0        5.122168    6.418562    0.994134
     79          1           0        4.304637    4.965045    2.037356
     80          1           0       -3.957127   -4.434292   -1.627648
     81          1           0       -8.026864   -1.834217   -1.297764
 ---------------------------------------------------------------------

 SCF Done:  E(RB3LYP) =  -1949.03444804     A.U. after   24 cycles

 Excitation energies and oscillator strengths:

 Excited State   1:      Singlet-A      1.6360 eV  757.86 nm  f=0.2385  <S**2>=0.000
     156 ->157         0.70587
     156 <-157        -0.11151
 This state for optimization and/or second-order correction.
 Total Energy, E(TD-HF/TD-DFT) =  -1948.97432684
 Copying the excited state density for this state as the 1-particle RhoCI density.

 The electronic state is 1-A.
 Alpha  occ. eigenvalues --  -19.22172 -19.19734 -19.14459 -19.12620 -19.09675
 Alpha  occ. eigenvalues --  -19.09453 -14.38331 -14.37200 -14.35683 -14.29054
 Alpha  occ. eigenvalues --  -10.34452 -10.31898 -10.28483 -10.25920 -10.25227
 Alpha  occ. eigenvalues --  -10.24347 -10.23719 -10.23238 -10.23226 -10.22745
 Alpha  occ. eigenvalues --  -10.22013 -10.21857 -10.21616 -10.21500 -10.21229
 Alpha  occ. eigenvalues --  -10.21147 -10.20979 -10.20880 -10.20854 -10.20694
 Alpha  occ. eigenvalues --  -10.20657 -10.20536 -10.20479 -10.20104 -10.20082
 Alpha  occ. eigenvalues --  -10.20018 -10.19818 -10.19615 -10.19448 -10.19254
 Alpha  occ. eigenvalues --  -10.18681 -10.17974 -10.17296  -1.12778  -1.10298
 Alpha  occ. eigenvalues --   -1.01229  -1.00768  -0.99769  -0.99196  -0.98169
 Alpha  occ. eigenvalues --   -0.96341  -0.94119  -0.89688  -0.83553  -0.82441
 Alpha  occ. eigenvalues --   -0.81860  -0.81587  -0.80063  -0.78702  -0.78145
 Alpha  occ. eigenvalues --   -0.76947  -0.76615  -0.75028  -0.74071  -0.72344
 Alpha  occ. eigenvalues --   -0.71237  -0.69918  -0.69119  -0.68520  -0.67926
 Alpha  occ. eigenvalues --   -0.67407  -0.65991  -0.65082  -0.63152  -0.62655
 Alpha  occ. eigenvalues --   -0.61918  -0.59756  -0.58260  -0.58112  -0.57178
 Alpha  occ. eigenvalues --   -0.56621  -0.55963  -0.55769  -0.53596  -0.53466
 Alpha  occ. eigenvalues --   -0.52310  -0.51829  -0.51609  -0.51051  -0.50186
 Alpha  occ. eigenvalues --   -0.49899  -0.49459  -0.48905  -0.48367  -0.47988
 Alpha  occ. eigenvalues --   -0.47295  -0.46552  -0.46143  -0.45704  -0.45356
 Alpha  occ. eigenvalues --   -0.45210  -0.45052  -0.44870  -0.44333  -0.44007
 Alpha  occ. eigenvalues --   -0.43468  -0.43128  -0.42625  -0.42211  -0.41826
 Alpha  occ. eigenvalues --   -0.41713  -0.41480  -0.41347  -0.41228  -0.41043
 Alpha  occ. eigenvalues --   -0.40848  -0.40553  -0.40451  -0.40109  -0.39548
 Alpha  occ. eigenvalues --   -0.39474  -0.39116  -0.38657  -0.38344  -0.38080
 Alpha  occ. eigenvalues --   -0.37392  -0.37172  -0.37057  -0.36662  -0.36516
 Alpha  occ. eigenvalues --   -0.36395  -0.36236  -0.34889  -0.34662  -0.34610
 Alpha  occ. eigenvalues --   -0.34265  -0.33909  -0.33603  -0.32890  -0.32619
 Alpha  occ. eigenvalues --   -0.32091  -0.32061  -0.31473  -0.29759  -0.29175
 Alpha  occ. eigenvalues --   -0.28403  -0.28264  -0.26358  -0.26135  -0.25816
 Alpha  occ. eigenvalues --   -0.25455  -0.24562  -0.23604  -0.22987  -0.21310
 Alpha  occ. eigenvalues --   -0.17920
 Alpha virt. eigenvalues --   -0.11160  -0.06805  -0.04446  -0.02549  -0.00767
 Alpha virt. eigenvalues --    0.00107   0.01887   0.02200   0.03137   0.03285
 Alpha virt. eigenvalues --    0.03487   0.03928   0.04336   0.04841   0.05122

 Mulliken charges:
               1
     1  O   -0.278318
     2  O   -0.131378
     3  O   -0.217181
     4  O   -0.293252
     5  O   -0.289797
     6  O   -0.306318
     7  N   -0.027609
     8  N   -0.088421
     9  N   -0.059837
    10  N   -0.353814
    11  C   -0.113643
    12  C   -0.023402
    13  C   -0.157155
    14  C    0.086932
    15  C   -0.111604
    16  C    0.190229
    17  C   -0.062693
    18  C   -0.133942
    19  C    0.169248
    20  C   -0.072967
    21  C    0.053070
    22  C    0.002678
    23  C    0.033852
    24  C    0.198331
    25  C   -0.105945
    26  C   -0.021184
    27  C    0.133312
    28  C    0.103730
    29  C   -0.033907
    30  C    0.120207
    31  C   -0.031014
    32  C   -0.005869
    33  C   -0.253209
    34  C    0.142258
    35  C   -0.090541
    36  C   -0.191037
    37  C    0.104000
    38  C    0.084379
    39  C    0.150167
    40  C    0.275291
    41  C    0.187410
    42  C    0.000131
    43  C   -0.090862
    44  H    0.158718
    45  H    0.015952
    46  H   -0.017891
    47  H    0.007287
    48  H    0.081237
    49  H    0.017111
    50  H   -0.046426
    51  H    0.026182
    52  H    0.116097
    53  H    0.043492
    54  H    0.049940
    55  H    0.041038
    56  H    0.090393
    57  H    0.017495
    58  H    0.037370
    59  H    0.059131
    60  H    0.043294
    61  H    0.024972
    62  H    0.032958
    63  H    0.022565
    64  H   -0.099492
    65  H    0.023768
    66  H    0.066712
    67  H    0.019195
    68  H    0.038462
    69  H    0.073730
    70  H    0.004034
    71  H   -0.007096
    72  H   -0.110768
    73  H    0.013438
    74  H    0.024910
    75  H    0.049709
    76  H    0.053777
    77  H    0.019507
    78  H    0.037726
    79  H    0.071321
    80  H    0.192363
    81  H    0.217460
 Sum of Mulliken charges =  -0.00000

 Dipole moment (field-independent basis, Debye):
    X=             -3.8976    Y=              1.8948    Z=             -1.0109  Tot=              4.4501
 Quadrupole moment (field-independent basis, Debye-Ang):
   XX=           -260.1446   YY=           -240.4614   ZZ=           -254.3295
   XY=             25.3320   XZ=             11.6948   YZ=            -15.8170

 Normal termination of Gaussian 16 at Thu Jun 27 07:40:30 2019.
