 Gaussian 16, Revision A.03,
 Gaussian 16:  ES64L-G16RevA.03 25-Dec-2016

 --------------------------
 # td=(NStates=1) B3LYP/SVP
 --------------------------

 --
 TD
 --
 Symbolic Z-matrix:
 Charge =  0 Multiplicity = 1

                         Standard orientation:
 ---------------------------------------------------------------------
 Center     Atomic      Atomic             Coordinates (Angstroms)
 Number     Number       Type             X           Y           Z
 ---------------------------------------------------------------------
      1          8           0        3.596347   -5.234570   -2.057318
      2          8           0       -3.939797   -4.705412   -0.789312
      3          8           0       -6.820603   -1.298266   -1.668879
      4          8           0       -4.174138   -2.649165    0.184185
      5          8           0       -7.515263    0.108780   -0.136788
      6          8           0        3.263756    2.104672    0.527949
      7          7           0        0.172472   -0.494037    0.605486
      8          7           0       -1.247551    2.070094    0.461814
      9          7           0        2.901363   -3.481546   -0.607458
     10          7           0        1.208226    2.857224    0.069181
     11          6           0       -0.934459   -2.314023    1.453361
     12          6           0       -1.116726   -1.013583    0.981032
     13          6           0        0.439276   -2.612108    1.327148
     14          6           0        1.150282   -1.492848    0.724172
     15          6           0       -3.573613    1.966607    0.206643
     16          6           0       -2.351828    1.202209    0.516706
     17          6           0       -2.227645   -0.145140    0.812663
     18          6           0       -3.231695    3.237001   -0.148300
     19          6           0       -2.061059   -3.088403    2.013299
     20          6           0        5.115825   -3.291993   -1.399771
     21          6           0        3.333238   -2.262947   -0.076474
     22          6           0       -1.686516    3.302233   -0.050763
     23          6           0        4.750820   -2.192076   -0.435027
     24          6           0       -4.936235    1.394560    0.237453
     25          6           0        2.556773   -1.231969    0.368722
     26          6           0        1.091248   -3.935604    1.753137
     27          6           0        3.888741   -4.221892   -1.379928
     28          6           0       -2.671635   -4.197377    1.189797
     29          6           0       -5.327130    0.484287   -0.986705
     30          6           0       -4.071993    4.205199   -0.730098
     31          6           0       -0.743540    4.224227   -0.418526
     32          6           0        6.429757   -4.218777   -1.284241
     33          6           0        5.534187   -1.202231   -0.040073
     34          6           0        0.721273    4.063262   -0.360687
     35          6           0        1.744206    5.036721   -0.636321
     36          6           0        2.944169    4.468011   -0.195409
     37          6           0       -3.662206   -3.768558    0.159541
     38          6           0        5.329368   -0.004753    0.845738
     39          6           0       -6.659477   -0.209376   -0.857718
     40          6           0        4.377670    5.023660   -0.159601
     41          6           0        2.594838    3.112302    0.217056
     42          6           0        1.419724    6.411716   -0.940714
     43          6           0        4.867266    5.127765    1.264308
     44          1           0        0.230861    0.273981   -0.012142
     45          1           0       -3.120146   -0.682028    1.110439
     46          1           0       -2.860229   -2.398840    2.231497
     47          1           0       -1.496539   -3.586721    2.865235
     48          1           0        5.042790   -2.871255   -2.459955
     49          1           0       -4.971787    0.681295    1.101595
     50          1           0       -5.665768    2.091742    0.326297
     51          1           0        2.850903   -0.120421    0.273765
     52          1           0       -0.293887    2.145265    0.784300
     53          1           0        0.940860   -4.775883    1.144857
     54          1           0        2.086777   -3.805918    1.877181
     55          1           0        0.740162   -4.170065    2.686211
     56          1           0        1.855195   -3.777852   -0.815106
     57          1           0       -1.848657   -4.757669    0.700022
     58          1           0       -3.115114   -5.001367    1.890683
     59          1           0       -4.578716   -0.290279   -1.275888
     60          1           0       -5.339241    1.148959   -1.794809
     61          1           0       -4.080692    5.262493   -0.223506
     62          1           0       -5.149345    3.971166   -0.795008
     63          1           0       -3.585417    4.626883   -1.679745
     64          1           0       -1.034458    4.996134   -0.687039
     65          1           0        7.448878   -3.727648   -1.308132
     66          1           0        6.384221   -5.147804   -1.769341
     67          1           0        6.466312   -4.485353   -0.152970
     68          1           0        6.628260   -1.150257   -0.397457
     69          1           0        4.845697    0.907448    0.347047
     70          1           0        6.412310    0.299064    1.016190
     71          1           0        4.812778   -0.459549    1.770095
     72          1           0        4.533130    6.015701   -0.545924
     73          1           0        4.921588    4.377581   -0.805688
     74          1           0        0.981265    6.621376   -1.827971
     75          1           0        2.306473    6.899395   -0.975918
     76          1           0        0.866478    6.695131   -0.011662
     77          1           0        4.125589    5.844438    1.811984
     78          1           0        5.715622    5.882387    1.174318
     79          1           0        4.788988    4.228714    1.622910
     80          1           0       -4.703323   -4.534286   -1.453408
     81          1           0       -7.863230   -1.633009   -1.747317
 ---------------------------------------------------------------------

 SCF Done:  E(RB3LYP) =  -1949.08667129     A.U. after   17 cycles

 Excitation energies and oscillator strengths:

 Excited State   1:      Singlet-A      1.5634 eV  793.02 nm  f=0.2296  <S**2>=0.000
     156 ->157         0.70999
     156 <-157        -0.13096
 This state for optimization and/or second-order correction.
 Total Energy, E(TD-HF/TD-DFT) =  -1949.02921570
 Copying the excited state density for this state as the 1-particle RhoCI density.

 The electronic state is 1-A.
 Alpha  occ. eigenvalues --  -19.19283 -19.17194 -19.13518 -19.11926 -19.11806
 Alpha  occ. eigenvalues --  -19.10319 -14.37164 -14.35675 -14.35289 -14.28069
 Alpha  occ. eigenvalues --  -10.33443 -10.31031 -10.29987 -10.26311 -10.24000
 Alpha  occ. eigenvalues --  -10.23944 -10.23421 -10.23304 -10.22449 -10.22084
 Alpha  occ. eigenvalues --  -10.21839 -10.21797 -10.20630 -10.20461 -10.20381
 Alpha  occ. eigenvalues --  -10.20352 -10.20263 -10.19973 -10.19946 -10.19793
 Alpha  occ. eigenvalues --  -10.19692 -10.19635 -10.19375 -10.19297 -10.19199
 Alpha  occ. eigenvalues --  -10.19078 -10.18898 -10.18793 -10.18233 -10.17808
 Alpha  occ. eigenvalues --  -10.17766 -10.17071 -10.16913  -1.09029  -1.08675
 Alpha  occ. eigenvalues --   -1.01409  -1.00412  -1.00383  -0.99290  -0.96235
 Alpha  occ. eigenvalues --   -0.95054  -0.93504  -0.90696  -0.82812  -0.82320
 Alpha  occ. eigenvalues --   -0.80658  -0.80618  -0.80074  -0.78344  -0.77754
 Alpha  occ. eigenvalues --   -0.77399  -0.77142  -0.75831  -0.73648  -0.72598
 Alpha  occ. eigenvalues --   -0.71591  -0.70416  -0.69088  -0.68471  -0.67516
 Alpha  occ. eigenvalues --   -0.67019  -0.65040  -0.63833  -0.62126  -0.61333
 Alpha  occ. eigenvalues --   -0.61144  -0.58810  -0.58579  -0.56759  -0.56687
 Alpha  occ. eigenvalues --   -0.56286  -0.55503  -0.53909  -0.53515  -0.52406
 Alpha  occ. eigenvalues --   -0.52006  -0.51435  -0.51187  -0.50067  -0.49557
 Alpha  occ. eigenvalues --   -0.49116  -0.48446  -0.48068  -0.47724  -0.47423
 Alpha  occ. eigenvalues --   -0.46937  -0.46817  -0.46230  -0.45950  -0.45718
 Alpha  occ. eigenvalues --   -0.45220  -0.44254  -0.44179  -0.43787  -0.43395
 Alpha  occ. eigenvalues --   -0.43172  -0.42912  -0.42706  -0.42351  -0.41979
 Alpha  occ. eigenvalues --   -0.41669  -0.41280  -0.41224  -0.40785  -0.40672
 Alpha  occ. eigenvalues --   -0.40416  -0.40191  -0.39915  -0.39483  -0.39321
 Alpha  occ. eigenvalues --   -0.38793  -0.38677  -0.38479  -0.38135  -0.37930
 Alpha  occ. eigenvalues --   -0.37786  -0.37444  -0.37178  -0.37025  -0.36635
 Alpha  occ. eigenvalues --   -0.36330  -0.36287  -0.35982  -0.35623  -0.35088
 Alpha  occ. eigenvalues --   -0.34534  -0.34105  -0.33614  -0.33007  -0.32452
 Alpha  occ. eigenvalues --   -0.31794  -0.31642  -0.31373  -0.29247  -0.28732
 Alpha  occ. eigenvalues --   -0.27579  -0.27324  -0.26683  -0.25805  -0.25274
 Alpha  occ. eigenvalues --   -0.24694  -0.24312  -0.24203  -0.22927  -0.20979
 Alpha  occ. eigenvalues --   -0.16759
 Alpha virt. eigenvalues --   -0.10438  -0.06158  -0.03418  -0.01558  -0.01210
 Alpha virt. eigenvalues --    0.01030   0.01929   0.02025   0.02922   0.03501
 Alpha virt. eigenvalues --    0.03764   0.04929   0.05172   0.05619   0.06110

 Mulliken charges:
               1
     1  O   -0.245502
     2  O   -0.233086
     3  O   -0.282074
     4  O   -0.239062
     5  O   -0.177691
     6  O   -0.225361
     7  N   -0.119706
     8  N   -0.118405
     9  N   -0.224608
    10  N   -0.309425
    11  C   -0.059534
    12  C    0.001069
    13  C   -0.235887
    14  C    0.058037
    15  C   -0.070056
    16  C    0.128556
    17  C   -0.034595
    18  C   -0.052699
    19  C    0.130856
    20  C   -0.032789
    21  C    0.147857
    22  C    0.089786
    23  C    0.016790
    24  C    0.134273
    25  C   -0.131979
    26  C    0.223413
    27  C    0.155977
    28  C   -0.000729
    29  C    0.019463
    30  C    0.043398
    31  C    0.078863
    32  C    0.033387
    33  C   -0.232716
    34  C    0.054546
    35  C   -0.151046
    36  C   -0.183729
    37  C    0.167188
    38  C    0.034931
    39  C    0.126210
    40  C    0.112986
    41  C    0.157978
    42  C    0.234418
    43  C    0.049928
    44  H    0.122478
    45  H   -0.018601
    46  H    0.009100
    47  H    0.008793
    48  H    0.065180
    49  H    0.021225
    50  H   -0.023055
    51  H    0.070070
    52  H    0.135770
    53  H    0.003892
    54  H   -0.022764
    55  H   -0.028015
    56  H    0.173793
    57  H    0.027638
    58  H    0.056242
    59  H    0.043481
    60  H    0.009472
    61  H    0.014071
    62  H    0.026894
    63  H    0.026338
    64  H   -0.238695
    65  H    0.028328
    66  H    0.034271
    67  H    0.007912
    68  H    0.002055
    69  H    0.094004
    70  H    0.001041
    71  H    0.048679
    72  H   -0.026288
    73  H    0.010042
    74  H   -0.007129
    75  H   -0.037104
    76  H    0.042071
    77  H    0.002559
    78  H    0.018777
    79  H   -0.001489
    80  H    0.226663
    81  H    0.233071
 Sum of Mulliken charges =  -0.00000

 Dipole moment (field-independent basis, Debye):
    X=             -2.5906    Y=              1.8567    Z=             -1.5956  Tot=              3.5644
 Quadrupole moment (field-independent basis, Debye-Ang):
   XX=           -238.9923   YY=           -229.0260   ZZ=           -254.7233
   XY=             23.2409   XZ=             13.5138   YZ=            -16.3427

 Normal termination of Gaussian 16 at Fri Jun 28 06:28:16 2019.
