 Gaussian 16, Revision A.03,
 Gaussian 16:  ES64L-G16RevA.03 25-Dec-2016

 --------------------------
 # td=(NStates=1) B3LYP/SVP
 --------------------------

 --
 TD
 --
 Symbolic Z-matrix:
 Charge =  0 Multiplicity = 1

                         Standard orientation:
 ---------------------------------------------------------------------
 Center     Atomic      Atomic             Coordinates (Angstroms)
 Number     Number       Type             X           Y           Z
 ---------------------------------------------------------------------
      1          8           0        4.490323   -4.747027   -1.812618
      2          8           0       -2.574548   -4.975584   -0.959864
      3          8           0       -6.985220   -1.801620   -1.862420
      4          8           0       -3.661574   -3.335824   -0.003063
      5          8           0       -7.614120   -0.417908   -0.151633
      6          8           0        2.916941    2.327362    0.419913
      7          7           0        0.237864   -0.403482    0.519044
      8          7           0       -1.650137    1.756165    0.298541
      9          7           0        3.341157   -3.102116   -0.578221
     10          7           0        0.701303    2.876091    0.045752
     11          6           0       -0.567091   -2.357632    1.491449
     12          6           0       -0.947318   -0.952420    1.042684
     13          6           0        0.780845   -2.557267    1.189963
     14          6           0        1.243134   -1.296154    0.570341
     15          6           0       -3.892959    1.432602    0.303365
     16          6           0       -2.568410    0.788692    0.625332
     17          6           0       -2.171842   -0.438641    0.937194
     18          6           0       -3.761290    2.733435   -0.076639
     19          6           0       -1.466066   -3.286690    2.083939
     20          6           0        5.492762   -2.664085   -1.371863
     21          6           0        3.591889   -1.708799   -0.264511
     22          6           0       -2.251631    2.958774   -0.111130
     23          6           0        4.995802   -1.438024   -0.494622
     24          6           0       -5.188476    0.649993    0.283675
     25          6           0        2.692732   -0.870394    0.365895
     26          6           0        1.498416   -3.807031    1.619795
     27          6           0        4.441224   -3.702868   -1.272626
     28          6           0       -1.825269   -4.496829    1.267933
     29          6           0       -5.349985   -0.341363   -0.852945
     30          6           0       -4.701233    3.820657   -0.457071
     31          6           0       -1.464309    4.103704   -0.374268
     32          6           0        6.864478   -3.266342   -1.060540
     33          6           0        5.820687   -0.438541   -0.076091
     34          6           0        0.014273    4.023244   -0.184252
     35          6           0        1.020497    5.135269   -0.487749
     36          6           0        2.205438    4.545029   -0.255692
     37          6           0       -2.783800   -4.153519    0.097720
     38          6           0        5.565795    0.736287    0.743343
     39          6           0       -6.777150   -0.869989   -0.925444
     40          6           0        3.609738    5.229033   -0.267382
     41          6           0        1.960074    3.143629    0.171228
     42          6           0        0.647734    6.611079   -0.824569
     43          6           0        4.239021    5.609793    1.149865
     44          1           0        0.261194    0.572960    0.123968
     45          1           0       -3.163133   -1.224498    1.093865
     46          1           0       -2.461933   -2.758172    2.404530
     47          1           0       -1.100046   -3.617351    2.950816
     48          1           0        5.472578   -2.349461   -2.447531
     49          1           0       -5.353445   -0.143608    1.032430
     50          1           0       -6.045265    1.285554    0.184623
     51          1           0        2.913250    0.091288    0.591360
     52          1           0       -0.430365    1.835425    0.413469
     53          1           0        1.321334   -4.706439    1.004387
     54          1           0        2.504316   -3.508864    1.914065
     55          1           0        0.998082   -4.041447    2.797940
     56          1           0        2.582598   -3.720779   -0.504786
     57          1           0       -1.114874   -5.135129    0.800253
     58          1           0       -2.660676   -4.964003    1.982558
     59          1           0       -4.644282   -1.060877   -0.737603
     60          1           0       -4.990117    0.132551   -1.767884
     61          1           0       -4.671644    4.842902    0.010824
     62          1           0       -5.730024    3.318511   -0.030835
     63          1           0       -4.907837    4.086575   -1.594265
     64          1           0       -1.926888    5.122968   -0.707060
     65          1           0        7.667822   -2.369537   -1.017577
     66          1           0        7.251229   -3.986946   -1.684061
     67          1           0        6.905781   -3.457010    0.122772
     68          1           0        6.787443   -0.495707   -0.882983
     69          1           0        5.256370    1.665860    0.159155
     70          1           0        6.453803    1.112306    1.030697
     71          1           0        4.842121    0.734556    1.557928
     72          1           0        3.599635    6.022807   -0.960255
     73          1           0        4.237895    4.394664   -0.922071
     74          1           0       -0.243822    6.636890   -1.583745
     75          1           0        1.430334    7.325681   -1.032593
     76          1           0        0.270441    7.009530    0.142767
     77          1           0        3.309028    5.989765    1.704662
     78          1           0        4.969909    6.262662    1.011010
     79          1           0        4.646333    4.654478    1.701370
     80          1           0       -3.177744   -4.959155   -1.621745
     81          1           0       -7.851391   -2.128525   -1.796766
 ---------------------------------------------------------------------

 SCF Done:  E(RB3LYP) =  -1949.06486478     A.U. after   19 cycles

 Excitation energies and oscillator strengths:

 Excited State   1:      Singlet-A      1.8120 eV  684.24 nm  f=0.2947  <S**2>=0.000
     156 ->157         0.70813
     156 <-157        -0.12040
 This state for optimization and/or second-order correction.
 Total Energy, E(TD-HF/TD-DFT) =  -1948.99827550
 Copying the excited state density for this state as the 1-particle RhoCI density.

 The electronic state is 1-A.
 Alpha  occ. eigenvalues --  -19.19133 -19.17950 -19.13930 -19.12686 -19.11282
 Alpha  occ. eigenvalues --  -19.09132 -14.39076 -14.36089 -14.35273 -14.30757
 Alpha  occ. eigenvalues --  -10.33500 -10.32500 -10.28367 -10.25931 -10.25037
 Alpha  occ. eigenvalues --  -10.24689 -10.24605 -10.24331 -10.23186 -10.23105
 Alpha  occ. eigenvalues --  -10.22458 -10.22192 -10.21701 -10.21161 -10.21064
 Alpha  occ. eigenvalues --  -10.20983 -10.20871 -10.20799 -10.20698 -10.20600
 Alpha  occ. eigenvalues --  -10.20472 -10.20382 -10.20234 -10.20002 -10.19922
 Alpha  occ. eigenvalues --  -10.19595 -10.19518 -10.18708 -10.18690 -10.18608
 Alpha  occ. eigenvalues --  -10.18515 -10.18367 -10.16903  -1.11377  -1.10700
 Alpha  occ. eigenvalues --   -1.05171  -1.01920  -1.01047  -0.99523  -0.98312
 Alpha  occ. eigenvalues --   -0.95446  -0.93594  -0.92534  -0.84301  -0.81697
 Alpha  occ. eigenvalues --   -0.81542  -0.80901  -0.78941  -0.78722  -0.77655
 Alpha  occ. eigenvalues --   -0.77091  -0.76121  -0.74756  -0.73533  -0.72454
 Alpha  occ. eigenvalues --   -0.70725  -0.69803  -0.69687  -0.68909  -0.67494
 Alpha  occ. eigenvalues --   -0.67032  -0.65145  -0.65066  -0.63184  -0.62382
 Alpha  occ. eigenvalues --   -0.61755  -0.60337  -0.58779  -0.58077  -0.56434
 Alpha  occ. eigenvalues --   -0.55562  -0.55225  -0.54516  -0.53474  -0.53187
 Alpha  occ. eigenvalues --   -0.52283  -0.51966  -0.50696  -0.50451  -0.49689
 Alpha  occ. eigenvalues --   -0.49101  -0.48910  -0.48493  -0.48179  -0.47655
 Alpha  occ. eigenvalues --   -0.46879  -0.46427  -0.46158  -0.46090  -0.45201
 Alpha  occ. eigenvalues --   -0.44938  -0.44488  -0.44306  -0.44055  -0.43759
 Alpha  occ. eigenvalues --   -0.43446  -0.43389  -0.43096  -0.42825  -0.41975
 Alpha  occ. eigenvalues --   -0.41760  -0.41621  -0.41386  -0.41242  -0.40887
 Alpha  occ. eigenvalues --   -0.40695  -0.40318  -0.40174  -0.39864  -0.39385
 Alpha  occ. eigenvalues --   -0.39197  -0.38882  -0.38503  -0.38323  -0.37714
 Alpha  occ. eigenvalues --   -0.37320  -0.37160  -0.36871  -0.36225  -0.35920
 Alpha  occ. eigenvalues --   -0.35809  -0.35658  -0.34856  -0.34772  -0.34276
 Alpha  occ. eigenvalues --   -0.34045  -0.33722  -0.33406  -0.33100  -0.32863
 Alpha  occ. eigenvalues --   -0.32406  -0.32175  -0.31540  -0.29746  -0.29171
 Alpha  occ. eigenvalues --   -0.28368  -0.28178  -0.26373  -0.25973  -0.25505
 Alpha  occ. eigenvalues --   -0.25170  -0.24605  -0.23956  -0.23771  -0.21893
 Alpha  occ. eigenvalues --   -0.17591
 Alpha virt. eigenvalues --   -0.10328  -0.05996  -0.03724  -0.01221   0.00021
 Alpha virt. eigenvalues --    0.00763   0.01753   0.02781   0.02997   0.03640
 Alpha virt. eigenvalues --    0.04129   0.04578   0.05323   0.05786   0.05899

 Mulliken charges:
               1
     1  O   -0.172143
     2  O   -0.150247
     3  O   -0.134250
     4  O   -0.205683
     5  O   -0.244079
     6  O   -0.287586
     7  N   -0.069442
     8  N   -0.262391
     9  N   -0.186980
    10  N   -0.243017
    11  C   -0.067473
    12  C    0.073299
    13  C   -0.154159
    14  C    0.043021
    15  C   -0.048969
    16  C    0.089604
    17  C   -0.121428
    18  C   -0.054453
    19  C    0.137619
    20  C   -0.077892
    21  C    0.169907
    22  C    0.094684
    23  C   -0.023757
    24  C    0.086385
    25  C   -0.035647
    26  C    0.013370
    27  C    0.112130
    28  C    0.017215
    29  C    0.017876
    30  C   -0.027584
    31  C   -0.113898
    32  C    0.040197
    33  C   -0.182778
    34  C    0.042247
    35  C   -0.083627
    36  C   -0.202273
    37  C    0.086344
    38  C    0.140566
    39  C    0.153005
    40  C    0.034449
    41  C    0.147144
    42  C    0.079680
    43  C    0.030131
    44  H    0.146277
    45  H    0.076020
    46  H    0.020009
    47  H   -0.036768
    48  H    0.047654
    49  H    0.006751
    50  H    0.003025
    51  H   -0.053568
    52  H    0.237286
    53  H    0.059810
    54  H    0.046076
    55  H    0.032305
    56  H    0.110512
    57  H    0.030798
    58  H    0.062784
    59  H   -0.004103
    60  H    0.014266
    61  H    0.039471
    62  H    0.036000
    63  H    0.049591
    64  H    0.015472
    65  H    0.007414
    66  H    0.023059
    67  H    0.021761
    68  H    0.037070
    69  H    0.050953
    70  H   -0.036354
    71  H    0.039809
    72  H   -0.020341
    73  H    0.022512
    74  H    0.041389
    75  H    0.014457
    76  H    0.026172
    77  H    0.027745
    78  H   -0.006958
    79  H    0.047245
    80  H    0.145036
    81  H    0.160249
 Sum of Mulliken charges =  -0.00000

 Dipole moment (field-independent basis, Debye):
    X=             -2.6046    Y=             -0.1272    Z=             -0.2154  Tot=              2.6166
 Quadrupole moment (field-independent basis, Debye-Ang):
   XX=           -258.0764   YY=           -229.9626   ZZ=           -253.1461
   XY=             23.9006   XZ=             14.1122   YZ=            -12.4483

 Normal termination of Gaussian 16 at Sat Jun 29 07:32:31 2019.
