 Gaussian 16, Revision A.03,
 Gaussian 16:  ES64L-G16RevA.03 25-Dec-2016

 --------------------------
 # td=(NStates=1) B3LYP/SVP
 --------------------------

 --
 TD
 --
 Symbolic Z-matrix:
 Charge =  0 Multiplicity = 1

                         Standard orientation:
 ---------------------------------------------------------------------
 Center     Atomic      Atomic             Coordinates (Angstroms)
 Number     Number       Type             X           Y           Z
 ---------------------------------------------------------------------
      1          8           0        4.169310   -4.912343   -1.802440
      2          8           0       -2.801700   -4.956645   -1.053056
      3          8           0       -7.068663   -1.529202   -1.912589
      4          8           0       -3.789207   -3.175653    0.087289
      5          8           0       -7.694043   -0.522136   -0.081560
      6          8           0        2.946618    2.249275    0.254996
      7          7           0        0.225545   -0.534417    0.708393
      8          7           0       -1.570707    1.843738    0.269722
      9          7           0        3.266672   -3.194877   -0.539766
     10          7           0        0.741156    2.882352    0.074372
     11          6           0       -0.633033   -2.390511    1.553900
     12          6           0       -0.966906   -1.107355    0.978549
     13          6           0        0.693103   -2.622547    1.401545
     14          6           0        1.254673   -1.356888    0.767818
     15          6           0       -3.780335    1.559388    0.197725
     16          6           0       -2.483529    0.849438    0.442945
     17          6           0       -2.222469   -0.446741    0.750123
     18          6           0       -3.564690    2.899210   -0.106209
     19          6           0       -1.654595   -3.310946    2.140817
     20          6           0        5.361079   -2.789429   -1.476550
     21          6           0        3.598444   -1.921753   -0.144135
     22          6           0       -2.096866    3.029819   -0.077268
     23          6           0        4.984025   -1.656802   -0.511486
     24          6           0       -5.121982    0.851770    0.185040
     25          6           0        2.582702   -1.051099    0.375582
     26          6           0        1.476126   -3.718251    1.948150
     27          6           0        4.262790   -3.791963   -1.302810
     28          6           0       -2.033311   -4.481328    1.114894
     29          6           0       -5.355786   -0.135802   -0.903530
     30          6           0       -4.466929    4.020872   -0.448734
     31          6           0       -1.241181    4.171437   -0.308031
     32          6           0        6.811593   -3.362224   -1.246329
     33          6           0        5.830329   -0.734306   -0.098087
     34          6           0        0.149711    4.108239   -0.215089
     35          6           0        1.150183    5.127390   -0.428700
     36          6           0        2.383063    4.631477   -0.188585
     37          6           0       -2.955267   -4.117856    0.009903
     38          6           0        5.536772    0.516490    0.793598
     39          6           0       -6.827950   -0.675758   -0.845524
     40          6           0        3.740838    5.263373   -0.219714
     41          6           0        2.190230    3.252036    0.054497
     42          6           0        0.780778    6.628877   -0.737788
     43          6           0        4.318575    5.528989    1.150829
     44          1           0        0.428062    0.488084    0.432867
     45          1           0       -3.093880   -0.991035    1.157855
     46          1           0       -2.696816   -2.909490    2.381968
     47          1           0       -1.267808   -3.861765    2.993407
     48          1           0        5.382220   -2.385786   -2.523754
     49          1           0       -5.430826    0.584921    1.282551
     50          1           0       -5.828232    1.724500    0.150743
     51          1           0        2.812639    0.104200    0.353219
     52          1           0       -0.477239    1.881358    0.282449
     53          1           0        1.417701   -4.505116    1.219649
     54          1           0        2.625126   -3.593158    2.061191
     55          1           0        1.100132   -3.950236    2.828550
     56          1           0        2.390594   -3.604602   -0.427124
     57          1           0       -1.083658   -4.833966    0.716077
     58          1           0       -2.671983   -5.245153    1.709555
     59          1           0       -4.750425   -1.046826   -0.745594
     60          1           0       -5.174313    0.045104   -1.878896
     61          1           0       -4.276223    4.884577    0.237280
     62          1           0       -5.577137    3.669875   -0.524542
     63          1           0       -4.256880    4.360109   -1.354151
     64          1           0       -1.789218    5.069633   -0.380188
     65          1           0        7.484405   -2.748921   -1.724893
     66          1           0        6.911239   -4.282368   -1.925021
     67          1           0        6.918773   -3.751856   -0.364540
     68          1           0        6.816135   -0.302912   -0.574001
     69          1           0        5.066733    1.306556    0.099320
     70          1           0        6.331927    0.897918    1.134501
     71          1           0        4.829968    0.444722    1.627670
     72          1           0        3.693090    6.184966   -1.052451
     73          1           0        4.631071    4.690718   -0.810942
     74          1           0        0.326003    6.660452   -1.733844
     75          1           0        1.881770    7.145528   -1.066256
     76          1           0        0.046699    7.026808    0.080722
     77          1           0        3.752738    6.216576    1.633751
     78          1           0        5.372304    5.843131    1.210333
     79          1           0        4.298332    4.505193    1.684785
     80          1           0       -3.147337   -4.495630   -1.760004
     81          1           0       -7.933998   -2.033529   -1.606484
 ---------------------------------------------------------------------

 SCF Done:  E(RB3LYP) =  -1949.10538216     A.U. after   18 cycles

 Excitation energies and oscillator strengths:

 Excited State   1:      Singlet-A      1.6600 eV  746.91 nm  f=0.2990  <S**2>=0.000
     156 ->157         0.71080
     156 <-157        -0.13324
 This state for optimization and/or second-order correction.
 Total Energy, E(TD-HF/TD-DFT) =  -1949.04438007
 Copying the excited state density for this state as the 1-particle RhoCI density.

 The electronic state is 1-A.
 Alpha  occ. eigenvalues --  -19.19896 -19.16267 -19.14516 -19.12708 -19.11159
 Alpha  occ. eigenvalues --  -19.10076 -14.38617 -14.37439 -14.35050 -14.28615
 Alpha  occ. eigenvalues --  -10.34066 -10.31097 -10.29413 -10.26536 -10.25379
 Alpha  occ. eigenvalues --  -10.24048 -10.23399 -10.23265 -10.22712 -10.22182
 Alpha  occ. eigenvalues --  -10.21982 -10.21965 -10.21608 -10.21459 -10.21209
 Alpha  occ. eigenvalues --  -10.21115 -10.21076 -10.20753 -10.20432 -10.20396
 Alpha  occ. eigenvalues --  -10.20339 -10.20117 -10.19980 -10.19949 -10.19854
 Alpha  occ. eigenvalues --  -10.19750 -10.19554 -10.19412 -10.19299 -10.18729
 Alpha  occ. eigenvalues --  -10.17908 -10.17763 -10.16326  -1.11244  -1.09388
 Alpha  occ. eigenvalues --   -1.03319  -1.01019  -1.00198  -0.99059  -0.98736
 Alpha  occ. eigenvalues --   -0.97592  -0.96210  -0.89995  -0.83133  -0.82135
 Alpha  occ. eigenvalues --   -0.81698  -0.81224  -0.79876  -0.78794  -0.78098
 Alpha  occ. eigenvalues --   -0.77064  -0.75959  -0.74759  -0.74202  -0.73264
 Alpha  occ. eigenvalues --   -0.71754  -0.70917  -0.69743  -0.69232  -0.68706
 Alpha  occ. eigenvalues --   -0.66654  -0.66248  -0.65014  -0.62827  -0.61461
 Alpha  occ. eigenvalues --   -0.61122  -0.59354  -0.58683  -0.57927  -0.57162
 Alpha  occ. eigenvalues --   -0.55726  -0.55554  -0.55067  -0.54085  -0.53778
 Alpha  occ. eigenvalues --   -0.52303  -0.51262  -0.50861  -0.50290  -0.50040
 Alpha  occ. eigenvalues --   -0.49518  -0.49016  -0.48775  -0.48021  -0.47358
 Alpha  occ. eigenvalues --   -0.46998  -0.46707  -0.46480  -0.46081  -0.45651
 Alpha  occ. eigenvalues --   -0.45335  -0.45108  -0.44668  -0.44444  -0.44074
 Alpha  occ. eigenvalues --   -0.43537  -0.43214  -0.42924  -0.42763  -0.42489
 Alpha  occ. eigenvalues --   -0.42458  -0.42254  -0.41591  -0.41435  -0.41144
 Alpha  occ. eigenvalues --   -0.40926  -0.40650  -0.40376  -0.40200  -0.39903
 Alpha  occ. eigenvalues --   -0.39518  -0.39246  -0.39038  -0.38661  -0.38365
 Alpha  occ. eigenvalues --   -0.38025  -0.37620  -0.37420  -0.37203  -0.36645
 Alpha  occ. eigenvalues --   -0.36520  -0.36012  -0.35671  -0.35179  -0.34544
 Alpha  occ. eigenvalues --   -0.34345  -0.34171  -0.33783  -0.32912  -0.32535
 Alpha  occ. eigenvalues --   -0.32058  -0.31348  -0.31108  -0.29936  -0.29434
 Alpha  occ. eigenvalues --   -0.27948  -0.27703  -0.26755  -0.26235  -0.25959
 Alpha  occ. eigenvalues --   -0.25524  -0.24800  -0.23904  -0.23731  -0.20853
 Alpha  occ. eigenvalues --   -0.17065
 Alpha virt. eigenvalues --   -0.10439  -0.06602  -0.04153  -0.02954  -0.00951
 Alpha virt. eigenvalues --    0.01752   0.02514   0.03144   0.03369   0.04438
 Alpha virt. eigenvalues --    0.04637   0.04910   0.05400   0.05706   0.05940

 Mulliken charges:
               1
     1  O   -0.221081
     2  O   -0.140355
     3  O   -0.269211
     4  O   -0.262872
     5  O   -0.177255
     6  O   -0.257132
     7  N   -0.032169
     8  N   -0.095169
     9  N   -0.068471
    10  N   -0.408640
    11  C   -0.065037
    12  C    0.001750
    13  C   -0.196029
    14  C    0.025979
    15  C   -0.125489
    16  C    0.096971
    17  C   -0.033818
    18  C   -0.117103
    19  C    0.102303
    20  C   -0.119991
    21  C    0.063061
    22  C   -0.007226
    23  C    0.070052
    24  C    0.067366
    25  C   -0.130849
    26  C    0.142217
    27  C    0.137354
    28  C   -0.014179
    29  C    0.099016
    30  C    0.159723
    31  C   -0.075458
    32  C    0.171065
    33  C   -0.217382
    34  C    0.147994
    35  C   -0.110830
    36  C   -0.091604
    37  C    0.142459
    38  C    0.082717
    39  C    0.102492
    40  C   -0.050677
    41  C    0.188861
    42  C    0.046206
    43  C    0.050833
    44  H    0.170297
    45  H    0.018752
    46  H    0.032054
    47  H   -0.002694
    48  H    0.051945
    49  H    0.035707
    50  H   -0.011941
    51  H    0.072966
    52  H    0.171240
    53  H    0.009361
    54  H    0.040012
    55  H   -0.014464
    56  H    0.103340
    57  H    0.028017
    58  H    0.065097
    59  H    0.045389
    60  H   -0.009702
    61  H    0.030033
    62  H    0.026934
    63  H   -0.019783
    64  H   -0.061622
    65  H   -0.005715
    66  H    0.013748
    67  H   -0.030720
    68  H    0.031592
    69  H    0.065556
    70  H   -0.058376
    71  H    0.021246
    72  H    0.013088
    73  H    0.031414
    74  H    0.023167
    75  H    0.037534
    76  H    0.067712
    77  H   -0.008745
    78  H    0.012837
    79  H    0.036511
    80  H    0.155119
    81  H    0.202700
 Sum of Mulliken charges =  -0.00000

 Dipole moment (field-independent basis, Debye):
    X=             -0.1470    Y=              1.1325    Z=              0.0423  Tot=              1.1428
 Quadrupole moment (field-independent basis, Debye-Ang):
   XX=           -257.3132   YY=           -240.1825   ZZ=           -252.5241
   XY=             14.4590   XZ=              5.9688   YZ=            -14.7314

 Normal termination of Gaussian 16 at Tue Jul  2 04:05:10 2019.
