 Gaussian 16, Revision A.03,
 Gaussian 16:  ES64L-G16RevA.03 25-Dec-2016

 --------------------------
 # td=(NStates=1) B3LYP/SVP
 --------------------------

 --
 TD
 --
 Symbolic Z-matrix:
 Charge =  0 Multiplicity = 1

                         Standard orientation:
 ---------------------------------------------------------------------
 Center     Atomic      Atomic             Coordinates (Angstroms)
 Number     Number       Type             X           Y           Z
 ---------------------------------------------------------------------
      1          8           0        4.169236   -5.009567   -1.727922
      2          8           0       -2.980875   -4.958385   -0.899392
      3          8           0       -7.061402   -1.546492   -1.989088
      4          8           0       -3.694704   -3.172322    0.039052
      5          8           0       -7.735720   -0.609282   -0.136349
      6          8           0        3.098199    2.503409    0.460959
      7          7           0        0.367342   -0.463786    0.627146
      8          7           0       -1.597291    1.867344    0.404507
      9          7           0        3.338029   -3.106787   -0.604986
     10          7           0        0.752011    2.875364   -0.034826
     11          6           0       -0.579915   -2.316190    1.544987
     12          6           0       -0.882685   -1.057153    1.091040
     13          6           0        0.732838   -2.509557    1.399300
     14          6           0        1.391794   -1.324945    0.849473
     15          6           0       -3.813570    1.472132    0.184315
     16          6           0       -2.518533    0.850037    0.525973
     17          6           0       -2.196655   -0.446365    0.963820
     18          6           0       -3.611762    2.734489   -0.118821
     19          6           0       -1.571159   -3.321110    2.100130
     20          6           0        5.448696   -2.851628   -1.456808
     21          6           0        3.673763   -1.874976   -0.129155
     22          6           0       -2.165061    2.971805   -0.055396
     23          6           0        4.957556   -1.725909   -0.655271
     24          6           0       -5.140050    0.653410    0.353098
     25          6           0        2.712741   -0.962100    0.315350
     26          6           0        1.558325   -3.731010    1.882435
     27          6           0        4.261237   -3.865176   -1.298176
     28          6           0       -1.909137   -4.441006    1.172662
     29          6           0       -5.381181   -0.290425   -0.818943
     30          6           0       -4.574720    3.743195   -0.607684
     31          6           0       -1.312662    4.071817   -0.309248
     32          6           0        6.821605   -3.428257   -0.945398
     33          6           0        5.851567   -0.540188   -0.462864
     34          6           0        0.121600    4.053889   -0.279839
     35          6           0        1.043343    5.183644   -0.553434
     36          6           0        2.234129    4.643833   -0.210654
     37          6           0       -2.837386   -4.028780    0.022017
     38          6           0        5.571544    0.754497    0.258835
     39          6           0       -6.874367   -0.634759   -0.913547
     40          6           0        3.563858    5.413287   -0.066477
     41          6           0        2.179426    3.206070    0.082536
     42          6           0        0.670558    6.646826   -0.805965
     43          6           0        4.205191    5.549702    1.385513
     44          1           0        0.511044    0.432908    0.235462
     45          1           0       -3.004966   -1.045776    1.177387
     46          1           0       -2.534084   -2.755450    2.539407
     47          1           0       -1.024767   -3.563208    3.025652
     48          1           0        5.671504   -2.519133   -2.673841
     49          1           0       -5.192768    0.071919    1.410840
     50          1           0       -5.989213    1.205440    0.410270
     51          1           0        3.120185    0.129332    0.342062
     52          1           0       -0.595349    1.822391    0.531492
     53          1           0        1.258550   -4.751167    1.313126
     54          1           0        2.731853   -3.570215    1.753378
     55          1           0        1.217766   -4.231369    2.742562
     56          1           0        2.384176   -3.278979   -0.650932
     57          1           0       -1.015030   -4.859796    0.834858
     58          1           0       -2.343374   -5.199102    1.684730
     59          1           0       -4.769550   -1.114730   -0.774725
     60          1           0       -5.039820    0.179777   -1.710203
     61          1           0       -4.257277    4.676248   -0.203449
     62          1           0       -5.655149    3.560626   -0.456325
     63          1           0       -4.330988    3.917494   -1.697716
     64          1           0       -1.716862    5.070849   -0.579544
     65          1           0        7.508477   -2.765940   -1.219523
     66          1           0        6.907433   -4.424899   -1.518827
     67          1           0        6.638748   -3.648503    0.001123
     68          1           0        6.677796   -0.669297   -1.057661
     69          1           0        4.703650    1.265821   -0.299985
     70          1           0        6.398253    1.522867    0.231873
     71          1           0        5.313473    0.475790    1.243049
     72          1           0        3.262067    6.528333   -0.682800
     73          1           0        4.345475    4.889758   -0.693823
     74          1           0       -0.097907    6.710323   -1.797000
     75          1           0        1.345323    7.507405   -0.954289
     76          1           0       -0.016980    6.905899   -0.001132
     77          1           0        3.431454    6.042405    2.216772
     78          1           0        5.093893    6.044530    1.460406
     79          1           0        4.324072    4.399729    1.646346
     80          1           0       -3.659029   -4.559988   -1.514407
     81          1           0       -7.766166   -1.860743   -1.698413
 ---------------------------------------------------------------------

 SCF Done:  E(RB3LYP) =  -1949.05433560     A.U. after   16 cycles

 Excitation energies and oscillator strengths:

 Excited State   1:      Singlet-A      1.6426 eV  754.81 nm  f=0.2661  <S**2>=0.000
     156 ->157         0.70993
     156 <-157        -0.11390
 This state for optimization and/or second-order correction.
 Total Energy, E(TD-HF/TD-DFT) =  -1948.99397162
 Copying the excited state density for this state as the 1-particle RhoCI density.

 The electronic state is 1-A.
 Alpha  occ. eigenvalues --  -19.19628 -19.14843 -19.14735 -19.14053 -19.11816
 Alpha  occ. eigenvalues --  -19.11658 -14.37659 -14.36760 -14.36147 -14.28842
 Alpha  occ. eigenvalues --  -10.33667 -10.32392 -10.29853 -10.27095 -10.24530
 Alpha  occ. eigenvalues --  -10.24310 -10.24158 -10.23367 -10.23310 -10.23298
 Alpha  occ. eigenvalues --  -10.22003 -10.21817 -10.21564 -10.21490 -10.21291
 Alpha  occ. eigenvalues --  -10.21100 -10.21094 -10.21054 -10.20747 -10.20741
 Alpha  occ. eigenvalues --  -10.20574 -10.20288 -10.20257 -10.20135 -10.19966
 Alpha  occ. eigenvalues --  -10.19953 -10.19911 -10.19362 -10.19354 -10.19213
 Alpha  occ. eigenvalues --  -10.18873 -10.18819 -10.17772  -1.12872  -1.12481
 Alpha  occ. eigenvalues --   -1.03447  -1.02898  -1.02301  -1.01308  -0.99645
 Alpha  occ. eigenvalues --   -0.97806  -0.97212  -0.90976  -0.84085  -0.82898
 Alpha  occ. eigenvalues --   -0.81544  -0.80803  -0.79340  -0.79070  -0.78633
 Alpha  occ. eigenvalues --   -0.77810  -0.76021  -0.74403  -0.73650  -0.72161
 Alpha  occ. eigenvalues --   -0.71664  -0.70615  -0.69284  -0.68815  -0.68099
 Alpha  occ. eigenvalues --   -0.67584  -0.65869  -0.64164  -0.62876  -0.61990
 Alpha  occ. eigenvalues --   -0.60992  -0.59623  -0.58735  -0.58359  -0.58117
 Alpha  occ. eigenvalues --   -0.57037  -0.56325  -0.55150  -0.54072  -0.53804
 Alpha  occ. eigenvalues --   -0.52765  -0.52105  -0.51141  -0.50785  -0.50657
 Alpha  occ. eigenvalues --   -0.50074  -0.49431  -0.49010  -0.48837  -0.48396
 Alpha  occ. eigenvalues --   -0.47868  -0.46717  -0.46327  -0.45819  -0.45424
 Alpha  occ. eigenvalues --   -0.45018  -0.45002  -0.44464  -0.44307  -0.43831
 Alpha  occ. eigenvalues --   -0.43680  -0.43596  -0.43427  -0.42881  -0.42690
 Alpha  occ. eigenvalues --   -0.42285  -0.41640  -0.41514  -0.41365  -0.41255
 Alpha  occ. eigenvalues --   -0.41059  -0.40617  -0.40599  -0.40063  -0.40016
 Alpha  occ. eigenvalues --   -0.39633  -0.39554  -0.39202  -0.39009  -0.38829
 Alpha  occ. eigenvalues --   -0.38569  -0.38203  -0.37564  -0.37220  -0.36742
 Alpha  occ. eigenvalues --   -0.36666  -0.36437  -0.35701  -0.35380  -0.35165
 Alpha  occ. eigenvalues --   -0.34897  -0.34559  -0.34250  -0.33590  -0.33515
 Alpha  occ. eigenvalues --   -0.33434  -0.32526  -0.31573  -0.30431  -0.29794
 Alpha  occ. eigenvalues --   -0.29602  -0.29103  -0.26991  -0.26483  -0.26296
 Alpha  occ. eigenvalues --   -0.25445  -0.24494  -0.23876  -0.23102  -0.21198
 Alpha  occ. eigenvalues --   -0.17372
 Alpha virt. eigenvalues --   -0.10511  -0.06791  -0.05044  -0.02312  -0.02005
 Alpha virt. eigenvalues --   -0.01384   0.01976   0.03027   0.03959   0.04243
 Alpha virt. eigenvalues --    0.04315   0.04925   0.06008   0.06188   0.06507

 Mulliken charges:
               1
     1  O   -0.209676
     2  O   -0.157126
     3  O   -0.149283
     4  O   -0.238730
     5  O   -0.167962
     6  O   -0.214834
     7  N   -0.100477
     8  N   -0.013674
     9  N   -0.087447
    10  N   -0.385520
    11  C   -0.073403
    12  C    0.077145
    13  C   -0.170327
    14  C    0.062620
    15  C   -0.073699
    16  C    0.029801
    17  C    0.006178
    18  C   -0.129791
    19  C    0.042555
    20  C   -0.197604
    21  C    0.070839
    22  C    0.086993
    23  C   -0.110504
    24  C    0.104282
    25  C   -0.116345
    26  C    0.046652
    27  C    0.168636
    28  C    0.158116
    29  C    0.062906
    30  C    0.128700
    31  C   -0.117613
    32  C    0.167542
    33  C   -0.062735
    34  C    0.048243
    35  C   -0.033419
    36  C   -0.161581
    37  C    0.119021
    38  C    0.075424
    39  C    0.125705
    40  C   -0.012041
    41  C    0.207503
    42  C    0.034262
    43  C   -0.036485
    44  H    0.112224
    45  H   -0.049421
    46  H    0.033467
    47  H    0.016823
    48  H    0.067093
    49  H    0.041389
    50  H   -0.035674
    51  H    0.056548
    52  H    0.116895
    53  H    0.005744
    54  H    0.070260
    55  H   -0.014994
    56  H    0.107516
    57  H   -0.002656
    58  H    0.014768
    59  H    0.022324
    60  H    0.013894
    61  H    0.002066
    62  H    0.029668
    63  H    0.025640
    64  H   -0.036417
    65  H   -0.011515
    66  H    0.033558
    67  H   -0.019186
    68  H   -0.037794
    69  H    0.093732
    70  H    0.020683
    71  H    0.034223
    72  H    0.008926
    73  H    0.023098
    74  H    0.029694
    75  H    0.040686
    76  H    0.030398
    77  H    0.027146
    78  H    0.008326
    79  H    0.053942
    80  H    0.195121
    81  H    0.068962
 Sum of Mulliken charges =  -0.00000

 Dipole moment (field-independent basis, Debye):
    X=             -1.2506    Y=              1.2578    Z=              0.2370  Tot=              1.7895
 Quadrupole moment (field-independent basis, Debye-Ang):
   XX=           -256.7747   YY=           -245.4260   ZZ=           -256.2101
   XY=             10.0575   XZ=              3.9168   YZ=            -15.9645

 Normal termination of Gaussian 16 at Fri Jun 28 19:42:44 2019.
