 Gaussian 16, Revision A.03,
 Gaussian 16:  ES64L-G16RevA.03 25-Dec-2016

 --------------------------
 # td=(NStates=1) B3LYP/SVP
 --------------------------

 --
 TD
 --
 Symbolic Z-matrix:
 Charge =  0 Multiplicity = 1

                         Standard orientation:
 ---------------------------------------------------------------------
 Center     Atomic      Atomic             Coordinates (Angstroms)
 Number     Number       Type             X           Y           Z
 ---------------------------------------------------------------------
      1          8           0        4.203694   -4.980864   -1.831244
      2          8           0       -2.897390   -4.589662   -1.090783
      3          8           0       -7.108366   -1.341254   -1.908413
      4          8           0       -3.948445   -3.146852    0.184852
      5          8           0       -7.687127   -0.210184    0.032546
      6          8           0        3.149623    2.356285    0.514834
      7          7           0        0.241799   -0.466904    0.487997
      8          7           0       -1.428327    1.834306    0.342011
      9          7           0        3.283701   -3.156448   -0.754670
     10          7           0        0.873794    2.864074    0.179437
     11          6           0       -0.694744   -2.424739    1.378762
     12          6           0       -0.899040   -1.054303    0.930187
     13          6           0        0.677136   -2.749355    1.178103
     14          6           0        1.227522   -1.479740    0.662200
     15          6           0       -3.785009    1.473860    0.163589
     16          6           0       -2.503382    0.766219    0.567490
     17          6           0       -2.294775   -0.484103    0.957381
     18          6           0       -3.420695    2.746700   -0.143243
     19          6           0       -1.619313   -3.340606    2.038785
     20          6           0        5.383802   -2.794142   -1.335218
     21          6           0        3.473506   -1.889345   -0.305450
     22          6           0       -1.965323    2.971676   -0.041198
     23          6           0        4.882892   -1.598956   -0.468370
     24          6           0       -5.101614    0.938651    0.289639
     25          6           0        2.511497   -1.114100    0.317883
     26          6           0        1.400971   -3.966135    1.632181
     27          6           0        4.287203   -3.811539   -1.356007
     28          6           0       -2.078403   -4.445816    1.120333
     29          6           0       -5.388664   -0.018778   -0.894308
     30          6           0       -4.338046    3.873334   -0.478318
     31          6           0       -1.085642    4.045767   -0.329622
     32          6           0        6.721979   -3.470467   -0.926481
     33          6           0        5.694066   -0.649260   -0.167588
     34          6           0        0.233638    3.943313   -0.213005
     35          6           0        1.123191    5.099465   -0.413902
     36          6           0        2.373260    4.613811   -0.138807
     37          6           0       -3.099750   -4.036239    0.082374
     38          6           0        5.410234    0.504006    0.820199
     39          6           0       -6.801865   -0.492089   -0.849017
     40          6           0        3.725241    5.299530   -0.312625
     41          6           0        2.239752    3.146229    0.185886
     42          6           0        0.766585    6.470784   -0.746121
     43          6           0        4.454925    5.568096    1.006796
     44          1           0        0.215596    0.353338    0.035889
     45          1           0       -3.174219   -1.164716    1.422954
     46          1           0       -2.556386   -2.971493    2.539028
     47          1           0       -1.126531   -3.845352    2.998181
     48          1           0        5.509573   -2.463861   -2.394421
     49          1           0       -5.395853    0.377951    1.269186
     50          1           0       -6.030566    1.530463    0.289007
     51          1           0        2.997927   -0.031512    0.611212
     52          1           0       -0.499344    1.927760    0.775514
     53          1           0        1.386710   -4.920853    0.934413
     54          1           0        2.306225   -3.566016    2.071109
     55          1           0        0.990292   -4.438416    2.501573
     56          1           0        2.352045   -3.770210   -0.538489
     57          1           0       -1.208475   -4.951010    0.604014
     58          1           0       -2.630182   -5.187103    1.535032
     59          1           0       -4.796833   -0.842660   -0.836461
     60          1           0       -5.205604    0.648533   -1.827896
     61          1           0       -3.881273    4.673178    0.166324
     62          1           0       -5.279695    3.620094   -0.034244
     63          1           0       -4.412172    3.923087   -1.784911
     64          1           0       -1.388294    5.010559   -0.744164
     65          1           0        7.659327   -2.831412   -1.183425
     66          1           0        6.789069   -4.366864   -1.434196
     67          1           0        6.692248   -3.547033    0.156502
     68          1           0        6.709560   -0.681502   -0.577591
     69          1           0        4.872231    1.377368    0.512532
     70          1           0        6.306372    0.860115    1.286106
     71          1           0        4.692684    0.055020    1.630150
     72          1           0        3.537146    6.331471   -0.806948
     73          1           0        4.402812    4.800887   -1.299021
     74          1           0        0.194026    6.680387   -1.691041
     75          1           0        1.713849    7.029991   -0.888405
     76          1           0        0.169086    7.101474   -0.104385
     77          1           0        3.712617    6.292147    1.634102
     78          1           0        5.280593    6.354874    0.683045
     79          1           0        4.843437    4.781046    1.616196
     80          1           0       -3.477078   -4.324373   -1.687555
     81          1           0       -7.830401   -1.900680   -1.711754
 ---------------------------------------------------------------------

 SCF Done:  E(RB3LYP) =  -1949.08839401     A.U. after   16 cycles

 Excitation energies and oscillator strengths:

 Excited State   1:      Singlet-A      1.7613 eV  703.92 nm  f=0.2705  <S**2>=0.000
     156 ->157         0.70731
 This state for optimization and/or second-order correction.
 Total Energy, E(TD-HF/TD-DFT) =  -1949.02366578
 Copying the excited state density for this state as the 1-particle RhoCI density.

 The electronic state is 1-A.
 Alpha  occ. eigenvalues --  -19.19471 -19.18240 -19.13825 -19.13674 -19.10374
 Alpha  occ. eigenvalues --  -19.09853 -14.38023 -14.37227 -14.36793 -14.28299
 Alpha  occ. eigenvalues --  -10.33730 -10.33567 -10.28050 -10.26650 -10.25056
 Alpha  occ. eigenvalues --  -10.24474 -10.24142 -10.23921 -10.23585 -10.22807
 Alpha  occ. eigenvalues --  -10.22213 -10.21590 -10.21566 -10.21557 -10.21456
 Alpha  occ. eigenvalues --  -10.21352 -10.21272 -10.21112 -10.20903 -10.20849
 Alpha  occ. eigenvalues --  -10.20645 -10.20402 -10.19749 -10.19632 -10.19569
 Alpha  occ. eigenvalues --  -10.19519 -10.19028 -10.18691 -10.18572 -10.18528
 Alpha  occ. eigenvalues --  -10.18357 -10.17991 -10.16527  -1.13755  -1.08109
 Alpha  occ. eigenvalues --   -1.01596  -1.01433  -1.00097  -0.98697  -0.98667
 Alpha  occ. eigenvalues --   -0.97469  -0.94664  -0.92435  -0.84233  -0.83902
 Alpha  occ. eigenvalues --   -0.81308  -0.81020  -0.79880  -0.79673  -0.78944
 Alpha  occ. eigenvalues --   -0.78359  -0.76869  -0.74922  -0.74009  -0.73431
 Alpha  occ. eigenvalues --   -0.72017  -0.71010  -0.69777  -0.69171  -0.68291
 Alpha  occ. eigenvalues --   -0.67302  -0.65748  -0.64562  -0.64059  -0.62325
 Alpha  occ. eigenvalues --   -0.61583  -0.59912  -0.59331  -0.58198  -0.57258
 Alpha  occ. eigenvalues --   -0.56725  -0.55642  -0.55479  -0.53653  -0.53141
 Alpha  occ. eigenvalues --   -0.52187  -0.51960  -0.51251  -0.50790  -0.50703
 Alpha  occ. eigenvalues --   -0.50540  -0.49455  -0.48498  -0.47932  -0.47682
 Alpha  occ. eigenvalues --   -0.47444  -0.47108  -0.46414  -0.45738  -0.45400
 Alpha  occ. eigenvalues --   -0.45150  -0.44687  -0.44444  -0.44177  -0.43686
 Alpha  occ. eigenvalues --   -0.43482  -0.43063  -0.42883  -0.42262  -0.41893
 Alpha  occ. eigenvalues --   -0.41606  -0.41532  -0.41261  -0.41158  -0.41119
 Alpha  occ. eigenvalues --   -0.40645  -0.40536  -0.40153  -0.39969  -0.39751
 Alpha  occ. eigenvalues --   -0.39447  -0.39135  -0.38364  -0.38257  -0.37987
 Alpha  occ. eigenvalues --   -0.37764  -0.37659  -0.37203  -0.36867  -0.36639
 Alpha  occ. eigenvalues --   -0.36475  -0.35949  -0.35150  -0.34873  -0.34486
 Alpha  occ. eigenvalues --   -0.33892  -0.33674  -0.33570  -0.33332  -0.32885
 Alpha  occ. eigenvalues --   -0.32072  -0.31718  -0.31498  -0.30249  -0.29371
 Alpha  occ. eigenvalues --   -0.28621  -0.27482  -0.26403  -0.26143  -0.25817
 Alpha  occ. eigenvalues --   -0.24989  -0.24827  -0.23917  -0.23696  -0.21729
 Alpha  occ. eigenvalues --   -0.17882
 Alpha virt. eigenvalues --   -0.10439  -0.05874  -0.03862  -0.02750  -0.01530
 Alpha virt. eigenvalues --    0.00668   0.00807   0.02230   0.02615   0.03594
 Alpha virt. eigenvalues --    0.04324   0.04605   0.05039   0.05364   0.06268

 Mulliken charges:
               1
     1  O   -0.273579
     2  O   -0.072493
     3  O   -0.197041
     4  O   -0.257560
     5  O   -0.280864
     6  O   -0.229948
     7  N    0.006970
     8  N   -0.141585
     9  N   -0.109559
    10  N   -0.287461
    11  C   -0.082544
    12  C   -0.000307
    13  C   -0.120352
    14  C    0.101209
    15  C    0.054495
    16  C    0.136283
    17  C   -0.104183
    18  C   -0.182624
    19  C    0.030976
    20  C   -0.121485
    21  C    0.072702
    22  C    0.122004
    23  C    0.063162
    24  C   -0.022796
    25  C   -0.196820
    26  C    0.071027
    27  C    0.127478
    28  C    0.081816
    29  C    0.021626
    30  C    0.080425
    31  C   -0.146143
    32  C    0.063553
    33  C   -0.161448
    34  C    0.081089
    35  C   -0.049074
    36  C   -0.163506
    37  C    0.072067
    38  C    0.042230
    39  C    0.174708
    40  C   -0.015015
    41  C    0.182301
    42  C    0.085102
    43  C   -0.024687
    44  H    0.085240
    45  H    0.079414
    46  H    0.017136
    47  H    0.028173
    48  H    0.046130
    49  H    0.036235
    50  H    0.019803
    51  H    0.081234
    52  H    0.158810
    53  H    0.057580
    54  H    0.040608
    55  H   -0.012508
    56  H    0.172349
    57  H    0.034246
    58  H   -0.000554
    59  H    0.024424
    60  H    0.063018
    61  H    0.037787
    62  H    0.007620
    63  H    0.064903
    64  H   -0.038411
    65  H    0.018688
    66  H    0.018231
    67  H    0.010486
    68  H   -0.012013
    69  H    0.056434
    70  H   -0.009286
    71  H    0.023998
    72  H    0.001749
    73  H    0.041276
    74  H    0.014848
    75  H   -0.000316
    76  H    0.015475
    77  H    0.022385
    78  H    0.018720
    79  H    0.047425
    80  H    0.127621
    81  H    0.170890
 Sum of Mulliken charges =  -0.00000

 Dipole moment (field-independent basis, Debye):
    X=             -3.7999    Y=              0.6624    Z=              0.3357  Tot=              3.8718
 Quadrupole moment (field-independent basis, Debye-Ang):
   XX=           -266.4136   YY=           -237.7460   ZZ=           -253.3556
   XY=             23.7734   XZ=             12.6752   YZ=            -17.5282

 Normal termination of Gaussian 16 at Mon Jul  1 18:47:32 2019.
