 Gaussian 16, Revision A.03,
 Gaussian 16:  ES64L-G16RevA.03 25-Dec-2016

 --------------------------
 # td=(NStates=1) B3LYP/SVP
 --------------------------

 --
 TD
 --
 Symbolic Z-matrix:
 Charge =  0 Multiplicity = 1

                         Standard orientation:
 ---------------------------------------------------------------------
 Center     Atomic      Atomic             Coordinates (Angstroms)
 Number     Number       Type             X           Y           Z
 ---------------------------------------------------------------------
      1          8           0        3.970353   -4.962440   -2.056729
      2          8           0       -3.445005   -4.850741   -0.817986
      3          8           0       -6.934867   -1.431923   -1.830918
      4          8           0       -3.973346   -2.944094    0.155468
      5          8           0       -7.593090   -0.024854   -0.192337
      6          8           0        3.250179    2.293965    0.503238
      7          7           0        0.295465   -0.474106    0.708166
      8          7           0       -1.506863    1.892076    0.159787
      9          7           0        3.114910   -3.285106   -0.762243
     10          7           0        0.988318    2.771820    0.073012
     11          6           0       -0.736302   -2.314405    1.511079
     12          6           0       -1.044800   -1.036783    0.947695
     13          6           0        0.607881   -2.577130    1.296274
     14          6           0        1.126461   -1.490574    0.800573
     15          6           0       -3.722218    1.673748    0.204253
     16          6           0       -2.464817    0.983744    0.477463
     17          6           0       -2.291011   -0.298363    0.893241
     18          6           0       -3.419494    3.057736   -0.122888
     19          6           0       -1.855065   -3.080209    2.129817
     20          6           0        5.358299   -2.906971   -1.471979
     21          6           0        3.364898   -2.048050   -0.272645
     22          6           0       -1.972546    3.158899   -0.152108
     23          6           0        4.837048   -1.869537   -0.511265
     24          6           0       -5.075027    1.050866    0.232253
     25          6           0        2.579706   -1.215441    0.404656
     26          6           0        1.277655   -3.754837    1.730340
     27          6           0        4.157598   -3.844761   -1.509287
     28          6           0       -2.392901   -4.362632    1.371414
     29          6           0       -5.327791   -0.006834   -0.939620
     30          6           0       -4.343108    4.178260   -0.545735
     31          6           0       -1.059818    4.208763   -0.252952
     32          6           0        6.679703   -3.646316   -1.118792
     33          6           0        5.798583   -0.865896   -0.180902
     34          6           0        0.412101    4.015484   -0.219037
     35          6           0        1.327441    5.019307   -0.448362
     36          6           0        2.647323    4.452975   -0.187967
     37          6           0       -3.292818   -3.876634    0.163386
     38          6           0        5.585210    0.254503    0.829450
     39          6           0       -6.657264   -0.479908   -0.888666
     40          6           0        4.002612    5.024210   -0.167028
     41          6           0        2.339434    3.024768    0.255872
     42          6           0        0.980402    6.342462   -0.986464
     43          6           0        4.511805    5.448866    1.280288
     44          1           0        0.567309    0.342332    0.064180
     45          1           0       -3.146837   -1.011602    0.946731
     46          1           0       -2.662774   -2.516367    2.340991
     47          1           0       -1.397139   -3.531195    2.996958
     48          1           0        5.381774   -2.360504   -2.552576
     49          1           0       -5.238696    0.351739    1.273549
     50          1           0       -5.926641    1.805213    0.143215
     51          1           0        2.784405   -0.099536    0.647926
     52          1           0       -0.356798    1.805450    0.336241
     53          1           0        1.213220   -4.756371    1.172339
     54          1           0        2.285936   -3.764407    1.882208
     55          1           0        0.898231   -4.291183    2.837437
     56          1           0        2.111883   -3.815821   -0.735190
     57          1           0       -1.599433   -4.873723    1.002611
     58          1           0       -2.989778   -5.165896    1.813528
     59          1           0       -4.533662   -0.663622   -0.777527
     60          1           0       -5.142397    0.430865   -2.018242
     61          1           0       -4.175670    5.074610   -0.223635
     62          1           0       -5.404221    3.948426   -0.488617
     63          1           0       -4.283556    4.342530   -1.668300
     64          1           0       -1.348243    5.138241   -0.766268
     65          1           0        7.475491   -3.058017   -0.958109
     66          1           0        6.970029   -4.648230   -1.695634
     67          1           0        6.509628   -4.017985    0.108466
     68          1           0        6.721869   -0.900703   -0.616335
     69          1           0        5.206971    1.208240    0.387187
     70          1           0        6.581413    0.479027    1.558111
     71          1           0        4.669218   -0.022443    1.423749
     72          1           0        4.323708    5.945406   -0.781588
     73          1           0        4.880476    4.202415   -0.523306
     74          1           0        0.490206    6.354444   -1.928328
     75          1           0        1.959736    6.699098   -1.381696
     76          1           0        0.450144    7.157341   -0.275254
     77          1           0        3.947066    6.093797    2.028926
     78          1           0        5.441737    6.076199    1.181579
     79          1           0        4.915473    4.502225    1.653436
     80          1           0       -4.037453   -4.580858   -1.446972
     81          1           0       -7.614288   -2.167092   -1.612879
 ---------------------------------------------------------------------

 SCF Done:  E(RB3LYP) =  -1949.03347746     A.U. after   17 cycles

 Excitation energies and oscillator strengths:

 Excited State   1:      Singlet-A      1.7799 eV  696.59 nm  f=0.2865  <S**2>=0.000
     155 ->157        -0.10393
     156 ->157         0.70008
     156 <-157        -0.11514
 This state for optimization and/or second-order correction.
 Total Energy, E(TD-HF/TD-DFT) =  -1948.96806788
 Copying the excited state density for this state as the 1-particle RhoCI density.

 The electronic state is 1-A.
 Alpha  occ. eigenvalues --  -19.17873 -19.17146 -19.15579 -19.12078 -19.11017
 Alpha  occ. eigenvalues --  -19.10754 -14.38130 -14.37781 -14.35300 -14.29608
 Alpha  occ. eigenvalues --  -10.33721 -10.32040 -10.29611 -10.26821 -10.24692
 Alpha  occ. eigenvalues --  -10.24310 -10.23729 -10.23436 -10.23344 -10.22807
 Alpha  occ. eigenvalues --  -10.22475 -10.22010 -10.21969 -10.21885 -10.21478
 Alpha  occ. eigenvalues --  -10.21412 -10.21246 -10.20960 -10.20922 -10.20837
 Alpha  occ. eigenvalues --  -10.20800 -10.20705 -10.20652 -10.20580 -10.20250
 Alpha  occ. eigenvalues --  -10.20047 -10.19877 -10.19783 -10.19293 -10.18961
 Alpha  occ. eigenvalues --  -10.18853 -10.18772 -10.18639  -1.12722  -1.06970
 Alpha  occ. eigenvalues --   -1.03785  -1.03415  -1.01890  -0.98971  -0.97872
 Alpha  occ. eigenvalues --   -0.96947  -0.94906  -0.91409  -0.83521  -0.81859
 Alpha  occ. eigenvalues --   -0.81108  -0.80911  -0.79507  -0.79101  -0.77949
 Alpha  occ. eigenvalues --   -0.77425  -0.76437  -0.75232  -0.73493  -0.72679
 Alpha  occ. eigenvalues --   -0.71971  -0.69756  -0.68948  -0.68584  -0.67989
 Alpha  occ. eigenvalues --   -0.67190  -0.65944  -0.63852  -0.62538  -0.62201
 Alpha  occ. eigenvalues --   -0.60841  -0.59484  -0.59176  -0.58084  -0.57458
 Alpha  occ. eigenvalues --   -0.56681  -0.54979  -0.54564  -0.53691  -0.53426
 Alpha  occ. eigenvalues --   -0.52827  -0.52557  -0.51553  -0.51195  -0.50685
 Alpha  occ. eigenvalues --   -0.49635  -0.48889  -0.48445  -0.48170  -0.47525
 Alpha  occ. eigenvalues --   -0.47045  -0.46074  -0.46011  -0.45661  -0.45116
 Alpha  occ. eigenvalues --   -0.44988  -0.44893  -0.44343  -0.44229  -0.43866
 Alpha  occ. eigenvalues --   -0.43522  -0.43382  -0.42582  -0.42544  -0.42152
 Alpha  occ. eigenvalues --   -0.41830  -0.41611  -0.41432  -0.41136  -0.40852
 Alpha  occ. eigenvalues --   -0.40496  -0.40006  -0.39890  -0.39735  -0.39608
 Alpha  occ. eigenvalues --   -0.39384  -0.39271  -0.38808  -0.37973  -0.37822
 Alpha  occ. eigenvalues --   -0.37625  -0.37469  -0.37089  -0.36899  -0.36713
 Alpha  occ. eigenvalues --   -0.36337  -0.36043  -0.35831  -0.35244  -0.34616
 Alpha  occ. eigenvalues --   -0.34554  -0.34027  -0.33894  -0.33553  -0.33255
 Alpha  occ. eigenvalues --   -0.32469  -0.31928  -0.31220  -0.30653  -0.30358
 Alpha  occ. eigenvalues --   -0.28958  -0.27286  -0.26357  -0.25815  -0.25578
 Alpha  occ. eigenvalues --   -0.24550  -0.24314  -0.24214  -0.22310  -0.21989
 Alpha  occ. eigenvalues --   -0.18589
 Alpha virt. eigenvalues --   -0.11476  -0.06954  -0.04503  -0.02019  -0.01408
 Alpha virt. eigenvalues --   -0.01020   0.01020   0.02275   0.02925   0.03668
 Alpha virt. eigenvalues --    0.03848   0.04904   0.05215   0.05822   0.06054

 Mulliken charges:
               1
     1  O   -0.251987
     2  O   -0.183826
     3  O   -0.257542
     4  O   -0.163371
     5  O   -0.254264
     6  O   -0.188215
     7  N   -0.113585
     8  N   -0.184423
     9  N   -0.152647
    10  N   -0.360738
    11  C   -0.115342
    12  C    0.009125
    13  C   -0.060695
    14  C    0.015095
    15  C   -0.052607
    16  C    0.139840
    17  C   -0.077878
    18  C   -0.117067
    19  C    0.189744
    20  C   -0.074446
    21  C    0.228087
    22  C    0.112618
    23  C   -0.091936
    24  C   -0.033378
    25  C   -0.198400
    26  C   -0.019562
    27  C    0.137907
    28  C    0.061628
    29  C    0.015698
    30  C    0.169794
    31  C   -0.081556
    32  C    0.025447
    33  C   -0.065631
    34  C    0.069368
    35  C   -0.098266
    36  C   -0.085478
    37  C    0.097698
    38  C   -0.007898
    39  C    0.180360
    40  C   -0.057371
    41  C    0.169400
    42  C    0.070163
    43  C   -0.033088
    44  H    0.175658
    45  H    0.037773
    46  H   -0.018263
    47  H   -0.002160
    48  H    0.075085
    49  H    0.051713
    50  H    0.039289
    51  H    0.065347
    52  H    0.205182
    53  H    0.021162
    54  H   -0.001416
    55  H    0.020991
    56  H    0.184787
    57  H   -0.015439
    58  H    0.045834
    59  H    0.018698
    60  H    0.062927
    61  H   -0.028785
    62  H    0.001120
    63  H    0.011865
    64  H   -0.006999
    65  H   -0.006835
    66  H    0.069208
    67  H    0.017895
    68  H   -0.030284
    69  H    0.067096
    70  H    0.032317
    71  H    0.033548
    72  H    0.026377
    73  H    0.041152
    74  H    0.008227
    75  H    0.001972
    76  H    0.052898
    77  H    0.036367
    78  H   -0.000026
    79  H    0.031761
    80  H    0.142519
    81  H    0.220663
 Sum of Mulliken charges =  -0.00000

 Dipole moment (field-independent basis, Debye):
    X=             -1.2567    Y=              0.1480    Z=             -0.6126  Tot=              1.4058
 Quadrupole moment (field-independent basis, Debye-Ang):
   XX=           -257.1760   YY=           -238.8822   ZZ=           -257.2671
   XY=             25.3904   XZ=              9.0415   YZ=            -18.7319

 Normal termination of Gaussian 16 at Sat Jun 29 22:48:44 2019.
