 Gaussian 16, Revision A.03,
 Gaussian 16:  ES64L-G16RevA.03 25-Dec-2016

 --------------------------
 # td=(NStates=1) B3LYP/SVP
 --------------------------

 --
 TD
 --
 Symbolic Z-matrix:
 Charge =  0 Multiplicity = 1

                         Standard orientation:
 ---------------------------------------------------------------------
 Center     Atomic      Atomic             Coordinates (Angstroms)
 Number     Number       Type             X           Y           Z
 ---------------------------------------------------------------------
      1          8           0       -4.402283   -4.608432    1.912185
      2          8           0        2.631738   -5.023021    1.032088
      3          8           0        6.856982   -1.388509    2.142197
      4          8           0        3.558841   -3.307298   -0.040226
      5          8           0        7.554723   -0.847601    0.058268
      6          8           0       -2.845343    2.489166   -0.356317
      7          7           0       -0.325624   -0.562151   -0.609323
      8          7           0        1.631931    1.838924   -0.552417
      9          7           0       -3.315253   -2.993066    0.647636
     10          7           0       -0.640330    2.911525   -0.095827
     11          6           0        0.578984   -2.458355   -1.357438
     12          6           0        0.881841   -1.096526   -1.065715
     13          6           0       -0.810038   -2.642481   -1.349513
     14          6           0       -1.438667   -1.362575   -0.795378
     15          6           0        3.780553    1.312848   -0.300818
     16          6           0        2.514850    0.796491   -0.708626
     17          6           0        2.253799   -0.526030   -1.073869
     18          6           0        3.634679    2.664869    0.050394
     19          6           0        1.431417   -3.459153   -2.030646
     20          6           0       -5.556777   -2.601805    1.281290
     21          6           0       -3.660914   -1.760687    0.077478
     22          6           0        2.150953    2.983737   -0.151372
     23          6           0       -5.014435   -1.487688    0.495345
     24          6           0        5.109681    0.597390   -0.426996
     25          6           0       -2.640534   -0.949498   -0.342848
     26          6           0       -1.518533   -3.830253   -1.707868
     27          6           0       -4.377535   -3.619732    1.280565
     28          6           0        1.791042   -4.591710   -1.052452
     29          6           0        5.279561   -0.281574    0.812664
     30          6           0        4.725258    3.597814    0.509144
     31          6           0        1.469552    4.085397    0.311384
     32          6           0       -6.979337   -3.249319    1.087488
     33          6           0       -5.783205   -0.298397    0.143135
     34          6           0        0.086168    3.992585    0.285698
     35          6           0       -0.811685    5.246219    0.443445
     36          6           0       -2.096282    4.790174    0.138489
     37          6           0        2.737101   -4.151326    0.065261
     38          6           0       -5.411004    0.739638   -0.669958
     39          6           0        6.708568   -0.780566    0.941024
     40          6           0       -3.454891    5.408257    0.305080
     41          6           0       -1.964121    3.270531   -0.150541
     42          6           0       -0.414210    6.501486    0.961771
     43          6           0       -4.158293    5.630844   -1.036235
     44          1           0       -0.115474    0.381624   -0.253880
     45          1           0        3.068098   -1.183671   -1.095844
     46          1           0        2.319689   -2.970644   -2.412478
     47          1           0        0.921014   -3.852058   -2.855245
     48          1           0       -5.504927   -2.149889    2.369974
     49          1           0        5.155010    0.133518   -1.430935
     50          1           0        5.909203    1.322228   -0.320928
     51          1           0       -2.777614    0.137841   -0.451065
     52          1           0        0.599474    1.813333   -0.529323
     53          1           0       -1.532112   -4.451185   -0.730081
     54          1           0       -2.621624   -3.563135   -2.146183
     55          1           0       -0.902762   -4.304913   -2.540888
     56          1           0       -2.367767   -3.472277    0.692423
     57          1           0        0.818970   -5.193407   -0.721352
     58          1           0        2.450272   -5.151512   -1.781291
     59          1           0        4.568737   -1.105353    0.889528
     60          1           0        5.206617    0.415319    1.748752
     61          1           0        4.548993    4.579674   -0.052374
     62          1           0        5.665560    3.246089    0.147602
     63          1           0        4.496074    3.734428    1.575524
     64          1           0        2.051903    4.869977    0.729511
     65          1           0       -7.733955   -2.559923    1.258595
     66          1           0       -7.045138   -3.948994    2.119158
     67          1           0       -7.107766   -3.656297    0.015994
     68          1           0       -6.711105   -0.030745    0.514110
     69          1           0       -4.866348    1.619561   -0.302763
     70          1           0       -6.210404    1.312130   -1.200188
     71          1           0       -4.563809    0.380911   -1.457671
     72          1           0       -3.438424    6.346191    0.798182
     73          1           0       -4.019637    4.599758    0.835244
     74          1           0        0.196343    6.617177    1.776825
     75          1           0       -1.355185    7.069306    1.088704
     76          1           0        0.254509    7.050889    0.093123
     77          1           0       -3.527634    6.177734   -1.733199
     78          1           0       -5.172615    6.248843   -1.017391
     79          1           0       -4.166748    4.617859   -1.275445
     80          1           0        3.345621   -4.775384    1.776937
     81          1           0        7.611349   -2.009675    2.346022
 ---------------------------------------------------------------------

 SCF Done:  E(RB3LYP) =  -1949.12675951     A.U. after   16 cycles

 Excitation energies and oscillator strengths:

 Excited State   1:      Singlet-A      1.6706 eV  742.16 nm  f=0.3416  <S**2>=0.000
     156 ->157         0.71103
     156 <-157        -0.12921
 This state for optimization and/or second-order correction.
 Total Energy, E(TD-HF/TD-DFT) =  -1949.06536677
 Copying the excited state density for this state as the 1-particle RhoCI density.

 The electronic state is 1-A.
 Alpha  occ. eigenvalues --  -19.20641 -19.17554 -19.14283 -19.12202 -19.10893
 Alpha  occ. eigenvalues --  -19.10473 -14.37444 -14.37104 -14.35896 -14.28739
 Alpha  occ. eigenvalues --  -10.33183 -10.31918 -10.28456 -10.26386 -10.24388
 Alpha  occ. eigenvalues --  -10.23730 -10.23626 -10.22926 -10.22924 -10.22867
 Alpha  occ. eigenvalues --  -10.22041 -10.21507 -10.21337 -10.20899 -10.20567
 Alpha  occ. eigenvalues --  -10.20427 -10.20234 -10.20028 -10.19839 -10.19838
 Alpha  occ. eigenvalues --  -10.19836 -10.19787 -10.19520 -10.19442 -10.19407
 Alpha  occ. eigenvalues --  -10.19326 -10.18881 -10.18576 -10.18441 -10.18257
 Alpha  occ. eigenvalues --  -10.18047 -10.17469 -10.17267  -1.12353  -1.07875
 Alpha  occ. eigenvalues --   -1.05173  -1.03378  -1.02955  -0.99250  -0.99042
 Alpha  occ. eigenvalues --   -0.96957  -0.95531  -0.91049  -0.82948  -0.82322
 Alpha  occ. eigenvalues --   -0.81162  -0.80957  -0.79989  -0.79341  -0.77438
 Alpha  occ. eigenvalues --   -0.77073  -0.76747  -0.76267  -0.75274  -0.72654
 Alpha  occ. eigenvalues --   -0.71149  -0.70290  -0.68731  -0.68075  -0.67796
 Alpha  occ. eigenvalues --   -0.67414  -0.65550  -0.62864  -0.61793  -0.61116
 Alpha  occ. eigenvalues --   -0.60621  -0.59902  -0.59108  -0.57366  -0.56667
 Alpha  occ. eigenvalues --   -0.55769  -0.55118  -0.54753  -0.54045  -0.53535
 Alpha  occ. eigenvalues --   -0.52399  -0.51653  -0.50968  -0.50483  -0.49676
 Alpha  occ. eigenvalues --   -0.49474  -0.48806  -0.48642  -0.47832  -0.47320
 Alpha  occ. eigenvalues --   -0.46771  -0.46591  -0.46431  -0.46130  -0.45996
 Alpha  occ. eigenvalues --   -0.45127  -0.44907  -0.44605  -0.44409  -0.43995
 Alpha  occ. eigenvalues --   -0.43591  -0.43457  -0.42897  -0.42672  -0.42536
 Alpha  occ. eigenvalues --   -0.42294  -0.42179  -0.41710  -0.41629  -0.41196
 Alpha  occ. eigenvalues --   -0.40783  -0.40527  -0.40099  -0.39923  -0.39475
 Alpha  occ. eigenvalues --   -0.39187  -0.38886  -0.38717  -0.38605  -0.38322
 Alpha  occ. eigenvalues --   -0.38186  -0.37762  -0.37401  -0.36970  -0.36413
 Alpha  occ. eigenvalues --   -0.35937  -0.35850  -0.35382  -0.35240  -0.34503
 Alpha  occ. eigenvalues --   -0.34187  -0.34029  -0.33800  -0.33677  -0.33090
 Alpha  occ. eigenvalues --   -0.32573  -0.32509  -0.31834  -0.30072  -0.29514
 Alpha  occ. eigenvalues --   -0.27568  -0.27414  -0.26283  -0.25707  -0.24683
 Alpha  occ. eigenvalues --   -0.24495  -0.24204  -0.23596  -0.22727  -0.21319
 Alpha  occ. eigenvalues --   -0.16774
 Alpha virt. eigenvalues --   -0.10145  -0.06074  -0.04165  -0.00602  -0.00154
 Alpha virt. eigenvalues --    0.00051   0.01403   0.02107   0.02827   0.03772
 Alpha virt. eigenvalues --    0.04320   0.04523   0.05616   0.05809   0.06443

 Mulliken charges:
               1
     1  O   -0.165251
     2  O   -0.180914
     3  O   -0.232028
     4  O   -0.196381
     5  O   -0.233663
     6  O   -0.187232
     7  N   -0.079996
     8  N   -0.038481
     9  N   -0.174017
    10  N   -0.301532
    11  C   -0.092615
    12  C    0.007181
    13  C   -0.207371
    14  C    0.147701
    15  C   -0.128248
    16  C    0.073559
    17  C   -0.009805
    18  C   -0.201292
    19  C    0.125563
    20  C   -0.106079
    21  C    0.136625
    22  C    0.069548
    23  C   -0.044220
    24  C    0.158056
    25  C   -0.145040
    26  C    0.022491
    27  C    0.101682
    28  C   -0.035923
    29  C   -0.051645
    30  C    0.122816
    31  C   -0.107989
    32  C    0.063288
    33  C   -0.050758
    34  C    0.115292
    35  C   -0.103768
    36  C   -0.211552
    37  C    0.118191
    38  C   -0.002836
    39  C    0.160694
    40  C    0.115752
    41  C    0.147483
    42  C    0.093234
    43  C   -0.017833
    44  H    0.117553
    45  H   -0.007006
    46  H   -0.003779
    47  H   -0.012200
    48  H    0.056120
    49  H    0.035245
    50  H   -0.014326
    51  H    0.029848
    52  H    0.130902
    53  H    0.040239
    54  H    0.060123
    55  H    0.024572
    56  H    0.156605
    57  H    0.055800
    58  H    0.047500
    59  H    0.061076
    60  H    0.043040
    61  H    0.024964
    62  H    0.014608
    63  H    0.040467
    64  H   -0.040949
    65  H   -0.005274
    66  H    0.052554
    67  H    0.039647
    68  H   -0.033433
    69  H    0.062731
    70  H    0.007623
    71  H    0.033926
    72  H   -0.020707
    73  H    0.022297
    74  H    0.002934
    75  H    0.015925
    76  H    0.029524
    77  H    0.003067
    78  H    0.026980
    79  H    0.009573
    80  H    0.217885
    81  H    0.201659
 Sum of Mulliken charges =  -0.00000

 Dipole moment (field-independent basis, Debye):
    X=              2.2206    Y=              0.2595    Z=              1.7594  Tot=              2.8449
 Quadrupole moment (field-independent basis, Debye-Ang):
   XX=           -254.8825   YY=           -239.2089   ZZ=           -251.5772
   XY=            -17.0050   XZ=             18.4849   YZ=             10.5976

 Normal termination of Gaussian 16 at Fri Jun 28 06:04:24 2019.
