 Gaussian 16, Revision A.03,
 Gaussian 16:  ES64L-G16RevA.03 25-Dec-2016

 --------------------------
 # td=(NStates=1) B3LYP/SVP
 --------------------------

 --
 TD
 --
 Symbolic Z-matrix:
 Charge =  0 Multiplicity = 1

                         Standard orientation:
 ---------------------------------------------------------------------
 Center     Atomic      Atomic             Coordinates (Angstroms)
 Number     Number       Type             X           Y           Z
 ---------------------------------------------------------------------
      1          8           0        4.556512   -4.655687   -1.803812
      2          8           0       -2.698123   -5.126608   -0.954286
      3          8           0       -6.955682   -1.990461   -1.647144
      4          8           0       -3.537248   -3.320361    0.078399
      5          8           0       -7.681138   -0.597423   -0.004103
      6          8           0        2.915211    2.502091    0.409824
      7          7           0        0.261007   -0.443353    0.524499
      8          7           0       -1.615653    1.752210    0.289664
      9          7           0        3.485229   -2.975874   -0.722456
     10          7           0        0.601723    2.918962   -0.031900
     11          6           0       -0.503022   -2.450129    1.294144
     12          6           0       -0.819004   -1.100848    0.943134
     13          6           0        0.933397   -2.569627    1.107309
     14          6           0        1.367027   -1.279040    0.567960
     15          6           0       -3.835832    1.272527    0.200281
     16          6           0       -2.474853    0.715455    0.474138
     17          6           0       -2.178088   -0.651182    0.918587
     18          6           0       -3.744893    2.583786   -0.124462
     19          6           0       -1.437177   -3.371101    1.951457
     20          6           0        5.685242   -2.558804   -1.295480
     21          6           0        3.708092   -1.640206   -0.231516
     22          6           0       -2.300031    2.954266   -0.114729
     23          6           0        5.130711   -1.435717   -0.464301
     24          6           0       -5.052887    0.462874    0.278825
     25          6           0        2.689796   -0.900176    0.332819
     26          6           0        1.714989   -3.682344    1.703618
     27          6           0        4.584613   -3.556694   -1.380103
     28          6           0       -1.793835   -4.592007    1.191186
     29          6           0       -5.441444   -0.356326   -0.890755
     30          6           0       -4.799114    3.791779   -0.341033
     31          6           0       -1.513300    3.983031   -0.519733
     32          6           0        7.003210   -3.219274   -0.696163
     33          6           0        5.833290   -0.337186   -0.150193
     34          6           0       -0.080614    3.964864   -0.422515
     35          6           0        0.809296    5.219268   -0.474647
     36          6           0        2.046237    4.779771   -0.228834
     37          6           0       -2.707127   -4.211359   -0.009256
     38          6           0        5.411691    0.769954    0.758357
     39          6           0       -6.759524   -0.987604   -0.756276
     40          6           0        3.346474    5.463969   -0.197904
     41          6           0        2.022986    3.302810    0.053891
     42          6           0        0.265358    6.613746   -0.834816
     43          6           0        3.791306    5.934891    1.235813
     44          1           0        0.120692    0.292084   -0.176614
     45          1           0       -3.049567   -1.258561    1.207220
     46          1           0       -2.511683   -2.766629    2.010719
     47          1           0       -0.972189   -3.578492    3.104018
     48          1           0        6.063831   -2.539556   -2.590672
     49          1           0       -5.039566   -0.113504    1.196461
     50          1           0       -6.035845    1.206444    0.507659
     51          1           0        2.818809    0.192744    0.487322
     52          1           0       -0.639086    1.910364    0.380302
     53          1           0        1.938293   -4.573422    0.996861
     54          1           0        2.698460   -3.281259    1.871938
     55          1           0        1.189332   -3.913545    2.537990
     56          1           0        2.419536   -3.445819   -0.736805
     57          1           0       -0.772214   -5.055222    0.849586
     58          1           0       -2.206008   -5.313466    1.847214
     59          1           0       -4.719275   -1.206177   -1.078972
     60          1           0       -5.230554    0.186822   -1.719035
     61          1           0       -3.977313    4.902266    0.120047
     62          1           0       -5.853802    3.688947    0.111104
     63          1           0       -4.702346    4.078449   -1.390377
     64          1           0       -1.907601    4.917407   -0.700562
     65          1           0        7.833782   -2.258239   -0.638426
     66          1           0        7.453609   -3.936088   -1.434133
     67          1           0        6.615333   -3.651798    0.321521
     68          1           0        6.727919   -0.251952   -0.702081
     69          1           0        4.917467    1.489610    0.215244
     70          1           0        6.273135    1.196381    1.231312
     71          1           0        4.753725    0.274671    1.746691
     72          1           0        3.288740    6.339666   -0.834183
     73          1           0        4.214406    4.709404   -0.661473
     74          1           0       -0.362277    6.590087   -1.654468
     75          1           0        1.148831    7.242936   -0.973990
     76          1           0       -0.148285    7.075506    0.085243
     77          1           0        3.006979    6.673258    1.696812
     78          1           0        4.929784    6.020914    1.327302
     79          1           0        3.712700    5.024249    1.989474
     80          1           0       -3.531235   -5.131360   -1.506932
     81          1           0       -7.806718   -2.473322   -1.365814
 ---------------------------------------------------------------------

 SCF Done:  E(RB3LYP) =  -1949.05494335     A.U. after   16 cycles

 Excitation energies and oscillator strengths:

 Excited State   1:      Singlet-A      1.6147 eV  767.86 nm  f=0.3130  <S**2>=0.000
     156 ->157         0.71364
     156 <-157        -0.14656
 This state for optimization and/or second-order correction.
 Total Energy, E(TD-HF/TD-DFT) =  -1948.99560535
 Copying the excited state density for this state as the 1-particle RhoCI density.

 The electronic state is 1-A.
 Alpha  occ. eigenvalues --  -19.20618 -19.18786 -19.14417 -19.12466 -19.12073
 Alpha  occ. eigenvalues --  -19.10299 -14.37522 -14.36253 -14.34882 -14.29258
 Alpha  occ. eigenvalues --  -10.34077 -10.32292 -10.28090 -10.28009 -10.24202
 Alpha  occ. eigenvalues --  -10.23751 -10.23695 -10.23650 -10.23219 -10.22951
 Alpha  occ. eigenvalues --  -10.22445 -10.22108 -10.21843 -10.21749 -10.21621
 Alpha  occ. eigenvalues --  -10.21356 -10.20920 -10.20759 -10.20222 -10.20148
 Alpha  occ. eigenvalues --  -10.20123 -10.20113 -10.19966 -10.19850 -10.19619
 Alpha  occ. eigenvalues --  -10.19547 -10.19431 -10.19140 -10.19096 -10.18883
 Alpha  occ. eigenvalues --  -10.18299 -10.18288 -10.18222  -1.11868  -1.08568
 Alpha  occ. eigenvalues --   -1.04474  -1.02240  -1.00821  -0.98818  -0.98647
 Alpha  occ. eigenvalues --   -0.96340  -0.93140  -0.91611  -0.82585  -0.82322
 Alpha  occ. eigenvalues --   -0.81024  -0.80677  -0.80164  -0.78601  -0.77606
 Alpha  occ. eigenvalues --   -0.77288  -0.76050  -0.74878  -0.73880  -0.71851
 Alpha  occ. eigenvalues --   -0.70479  -0.69496  -0.69184  -0.67934  -0.67100
 Alpha  occ. eigenvalues --   -0.66446  -0.64771  -0.63918  -0.62466  -0.61799
 Alpha  occ. eigenvalues --   -0.61214  -0.59816  -0.58898  -0.56847  -0.56078
 Alpha  occ. eigenvalues --   -0.55587  -0.54790  -0.53775  -0.53315  -0.52227
 Alpha  occ. eigenvalues --   -0.51846  -0.51744  -0.51087  -0.50651  -0.50125
 Alpha  occ. eigenvalues --   -0.49624  -0.48960  -0.48271  -0.47829  -0.47376
 Alpha  occ. eigenvalues --   -0.47132  -0.46618  -0.45988  -0.45798  -0.44940
 Alpha  occ. eigenvalues --   -0.44657  -0.44022  -0.43852  -0.43776  -0.43608
 Alpha  occ. eigenvalues --   -0.43365  -0.43141  -0.42804  -0.42512  -0.42340
 Alpha  occ. eigenvalues --   -0.41741  -0.41512  -0.41292  -0.41069  -0.40892
 Alpha  occ. eigenvalues --   -0.40608  -0.40371  -0.39803  -0.39552  -0.39438
 Alpha  occ. eigenvalues --   -0.39354  -0.39252  -0.38876  -0.38156  -0.38014
 Alpha  occ. eigenvalues --   -0.37846  -0.37130  -0.36422  -0.36293  -0.35917
 Alpha  occ. eigenvalues --   -0.35811  -0.35484  -0.34727  -0.34521  -0.34333
 Alpha  occ. eigenvalues --   -0.34117  -0.33723  -0.33383  -0.32585  -0.32249
 Alpha  occ. eigenvalues --   -0.32063  -0.31781  -0.31700  -0.30029  -0.29008
 Alpha  occ. eigenvalues --   -0.28090  -0.27878  -0.26259  -0.25903  -0.25487
 Alpha  occ. eigenvalues --   -0.25198  -0.24935  -0.24752  -0.23889  -0.21434
 Alpha  occ. eigenvalues --   -0.16650
 Alpha virt. eigenvalues --   -0.10387  -0.06136  -0.04178  -0.02410  -0.01152
 Alpha virt. eigenvalues --   -0.01124   0.01102   0.02517   0.02949   0.03016
 Alpha virt. eigenvalues --    0.03869   0.04069   0.04289   0.05026   0.05964

 Mulliken charges:
               1
     1  O   -0.167846
     2  O   -0.159918
     3  O   -0.207986
     4  O   -0.238212
     5  O   -0.266130
     6  O   -0.214498
     7  N   -0.013534
     8  N   -0.109120
     9  N   -0.256377
    10  N   -0.314064
    11  C   -0.096869
    12  C    0.040195
    13  C   -0.211499
    14  C    0.054997
    15  C   -0.110988
    16  C    0.059796
    17  C   -0.044946
    18  C   -0.051045
    19  C   -0.056127
    20  C   -0.165390
    21  C    0.163922
    22  C    0.089575
    23  C    0.024726
    24  C   -0.001535
    25  C   -0.156567
    26  C    0.160585
    27  C    0.135844
    28  C    0.043007
    29  C    0.092032
    30  C   -0.005597
    31  C   -0.045826
    32  C   -0.020495
    33  C   -0.137206
    34  C    0.029903
    35  C   -0.131521
    36  C   -0.166459
    37  C    0.149328
    38  C    0.091734
    39  C    0.160667
    40  C    0.031315
    41  C    0.212015
    42  C    0.168043
    43  C   -0.045054
    44  H    0.153045
    45  H    0.024874
    46  H    0.044795
    47  H    0.047337
    48  H    0.063348
    49  H    0.009532
    50  H    0.036228
    51  H    0.031120
    52  H    0.103721
    53  H    0.030294
    54  H    0.014246
    55  H   -0.012416
    56  H    0.185398
    57  H    0.035785
    58  H    0.031303
    59  H    0.034871
    60  H   -0.000097
    61  H    0.028317
    62  H    0.073382
    63  H    0.037475
    64  H   -0.074991
    65  H    0.037787
    66  H    0.045551
    67  H    0.048412
    68  H   -0.021145
    69  H    0.040916
    70  H    0.000326
    71  H    0.051183
    72  H   -0.000912
    73  H    0.035418
    74  H    0.025535
    75  H   -0.001639
    76  H    0.028150
    77  H    0.033821
    78  H    0.032158
    79  H    0.020815
    80  H    0.207624
    81  H    0.205557
 Sum of Mulliken charges =  -0.00000

 Dipole moment (field-independent basis, Debye):
    X=             -1.9235    Y=              0.2024    Z=             -1.0713  Tot=              2.2111
 Quadrupole moment (field-independent basis, Debye-Ang):
   XX=           -256.1620   YY=           -231.9557   ZZ=           -255.5203
   XY=             27.5627   XZ=             12.7983   YZ=            -11.4606

 Normal termination of Gaussian 16 at Sun Jun 30 08:28:15 2019.
