 Gaussian 16, Revision A.03,
 Gaussian 16:  ES64L-G16RevA.03 25-Dec-2016

 --------------------------
 # td=(NStates=1) B3LYP/SVP
 --------------------------

 --
 TD
 --
 Symbolic Z-matrix:
 Charge =  0 Multiplicity = 1

                         Standard orientation:
 ---------------------------------------------------------------------
 Center     Atomic      Atomic             Coordinates (Angstroms)
 Number     Number       Type             X           Y           Z
 ---------------------------------------------------------------------
      1          8           0        4.300204   -4.962370   -1.608706
      2          8           0       -3.065561   -4.917044   -1.069593
      3          8           0       -7.025247   -1.372780   -1.904958
      4          8           0       -3.922503   -3.203903    0.111536
      5          8           0       -7.541112   -0.411603   -0.009431
      6          8           0        3.066511    2.296830    0.300568
      7          7           0        0.269204   -0.525387    0.505176
      8          7           0       -1.492068    1.824148    0.291113
      9          7           0        3.236896   -3.190560   -0.611502
     10          7           0        0.800275    2.849695   -0.037005
     11          6           0       -0.681788   -2.320642    1.441576
     12          6           0       -0.993411   -0.993910    0.915707
     13          6           0        0.704475   -2.629762    1.282409
     14          6           0        1.284167   -1.395576    0.692413
     15          6           0       -3.846946    1.507750    0.294940
     16          6           0       -2.441732    0.948627    0.499240
     17          6           0       -2.279457   -0.437500    0.734721
     18          6           0       -3.508358    2.894976   -0.001701
     19          6           0       -1.716456   -3.206138    1.960655
     20          6           0        5.418982   -2.830113   -1.417695
     21          6           0        3.540367   -1.892927   -0.172433
     22          6           0       -1.990187    3.091461    0.023669
     23          6           0        4.948146   -1.701095   -0.441164
     24          6           0       -5.153378    0.839266    0.370072
     25          6           0        2.556070   -1.081549    0.348687
     26          6           0        1.437253   -3.764675    1.764586
     27          6           0        4.279946   -3.769848   -1.256948
     28          6           0       -2.049930   -4.429899    1.070251
     29          6           0       -5.444652   -0.079126   -0.810917
     30          6           0       -4.430958    3.907669   -0.340837
     31          6           0       -1.150304    4.129606   -0.314631
     32          6           0        6.745574   -3.477808   -0.878365
     33          6           0        5.775883   -0.702969   -0.117646
     34          6           0        0.231024    4.006914   -0.314204
     35          6           0        1.140191    5.169270   -0.395712
     36          6           0        2.383858    4.526369   -0.277973
     37          6           0       -3.105382   -4.083811    0.002007
     38          6           0        5.516084    0.574150    0.558316
     39          6           0       -6.764707   -0.695964   -0.900018
     40          6           0        3.757690    5.127767   -0.285496
     41          6           0        2.252823    3.181389    0.140672
     42          6           0        0.777968    6.530067   -0.828770
     43          6           0        4.329155    5.524122    1.093094
     44          1           0        0.301361    0.351077   -0.168859
     45          1           0       -3.234239   -0.984275    0.909922
     46          1           0       -2.445601   -2.809680    2.738302
     47          1           0       -1.135263   -3.753302    2.630809
     48          1           0        5.491480   -2.557218   -2.350110
     49          1           0       -5.492380    0.342997    1.318202
     50          1           0       -5.923519    1.694560    0.460674
     51          1           0        2.619530    0.037899    0.418849
     52          1           0       -0.431779    1.799631    0.477312
     53          1           0        1.508742   -4.619012    0.885129
     54          1           0        2.486482   -3.400209    2.022325
     55          1           0        0.911865   -4.124852    2.734074
     56          1           0        2.330779   -3.654972   -0.586111
     57          1           0       -1.033408   -4.901313    0.491398
     58          1           0       -2.436120   -5.259252    1.684024
     59          1           0       -4.690087   -0.957669   -0.842777
     60          1           0       -5.160579    0.329896   -1.766786
     61          1           0       -4.284513    4.765389    0.318888
     62          1           0       -5.504421    3.699958   -0.157926
     63          1           0       -4.680718    4.263147   -1.335890
     64          1           0       -1.742049    5.174897   -0.519012
     65          1           0        7.670504   -2.643096   -0.904936
     66          1           0        6.939711   -4.420552   -1.473871
     67          1           0        6.643527   -3.595348    0.176565
     68          1           0        6.823674   -0.527455   -0.682499
     69          1           0        5.114325    1.474114   -0.012151
     70          1           0        6.399043    1.084675    1.109594
     71          1           0        4.798510    0.379080    1.346063
     72          1           0        3.811687    6.048744   -0.744824
     73          1           0        4.528955    4.531354   -0.735576
     74          1           0        0.349039    6.584921   -1.668615
     75          1           0        1.717634    7.216731   -1.008226
     76          1           0        0.148753    6.967480    0.021437
     77          1           0        3.609775    6.323999    1.624652
     78          1           0        5.520433    5.982936    1.062744
     79          1           0        4.512875    4.537211    1.817494
     80          1           0       -3.567961   -4.431043   -1.758223
     81          1           0       -7.806601   -1.886311   -1.752881
 ---------------------------------------------------------------------

 SCF Done:  E(RB3LYP) =  -1949.07877220     A.U. after   18 cycles

 Excitation energies and oscillator strengths:

 Excited State   1:      Singlet-A      1.5666 eV  791.42 nm  f=0.2988  <S**2>=0.000
     156 ->157         0.71615
     156 <-157        -0.15418
 This state for optimization and/or second-order correction.
 Total Energy, E(TD-HF/TD-DFT) =  -1949.02120085
 Copying the excited state density for this state as the 1-particle RhoCI density.

 The electronic state is 1-A.
 Alpha  occ. eigenvalues --  -19.20134 -19.19450 -19.14538 -19.11347 -19.10494
 Alpha  occ. eigenvalues --  -19.09927 -14.38207 -14.37427 -14.35898 -14.28455
 Alpha  occ. eigenvalues --  -10.33406 -10.30921 -10.28352 -10.26595 -10.25068
 Alpha  occ. eigenvalues --  -10.23915 -10.23605 -10.23348 -10.23043 -10.22978
 Alpha  occ. eigenvalues --  -10.21992 -10.21822 -10.21249 -10.21117 -10.21026
 Alpha  occ. eigenvalues --  -10.20955 -10.20824 -10.20580 -10.20560 -10.20251
 Alpha  occ. eigenvalues --  -10.20219 -10.19920 -10.19891 -10.19798 -10.19784
 Alpha  occ. eigenvalues --  -10.19783 -10.19576 -10.19535 -10.19128 -10.18592
 Alpha  occ. eigenvalues --  -10.18521 -10.18089 -10.17523  -1.14861  -1.11012
 Alpha  occ. eigenvalues --   -1.02469  -1.02410  -1.02180  -1.00555  -0.98363
 Alpha  occ. eigenvalues --   -0.97197  -0.95129  -0.91542  -0.82834  -0.81971
 Alpha  occ. eigenvalues --   -0.81674  -0.81347  -0.80154  -0.79054  -0.77478
 Alpha  occ. eigenvalues --   -0.77426  -0.76666  -0.75770  -0.74528  -0.72676
 Alpha  occ. eigenvalues --   -0.71696  -0.70074  -0.69883  -0.68518  -0.67943
 Alpha  occ. eigenvalues --   -0.67188  -0.65752  -0.64631  -0.63005  -0.62287
 Alpha  occ. eigenvalues --   -0.60440  -0.59856  -0.59220  -0.58533  -0.56761
 Alpha  occ. eigenvalues --   -0.56085  -0.55786  -0.54565  -0.53549  -0.53334
 Alpha  occ. eigenvalues --   -0.51943  -0.51823  -0.51148  -0.50904  -0.50353
 Alpha  occ. eigenvalues --   -0.49768  -0.49310  -0.48807  -0.48427  -0.48138
 Alpha  occ. eigenvalues --   -0.47826  -0.47121  -0.46410  -0.46055  -0.45440
 Alpha  occ. eigenvalues --   -0.45009  -0.44708  -0.44449  -0.44222  -0.43912
 Alpha  occ. eigenvalues --   -0.43548  -0.43427  -0.42931  -0.42612  -0.42246
 Alpha  occ. eigenvalues --   -0.41922  -0.41772  -0.41592  -0.41408  -0.40904
 Alpha  occ. eigenvalues --   -0.40798  -0.40723  -0.40595  -0.40153  -0.39817
 Alpha  occ. eigenvalues --   -0.39633  -0.38884  -0.38175  -0.38034  -0.37973
 Alpha  occ. eigenvalues --   -0.37716  -0.37444  -0.37146  -0.36967  -0.36118
 Alpha  occ. eigenvalues --   -0.35679  -0.35397  -0.35157  -0.34623  -0.34290
 Alpha  occ. eigenvalues --   -0.33825  -0.33680  -0.33533  -0.33256  -0.32038
 Alpha  occ. eigenvalues --   -0.31947  -0.31695  -0.31416  -0.29800  -0.29563
 Alpha  occ. eigenvalues --   -0.28628  -0.26772  -0.26388  -0.25943  -0.24965
 Alpha  occ. eigenvalues --   -0.24729  -0.24565  -0.24176  -0.23369  -0.21485
 Alpha  occ. eigenvalues --   -0.16815
 Alpha virt. eigenvalues --   -0.10728  -0.06606  -0.04438  -0.01781   0.00032
 Alpha virt. eigenvalues --    0.01717   0.01913   0.02638   0.03147   0.03921
 Alpha virt. eigenvalues --    0.04057   0.04284   0.05084   0.05234   0.05580

 Mulliken charges:
               1
     1  O   -0.250270
     2  O   -0.185689
     3  O   -0.051743
     4  O   -0.215373
     5  O   -0.261669
     6  O   -0.196943
     7  N   -0.124203
     8  N   -0.064691
     9  N   -0.084309
    10  N   -0.362996
    11  C   -0.144496
    12  C    0.105175
    13  C   -0.137492
    14  C    0.080149
    15  C   -0.059460
    16  C    0.021889
    17  C   -0.091452
    18  C   -0.077824
    19  C    0.182067
    20  C    0.024083
    21  C    0.150336
    22  C    0.073535
    23  C    0.019658
    24  C    0.088023
    25  C   -0.177399
    26  C   -0.008349
    27  C    0.088247
    28  C   -0.071024
    29  C   -0.026088
    30  C    0.055006
    31  C   -0.158258
    32  C    0.018685
    33  C   -0.187453
    34  C    0.112022
    35  C   -0.115766
    36  C   -0.145534
    37  C    0.144557
    38  C    0.018456
    39  C    0.074388
    40  C    0.174197
    41  C    0.178566
    42  C    0.152820
    43  C   -0.153919
    44  H    0.177168
    45  H    0.037269
    46  H    0.034817
    47  H   -0.055250
    48  H   -0.008413
    49  H    0.031209
    50  H    0.012989
    51  H    0.040831
    52  H    0.169410
    53  H    0.048153
    54  H    0.050592
    55  H    0.044977
    56  H    0.131963
    57  H    0.067366
    58  H    0.049019
    59  H    0.040400
    60  H    0.008049
    61  H    0.014435
    62  H   -0.015804
    63  H    0.018052
    64  H    0.012218
    65  H    0.028905
    66  H    0.054681
    67  H    0.007593
    68  H    0.028703
    69  H    0.072812
    70  H    0.002994
    71  H    0.015179
    72  H   -0.037384
    73  H   -0.000415
    74  H   -0.024333
    75  H    0.024591
    76  H    0.041870
    77  H    0.033866
    78  H    0.029445
    79  H    0.044978
    80  H    0.184202
    81  H    0.173407
 Sum of Mulliken charges =  -0.00000

 Dipole moment (field-independent basis, Debye):
    X=             -2.8899    Y=              1.3410    Z=             -1.4438  Tot=              3.4977
 Quadrupole moment (field-independent basis, Debye-Ang):
   XX=           -258.9767   YY=           -243.6011   ZZ=           -250.7479
   XY=             23.0415   XZ=             14.8926   YZ=            -12.8688

 Normal termination of Gaussian 16 at Sat Jun 29 12:09:11 2019.
