 Gaussian 16, Revision A.03,
 Gaussian 16:  ES64L-G16RevA.03 25-Dec-2016

 --------------------------
 # td=(NStates=1) B3LYP/SVP
 --------------------------

 --
 TD
 --
 Symbolic Z-matrix:
 Charge =  0 Multiplicity = 1

                         Standard orientation:
 ---------------------------------------------------------------------
 Center     Atomic      Atomic             Coordinates (Angstroms)
 Number     Number       Type             X           Y           Z
 ---------------------------------------------------------------------
      1          8           0        4.335260   -4.870449   -1.689467
      2          8           0       -3.153099   -4.755576   -1.217185
      3          8           0       -7.089857   -1.570396   -1.776780
      4          8           0       -3.780752   -3.100403    0.014900
      5          8           0       -7.578149   -0.533469    0.181871
      6          8           0        3.042977    2.501500    0.371931
      7          7           0        0.287912   -0.530299    0.628997
      8          7           0       -1.517126    1.868679    0.287249
      9          7           0        3.405662   -3.137244   -0.706969
     10          7           0        0.789312    2.922763    0.039045
     11          6           0       -0.629868   -2.467016    1.286251
     12          6           0       -0.876031   -1.060318    1.066169
     13          6           0        0.790416   -2.688389    1.193094
     14          6           0        1.341930   -1.476749    0.716365
     15          6           0       -3.829906    1.502539    0.262366
     16          6           0       -2.491084    0.877020    0.504555
     17          6           0       -2.213959   -0.460985    1.024586
     18          6           0       -3.528583    2.758465   -0.080710
     19          6           0       -1.547825   -3.476695    1.862033
     20          6           0        5.581640   -2.720800   -1.307837
     21          6           0        3.660659   -1.875750   -0.166119
     22          6           0       -2.044237    2.987273   -0.103237
     23          6           0        5.042636   -1.650752   -0.356447
     24          6           0       -5.122238    0.775131    0.406866
     25          6           0        2.618356   -1.060931    0.361818
     26          6           0        1.484254   -3.874317    1.675478
     27          6           0        4.381162   -3.749988   -1.256117
     28          6           0       -2.059505   -4.500329    0.885178
     29          6           0       -5.398785   -0.094122   -0.773650
     30          6           0       -4.518441    3.847890   -0.466903
     31          6           0       -1.291482    4.174844   -0.354056
     32          6           0        6.880197   -3.441151   -0.947614
     33          6           0        5.765062   -0.528825   -0.085363
     34          6           0        0.098659    4.041316   -0.324978
     35          6           0        1.091286    5.159028   -0.516190
     36          6           0        2.356915    4.680855   -0.232692
     37          6           0       -3.087728   -4.024828   -0.131604
     38          6           0        5.388216    0.564277    0.796350
     39          6           0       -6.783777   -0.805959   -0.670751
     40          6           0        3.665433    5.294775   -0.303098
     41          6           0        2.161212    3.250377    0.101832
     42          6           0        0.559019    6.584977   -0.766895
     43          6           0        4.288045    5.589383    1.115320
     44          1           0        0.290550    0.250537   -0.001679
     45          1           0       -3.084969   -1.043992    1.157091
     46          1           0       -2.454024   -2.989219    2.323530
     47          1           0       -1.133061   -4.111886    2.833763
     48          1           0        5.683240   -2.099932   -2.297227
     49          1           0       -5.148644    0.141322    1.283498
     50          1           0       -5.926756    1.329883    0.441654
     51          1           0        2.805916    0.017978    0.738829
     52          1           0       -0.282565    1.876914    0.081693
     53          1           0        1.749506   -4.651466    0.847762
     54          1           0        2.520544   -3.578840    1.949481
     55          1           0        1.020198   -4.418689    2.453328
     56          1           0        2.533467   -3.610768   -0.532714
     57          1           0       -1.151715   -5.254571    0.363519
     58          1           0       -2.537387   -5.168611    1.305688
     59          1           0       -4.799949   -1.017131   -0.837616
     60          1           0       -5.572612    0.536219   -1.555284
     61          1           0       -4.444084    4.738963    0.381233
     62          1           0       -5.575694    3.396036   -0.369020
     63          1           0       -4.394797    4.508264   -1.492596
     64          1           0       -1.810566    5.170786   -0.538097
     65          1           0        7.577539   -2.688407   -0.719937
     66          1           0        7.222925   -4.237457   -1.714107
     67          1           0        6.928157   -3.954636    0.070971
     68          1           0        6.758376   -0.531310   -0.443923
     69          1           0        4.838507    1.540762    0.340897
     70          1           0        6.373010    1.013816    1.199814
     71          1           0        4.514539   -0.016893    1.379244
     72          1           0        3.392032    6.322070   -0.855271
     73          1           0        4.315186    5.013467   -1.144483
     74          1           0        0.176396    6.534805   -1.722889
     75          1           0        1.406550    7.242678   -1.195238
     76          1           0       -0.047095    7.273301   -0.020575
     77          1           0        3.684129    6.155943    1.712624
     78          1           0        5.218885    6.068398    0.959324
     79          1           0        4.143963    4.550369    1.590269
     80          1           0       -4.088252   -4.364387   -1.656735
     81          1           0       -8.062693   -1.962718   -1.621238
 ---------------------------------------------------------------------

 SCF Done:  E(RB3LYP) =  -1949.06150613     A.U. after   16 cycles

 Excitation energies and oscillator strengths:

 Excited State   1:      Singlet-A      1.7669 eV  701.71 nm  f=0.3180  <S**2>=0.000
     156 ->157         0.70701
     156 <-157        -0.10411
 This state for optimization and/or second-order correction.
 Total Energy, E(TD-HF/TD-DFT) =  -1948.99657421
 Copying the excited state density for this state as the 1-particle RhoCI density.

 The electronic state is 1-A.
 Alpha  occ. eigenvalues --  -19.19938 -19.18910 -19.14068 -19.13088 -19.10964
 Alpha  occ. eigenvalues --  -19.09310 -14.37363 -14.36794 -14.35193 -14.30235
 Alpha  occ. eigenvalues --  -10.32672 -10.31938 -10.27436 -10.26873 -10.24718
 Alpha  occ. eigenvalues --  -10.23854 -10.23835 -10.23628 -10.23248 -10.23202
 Alpha  occ. eigenvalues --  -10.22194 -10.22144 -10.22035 -10.21306 -10.20984
 Alpha  occ. eigenvalues --  -10.20647 -10.20362 -10.20189 -10.20183 -10.20080
 Alpha  occ. eigenvalues --  -10.20032 -10.19779 -10.19736 -10.19720 -10.19631
 Alpha  occ. eigenvalues --  -10.19552 -10.19250 -10.19066 -10.19037 -10.18933
 Alpha  occ. eigenvalues --  -10.18770 -10.18600 -10.17769  -1.12979  -1.08718
 Alpha  occ. eigenvalues --   -1.04454  -1.03889  -1.02710  -1.00426  -0.98269
 Alpha  occ. eigenvalues --   -0.97533  -0.96408  -0.91807  -0.83118  -0.82680
 Alpha  occ. eigenvalues --   -0.82081  -0.80853  -0.80090  -0.78497  -0.77844
 Alpha  occ. eigenvalues --   -0.77753  -0.76006  -0.75055  -0.74208  -0.72491
 Alpha  occ. eigenvalues --   -0.70866  -0.69915  -0.69240  -0.68385  -0.67511
 Alpha  occ. eigenvalues --   -0.66792  -0.65113  -0.63653  -0.63076  -0.61762
 Alpha  occ. eigenvalues --   -0.60196  -0.59048  -0.58450  -0.58263  -0.56895
 Alpha  occ. eigenvalues --   -0.55962  -0.55385  -0.54632  -0.53849  -0.53427
 Alpha  occ. eigenvalues --   -0.52802  -0.51971  -0.51356  -0.50819  -0.50072
 Alpha  occ. eigenvalues --   -0.49477  -0.49139  -0.48755  -0.48072  -0.48010
 Alpha  occ. eigenvalues --   -0.47609  -0.47004  -0.46236  -0.45901  -0.45336
 Alpha  occ. eigenvalues --   -0.44783  -0.44540  -0.44443  -0.43986  -0.43647
 Alpha  occ. eigenvalues --   -0.43563  -0.43293  -0.43030  -0.42528  -0.42464
 Alpha  occ. eigenvalues --   -0.41973  -0.41859  -0.41664  -0.41295  -0.41029
 Alpha  occ. eigenvalues --   -0.40835  -0.40364  -0.40145  -0.39953  -0.39585
 Alpha  occ. eigenvalues --   -0.39335  -0.38779  -0.38549  -0.38423  -0.38046
 Alpha  occ. eigenvalues --   -0.37694  -0.37638  -0.37473  -0.37219  -0.37004
 Alpha  occ. eigenvalues --   -0.36489  -0.35985  -0.35815  -0.35436  -0.34814
 Alpha  occ. eigenvalues --   -0.34590  -0.34142  -0.34021  -0.33638  -0.33511
 Alpha  occ. eigenvalues --   -0.32827  -0.32107  -0.30893  -0.29996  -0.29365
 Alpha  occ. eigenvalues --   -0.28120  -0.27855  -0.26345  -0.25360  -0.25204
 Alpha  occ. eigenvalues --   -0.24807  -0.24707  -0.24407  -0.23678  -0.21696
 Alpha  occ. eigenvalues --   -0.17719
 Alpha virt. eigenvalues --   -0.10462  -0.06297  -0.04659   0.00309   0.00685
 Alpha virt. eigenvalues --    0.00813   0.00892   0.01817   0.02640   0.03081
 Alpha virt. eigenvalues --    0.03614   0.04331   0.05256   0.05280   0.06487

 Mulliken charges:
               1
     1  O   -0.212960
     2  O   -0.205911
     3  O   -0.258755
     4  O   -0.192379
     5  O   -0.214379
     6  O   -0.177038
     7  N   -0.067045
     8  N   -0.172355
     9  N    0.001999
    10  N   -0.345280
    11  C   -0.069553
    12  C    0.057836
    13  C   -0.147812
    14  C    0.086579
    15  C   -0.050447
    16  C   -0.000347
    17  C    0.023997
    18  C   -0.118334
    19  C   -0.001003
    20  C   -0.145339
    21  C    0.082670
    22  C    0.073056
    23  C   -0.031408
    24  C    0.216723
    25  C   -0.163098
    26  C    0.086006
    27  C    0.073888
    28  C    0.096059
    29  C    0.043792
    30  C   -0.032589
    31  C   -0.123831
    32  C    0.065435
    33  C   -0.094062
    34  C    0.096022
    35  C   -0.101318
    36  C   -0.166981
    37  C    0.092780
    38  C   -0.029377
    39  C    0.109468
    40  C    0.012005
    41  C    0.168575
    42  C    0.109323
    43  C    0.073492
    44  H    0.126582
    45  H   -0.015034
    46  H    0.018129
    47  H    0.034010
    48  H    0.064938
    49  H    0.003760
    50  H   -0.064374
    51  H    0.063230
    52  H    0.242567
    53  H    0.026222
    54  H    0.026345
    55  H    0.003834
    56  H    0.114198
    57  H    0.050900
    58  H   -0.055560
    59  H    0.050291
    60  H    0.004244
    61  H    0.037861
    62  H    0.030223
    63  H    0.053907
    64  H    0.007124
    65  H   -0.018323
    66  H    0.052680
    67  H    0.004714
    68  H   -0.027859
    69  H    0.102978
    70  H    0.025820
    71  H    0.055861
    72  H   -0.021813
    73  H    0.020127
    74  H   -0.016004
    75  H   -0.009625
    76  H    0.072991
    77  H   -0.014758
    78  H    0.015211
    79  H    0.035899
    80  H    0.231358
    81  H    0.219243
 Sum of Mulliken charges =  -0.00000

 Dipole moment (field-independent basis, Debye):
    X=             -3.2763    Y=              1.3750    Z=             -0.5147  Tot=              3.5902
 Quadrupole moment (field-independent basis, Debye-Ang):
   XX=           -245.7225   YY=           -239.2346   ZZ=           -257.5534
   XY=             25.9788   XZ=             13.5690   YZ=            -18.2366

 Normal termination of Gaussian 16 at Sun Jun 30 19:02:58 2019.
