 Gaussian 16, Revision A.03,
 Gaussian 16:  ES64L-G16RevA.03 25-Dec-2016

 --------------------------
 # td=(NStates=1) B3LYP/SVP
 --------------------------

 --
 TD
 --
 Symbolic Z-matrix:
 Charge =  0 Multiplicity = 1

                         Standard orientation:
 ---------------------------------------------------------------------
 Center     Atomic      Atomic             Coordinates (Angstroms)
 Number     Number       Type             X           Y           Z
 ---------------------------------------------------------------------
      1          8           0        4.438134   -4.812298   -1.740282
      2          8           0       -2.832359   -4.937632   -1.094399
      3          8           0       -6.924105   -1.612175   -1.951330
      4          8           0       -3.667670   -3.265808    0.051649
      5          8           0       -7.450318   -0.880134    0.139096
      6          8           0        2.906802    2.488029    0.444350
      7          7           0        0.259279   -0.473540    0.676499
      8          7           0       -1.565399    1.816303    0.399871
      9          7           0        3.392820   -3.183685   -0.598038
     10          7           0        0.670548    2.894124   -0.012139
     11          6           0       -0.558830   -2.327930    1.543759
     12          6           0       -0.975546   -1.070995    1.053267
     13          6           0        0.795276   -2.558319    1.273092
     14          6           0        1.273143   -1.351941    0.616597
     15          6           0       -3.777093    1.438545    0.307379
     16          6           0       -2.476533    0.846445    0.517263
     17          6           0       -2.262663   -0.498338    0.844663
     18          6           0       -3.656138    2.730796   -0.105102
     19          6           0       -1.571209   -3.321979    2.022729
     20          6           0        5.520665   -2.748369   -1.342916
     21          6           0        3.653492   -1.781301   -0.309507
     22          6           0       -2.211907    3.019286   -0.065810
     23          6           0        5.047316   -1.456395   -0.624625
     24          6           0       -5.030025    0.652286    0.317647
     25          6           0        2.627524   -0.931003    0.295505
     26          6           0        1.514747   -3.766168    1.757799
     27          6           0        4.498298   -3.749176   -1.278605
     28          6           0       -1.839798   -4.511480    1.057396
     29          6           0       -5.306013   -0.211068   -0.858174
     30          6           0       -4.603247    3.744132   -0.597618
     31          6           0       -1.398289    4.095481   -0.356345
     32          6           0        6.851043   -3.361804   -0.736434
     33          6           0        5.764001   -0.411093   -0.279422
     34          6           0       -0.011226    4.027330   -0.253726
     35          6           0        0.889211    5.249655   -0.424540
     36          6           0        2.147029    4.716253   -0.192020
     37          6           0       -2.830870   -4.101465   -0.035018
     38          6           0        5.374383    0.827693    0.496820
     39          6           0       -6.669913   -0.930465   -0.754097
     40          6           0        3.514251    5.337465   -0.255276
     41          6           0        1.996685    3.271147    0.136540
     42          6           0        0.410361    6.578620   -0.697917
     43          6           0        4.111050    5.489606    1.057559
     44          1           0        0.385690    0.434534    0.219426
     45          1           0       -2.967832   -1.147683    1.002650
     46          1           0       -2.552016   -2.757543    2.240584
     47          1           0       -1.244910   -3.756529    3.021834
     48          1           0        5.815420   -2.494569   -2.471126
     49          1           0       -5.001429   -0.035954    1.166247
     50          1           0       -5.834598    1.324398    0.294423
     51          1           0        2.802737    0.010540    0.242674
     52          1           0       -0.402562    2.107751    0.525142
     53          1           0        1.539729   -4.707505    1.009632
     54          1           0        2.629575   -3.421646    1.648365
     55          1           0        1.312344   -4.105908    2.648105
     56          1           0        2.277872   -3.449533   -0.807395
     57          1           0       -1.076267   -5.043951    0.509520
     58          1           0       -2.410498   -5.312630    1.658442
     59          1           0       -4.392887   -0.830320   -0.845958
     60          1           0       -5.052616    0.158470   -1.969427
     61          1           0       -4.325866    4.630983    0.015680
     62          1           0       -5.770738    3.365451   -0.323663
     63          1           0       -4.474936    3.849142   -1.609433
     64          1           0       -1.928162    5.192476   -0.527182
     65          1           0        7.668352   -2.483538   -0.721447
     66          1           0        7.186944   -4.441353   -1.009714
     67          1           0        6.726536   -3.462697    0.501943
     68          1           0        6.787174   -0.450421   -0.495216
     69          1           0        4.764747    1.534399    0.059497
     70          1           0        6.260251    1.412208    0.893421
     71          1           0        4.863888    0.605594    1.377576
     72          1           0        3.574353    6.473481   -0.773140
     73          1           0        4.091094    4.714527   -0.680241
     74          1           0       -0.351029    6.731282   -1.459800
     75          1           0        1.227651    7.234091   -1.302142
     76          1           0        0.197949    7.118289    0.158269
     77          1           0        3.527327    6.238895    1.702817
     78          1           0        5.150829    5.955167    1.023898
     79          1           0        4.337380    4.638015    1.653482
     80          1           0       -3.611575   -4.723078   -1.622466
     81          1           0       -7.649605   -1.929791   -1.796488
 ---------------------------------------------------------------------

 SCF Done:  E(RB3LYP) =  -1949.05413615     A.U. after   17 cycles

 Excitation energies and oscillator strengths:

 Excited State   1:      Singlet-A      1.7011 eV  728.85 nm  f=0.3621  <S**2>=0.000
     156 ->157         0.71443
     156 <-157        -0.14045
 This state for optimization and/or second-order correction.
 Total Energy, E(TD-HF/TD-DFT) =  -1948.99162238
 Copying the excited state density for this state as the 1-particle RhoCI density.

 The electronic state is 1-A.
 Alpha  occ. eigenvalues --  -19.18685 -19.16281 -19.14168 -19.13771 -19.11452
 Alpha  occ. eigenvalues --  -19.10489 -14.37384 -14.37016 -14.33810 -14.30581
 Alpha  occ. eigenvalues --  -10.32738 -10.32709 -10.28955 -10.27245 -10.25294
 Alpha  occ. eigenvalues --  -10.23991 -10.23378 -10.23291 -10.22862 -10.22616
 Alpha  occ. eigenvalues --  -10.22289 -10.22239 -10.22169 -10.21607 -10.20750
 Alpha  occ. eigenvalues --  -10.20696 -10.20655 -10.20502 -10.20382 -10.20058
 Alpha  occ. eigenvalues --  -10.19946 -10.19789 -10.19574 -10.19513 -10.19490
 Alpha  occ. eigenvalues --  -10.19331 -10.19308 -10.19303 -10.18744 -10.18681
 Alpha  occ. eigenvalues --  -10.18517 -10.17398 -10.16596  -1.11650  -1.11586
 Alpha  occ. eigenvalues --   -1.06666  -1.03430  -1.02118  -1.01225  -0.98091
 Alpha  occ. eigenvalues --   -0.95953  -0.93467  -0.92644  -0.82596  -0.82190
 Alpha  occ. eigenvalues --   -0.81580  -0.81146  -0.80830  -0.78635  -0.77589
 Alpha  occ. eigenvalues --   -0.77540  -0.77241  -0.76528  -0.74326  -0.72179
 Alpha  occ. eigenvalues --   -0.71290  -0.70069  -0.69525  -0.68294  -0.67212
 Alpha  occ. eigenvalues --   -0.66966  -0.65373  -0.65222  -0.62255  -0.61658
 Alpha  occ. eigenvalues --   -0.60723  -0.59662  -0.59382  -0.57163  -0.56713
 Alpha  occ. eigenvalues --   -0.55753  -0.55096  -0.54723  -0.53660  -0.53224
 Alpha  occ. eigenvalues --   -0.52369  -0.51480  -0.50876  -0.50517  -0.49983
 Alpha  occ. eigenvalues --   -0.49331  -0.48890  -0.48767  -0.48561  -0.48303
 Alpha  occ. eigenvalues --   -0.46915  -0.46766  -0.46424  -0.45894  -0.45634
 Alpha  occ. eigenvalues --   -0.45523  -0.45259  -0.45174  -0.44347  -0.44006
 Alpha  occ. eigenvalues --   -0.43767  -0.43599  -0.43346  -0.43127  -0.42572
 Alpha  occ. eigenvalues --   -0.42510  -0.41993  -0.41901  -0.41693  -0.41469
 Alpha  occ. eigenvalues --   -0.41106  -0.41009  -0.40420  -0.40147  -0.40123
 Alpha  occ. eigenvalues --   -0.39894  -0.39069  -0.38948  -0.38615  -0.38407
 Alpha  occ. eigenvalues --   -0.37627  -0.37560  -0.37108  -0.36858  -0.36371
 Alpha  occ. eigenvalues --   -0.35936  -0.35575  -0.35193  -0.34880  -0.34764
 Alpha  occ. eigenvalues --   -0.34032  -0.33772  -0.33572  -0.33375  -0.33339
 Alpha  occ. eigenvalues --   -0.32514  -0.32389  -0.32190  -0.29953  -0.29537
 Alpha  occ. eigenvalues --   -0.29322  -0.28774  -0.27561  -0.26544  -0.26014
 Alpha  occ. eigenvalues --   -0.25216  -0.24905  -0.24500  -0.23949  -0.21957
 Alpha  occ. eigenvalues --   -0.17399
 Alpha virt. eigenvalues --   -0.10787  -0.06106  -0.04345  -0.00993  -0.00940
 Alpha virt. eigenvalues --   -0.00383   0.02227   0.02950   0.03660   0.04415
 Alpha virt. eigenvalues --    0.04700   0.04799   0.05253   0.05851   0.06503

 Mulliken charges:
               1
     1  O   -0.136554
     2  O   -0.177738
     3  O   -0.107681
     4  O   -0.206671
     5  O   -0.185185
     6  O   -0.232813
     7  N   -0.084166
     8  N   -0.226100
     9  N   -0.248372
    10  N   -0.284719
    11  C   -0.077638
    12  C    0.052831
    13  C   -0.154108
    14  C    0.038793
    15  C   -0.123720
    16  C    0.137554
    17  C    0.040010
    18  C   -0.106662
    19  C    0.053932
    20  C   -0.090510
    21  C    0.025083
    22  C    0.070725
    23  C    0.084615
    24  C    0.179677
    25  C    0.062897
    26  C    0.091640
    27  C    0.140887
    28  C    0.030841
    29  C   -0.074269
    30  C    0.094252
    31  C   -0.164068
    32  C   -0.078419
    33  C   -0.154737
    34  C    0.052610
    35  C   -0.072217
    36  C   -0.177982
    37  C    0.089120
    38  C    0.123269
    39  C    0.167586
    40  C    0.214218
    41  C    0.174346
    42  C    0.085321
    43  C   -0.047428
    44  H    0.142059
    45  H   -0.108502
    46  H    0.033934
    47  H    0.014641
    48  H    0.077440
    49  H    0.015791
    50  H   -0.022353
    51  H   -0.116902
    52  H    0.225380
    53  H    0.023385
    54  H    0.045069
    55  H   -0.023329
    56  H    0.198941
    57  H    0.028754
    58  H    0.056616
    59  H    0.028883
    60  H    0.040354
    61  H    0.038047
    62  H    0.038976
    63  H    0.019095
    64  H    0.018917
    65  H    0.043050
    66  H    0.072495
    67  H    0.025414
    68  H   -0.032584
    69  H    0.036571
    70  H   -0.004476
    71  H    0.005823
    72  H    0.018840
    73  H   -0.066466
    74  H    0.020919
    75  H    0.018900
    76  H    0.021719
    77  H    0.003545
    78  H   -0.001514
    79  H    0.018928
    80  H    0.178769
    81  H    0.066423
 Sum of Mulliken charges =  -0.00000

 Dipole moment (field-independent basis, Debye):
    X=             -0.9423    Y=              1.1678    Z=             -1.0489  Tot=              1.8308
 Quadrupole moment (field-independent basis, Debye-Ang):
   XX=           -253.6022   YY=           -236.2023   ZZ=           -255.2566
   XY=             11.1534   XZ=             10.2377   YZ=            -11.7452

 Normal termination of Gaussian 16 at Fri Jun 28 18:33:56 2019.
