 Gaussian 16, Revision A.03,
 Gaussian 16:  ES64L-G16RevA.03 25-Dec-2016

 --------------------------
 # td=(NStates=1) B3LYP/SVP
 --------------------------

 --
 TD
 --
 Symbolic Z-matrix:
 Charge =  0 Multiplicity = 1

                         Standard orientation:
 ---------------------------------------------------------------------
 Center     Atomic      Atomic             Coordinates (Angstroms)
 Number     Number       Type             X           Y           Z
 ---------------------------------------------------------------------
      1          8           0        4.401234   -4.763215   -1.799315
      2          8           0       -2.639026   -4.768657   -1.369378
      3          8           0       -6.861831   -1.779405   -1.935922
      4          8           0       -3.514173   -3.207446    0.015963
      5          8           0       -7.554765   -0.962016    0.068165
      6          8           0        2.862704    2.401354    0.303684
      7          7           0        0.277092   -0.430400    0.737492
      8          7           0       -1.646639    1.739143    0.372621
      9          7           0        3.295525   -3.011244   -0.716377
     10          7           0        0.640468    2.967380    0.121655
     11          6           0       -0.527481   -2.415018    1.412347
     12          6           0       -0.946680   -1.056247    1.015308
     13          6           0        0.797635   -2.608083    1.266829
     14          6           0        1.257479   -1.332568    0.842970
     15          6           0       -3.893133    1.431256    0.423866
     16          6           0       -2.578116    0.776471    0.615974
     17          6           0       -2.191567   -0.536714    0.862107
     18          6           0       -3.718033    2.764655    0.043736
     19          6           0       -1.447982   -3.485643    2.058715
     20          6           0        5.582418   -2.673766   -1.257897
     21          6           0        3.537449   -1.787696   -0.228926
     22          6           0       -2.219088    2.979139    0.012192
     23          6           0        5.031193   -1.503162   -0.400803
     24          6           0       -5.168942    0.500395    0.487978
     25          6           0        2.629670   -0.955070    0.468043
     26          6           0        1.691044   -3.641034    1.929223
     27          6           0        4.427639   -3.646211   -1.358188
     28          6           0       -1.800871   -4.639137    0.936283
     29          6           0       -5.374609   -0.217739   -0.814525
     30          6           0       -4.792744    3.761852   -0.307828
     31          6           0       -1.405187    4.108102   -0.452565
     32          6           0        6.939897   -3.274979   -1.016382
     33          6           0        5.790970   -0.534486    0.007248
     34          6           0       -0.066608    4.017071   -0.368802
     35          6           0        0.981228    5.200816   -0.498256
     36          6           0        2.201014    4.760867   -0.330409
     37          6           0       -2.747170   -4.111791   -0.143801
     38          6           0        5.424487    0.733308    0.760950
     39          6           0       -6.736993   -0.966099   -0.852434
     40          6           0        3.525612    5.378939   -0.329693
     41          6           0        2.015710    3.253748    0.063140
     42          6           0        0.463206    6.559548   -0.919255
     43          6           0        4.050217    5.650998    1.010018
     44          1           0        0.520156    0.427380    0.164328
     45          1           0       -2.912339   -1.194119    1.138689
     46          1           0       -2.360854   -3.150641    2.343725
     47          1           0       -0.918829   -3.811583    2.751904
     48          1           0        5.479906   -2.129725   -2.133257
     49          1           0       -5.009236    0.098646    1.530650
     50          1           0       -5.900816    1.232821    0.544774
     51          1           0        3.115031    0.008040    0.617182
     52          1           0       -0.740624    1.859603    0.455982
     53          1           0        1.692156   -4.397917    1.068905
     54          1           0        2.805828   -3.179550    1.992144
     55          1           0        1.307189   -4.133416    2.787021
     56          1           0        2.230178   -3.118976   -1.036772
     57          1           0       -0.840685   -4.945797    0.448385
     58          1           0       -2.435979   -5.256037    1.579097
     59          1           0       -4.517979   -0.960155   -1.079588
     60          1           0       -5.544394    0.453185   -1.708524
     61          1           0       -4.451642    4.809203    0.052801
     62          1           0       -5.829247    3.432915   -0.258947
     63          1           0       -4.890603    3.999120   -1.442952
     64          1           0       -1.790858    5.121181   -0.708761
     65          1           0        7.655411   -2.206239   -1.118963
     66          1           0        7.386304   -4.053500   -1.617668
     67          1           0        7.181296   -3.428273    0.058711
     68          1           0        6.840590   -0.481407   -0.250699
     69          1           0        4.886321    1.500368    0.058789
     70          1           0        6.279568    0.951162    1.316001
     71          1           0        4.586059    0.673232    1.482219
     72          1           0        3.559059    6.281233   -0.980113
     73          1           0        4.116782    4.704677   -0.816959
     74          1           0       -0.316027    6.418918   -1.771480
     75          1           0        1.341581    7.298319   -1.238261
     76          1           0       -0.036886    7.044161   -0.141096
     77          1           0        3.323719    6.373591    1.463128
     78          1           0        5.161928    6.080808    1.044018
     79          1           0        4.149281    4.886378    1.583720
     80          1           0       -3.276363   -4.221810   -1.892707
     81          1           0       -7.753210   -2.155201   -1.781715
 ---------------------------------------------------------------------

 SCF Done:  E(RB3LYP) =  -1949.08810579     A.U. after   16 cycles

 Excitation energies and oscillator strengths:

 Excited State   1:      Singlet-A      1.9316 eV  641.86 nm  f=0.4124  <S**2>=0.000
     156 ->157         0.70794
     156 <-157        -0.12231
 This state for optimization and/or second-order correction.
 Total Energy, E(TD-HF/TD-DFT) =  -1949.01711946
 Copying the excited state density for this state as the 1-particle RhoCI density.

 The electronic state is 1-A.
 Alpha  occ. eigenvalues --  -19.19414 -19.18950 -19.15105 -19.12939 -19.12768
 Alpha  occ. eigenvalues --  -19.09761 -14.38292 -14.37844 -14.35276 -14.27598
 Alpha  occ. eigenvalues --  -10.33833 -10.32393 -10.30495 -10.26058 -10.24946
 Alpha  occ. eigenvalues --  -10.24796 -10.24101 -10.23221 -10.22951 -10.22873
 Alpha  occ. eigenvalues --  -10.22132 -10.21535 -10.21105 -10.21044 -10.20968
 Alpha  occ. eigenvalues --  -10.20927 -10.20840 -10.20651 -10.20645 -10.20364
 Alpha  occ. eigenvalues --  -10.20192 -10.20132 -10.19781 -10.19710 -10.19535
 Alpha  occ. eigenvalues --  -10.19053 -10.19029 -10.18714 -10.18652 -10.17606
 Alpha  occ. eigenvalues --  -10.17381 -10.17212 -10.16691  -1.10835  -1.09639
 Alpha  occ. eigenvalues --   -1.05030  -1.02240  -1.00407  -0.99978  -0.99242
 Alpha  occ. eigenvalues --   -0.97271  -0.96030  -0.89609  -0.83064  -0.82496
 Alpha  occ. eigenvalues --   -0.81836  -0.81205  -0.80240  -0.78438  -0.77729
 Alpha  occ. eigenvalues --   -0.77293  -0.76280  -0.75130  -0.74251  -0.71987
 Alpha  occ. eigenvalues --   -0.71051  -0.69566  -0.69271  -0.68571  -0.68040
 Alpha  occ. eigenvalues --   -0.67557  -0.65976  -0.64520  -0.62176  -0.60903
 Alpha  occ. eigenvalues --   -0.59810  -0.59706  -0.58800  -0.58309  -0.57586
 Alpha  occ. eigenvalues --   -0.56355  -0.55387  -0.55163  -0.53490  -0.52891
 Alpha  occ. eigenvalues --   -0.51906  -0.51418  -0.51140  -0.50334  -0.49807
 Alpha  occ. eigenvalues --   -0.49568  -0.49040  -0.48668  -0.48473  -0.48302
 Alpha  occ. eigenvalues --   -0.47489  -0.47421  -0.46067  -0.45779  -0.45544
 Alpha  occ. eigenvalues --   -0.44919  -0.44787  -0.44665  -0.44181  -0.44028
 Alpha  occ. eigenvalues --   -0.43778  -0.43540  -0.43127  -0.42455  -0.42373
 Alpha  occ. eigenvalues --   -0.42213  -0.42021  -0.41832  -0.41666  -0.41086
 Alpha  occ. eigenvalues --   -0.40885  -0.40839  -0.40583  -0.40247  -0.40006
 Alpha  occ. eigenvalues --   -0.39585  -0.39396  -0.38842  -0.38624  -0.38401
 Alpha  occ. eigenvalues --   -0.38120  -0.37883  -0.37421  -0.36872  -0.36803
 Alpha  occ. eigenvalues --   -0.36442  -0.36122  -0.35273  -0.34838  -0.34683
 Alpha  occ. eigenvalues --   -0.34246  -0.34155  -0.34043  -0.33624  -0.32967
 Alpha  occ. eigenvalues --   -0.32779  -0.32472  -0.32257  -0.30174  -0.29812
 Alpha  occ. eigenvalues --   -0.28151  -0.27611  -0.26452  -0.26340  -0.25872
 Alpha  occ. eigenvalues --   -0.25164  -0.24890  -0.23583  -0.23191  -0.21336
 Alpha  occ. eigenvalues --   -0.17327
 Alpha virt. eigenvalues --   -0.09757  -0.04576  -0.03061  -0.01804  -0.00739
 Alpha virt. eigenvalues --   -0.00301   0.02031   0.02335   0.03606   0.03678
 Alpha virt. eigenvalues --    0.04237   0.04517   0.04782   0.05349   0.05817

 Mulliken charges:
               1
     1  O   -0.167064
     2  O   -0.213128
     3  O   -0.188260
     4  O   -0.210917
     5  O   -0.248128
     6  O   -0.223991
     7  N   -0.064590
     8  N   -0.008899
     9  N   -0.159755
    10  N   -0.334186
    11  C   -0.141198
    12  C    0.076982
    13  C   -0.179341
    14  C    0.030483
    15  C   -0.178216
    16  C    0.082237
    17  C    0.008342
    18  C   -0.106398
    19  C    0.287667
    20  C    0.011702
    21  C    0.000605
    22  C    0.051531
    23  C    0.037538
    24  C    0.206569
    25  C   -0.059060
    26  C    0.083682
    27  C    0.122011
    28  C    0.003153
    29  C   -0.015137
    30  C    0.063152
    31  C   -0.093133
    32  C    0.033372
    33  C   -0.235451
    34  C    0.081285
    35  C   -0.098626
    36  C   -0.214917
    37  C    0.124705
    38  C    0.047670
    39  C    0.142340
    40  C    0.174042
    41  C    0.150279
    42  C    0.064107
    43  C    0.060903
    44  H    0.174024
    45  H   -0.056654
    46  H   -0.025186
    47  H   -0.077979
    48  H    0.027647
    49  H    0.045498
    50  H   -0.034506
    51  H   -0.007353
    52  H    0.037360
    53  H    0.021633
    54  H    0.070440
    55  H    0.021459
    56  H    0.182902
    57  H    0.051999
    58  H    0.051946
    59  H    0.068432
    60  H    0.040512
    61  H    0.039002
    62  H    0.014169
    63  H    0.013927
    64  H   -0.020901
    65  H    0.015487
    66  H    0.048486
    67  H    0.026078
    68  H   -0.013379
    69  H    0.086087
    70  H   -0.005199
    71  H    0.028346
    72  H   -0.015272
    73  H   -0.032514
    74  H    0.038583
    75  H    0.027473
    76  H    0.007662
    77  H    0.005497
    78  H    0.009438
    79  H   -0.033982
    80  H    0.186627
    81  H    0.178248
 Sum of Mulliken charges =  -0.00000

 Dipole moment (field-independent basis, Debye):
    X=             -1.4724    Y=             -0.5684    Z=             -1.1198  Tot=              1.9352
 Quadrupole moment (field-independent basis, Debye-Ang):
   XX=           -247.7238   YY=           -249.3363   ZZ=           -252.1214
   XY=              6.8008   XZ=             13.5724   YZ=            -13.5990

 Normal termination of Gaussian 16 at Sun Jun 30 12:35:39 2019.
