 Gaussian 16, Revision A.03,
 Gaussian 16:  ES64L-G16RevA.03 25-Dec-2016

 --------------------------
 # td=(NStates=1) B3LYP/SVP
 --------------------------

 --
 TD
 --
 Symbolic Z-matrix:
 Charge =  0 Multiplicity = 1

                         Standard orientation:
 ---------------------------------------------------------------------
 Center     Atomic      Atomic             Coordinates (Angstroms)
 Number     Number       Type             X           Y           Z
 ---------------------------------------------------------------------
      1          8           0        4.160032   -4.829576   -1.821171
      2          8           0       -2.912603   -4.845585   -0.982938
      3          8           0       -6.817083   -1.639217   -1.939530
      4          8           0       -3.823933   -3.168749    0.150732
      5          8           0       -7.460796   -0.588679   -0.147562
      6          8           0        2.990660    2.288787    0.309790
      7          7           0        0.248222   -0.449875    0.654701
      8          7           0       -1.515537    1.892204    0.451434
      9          7           0        3.198511   -3.087315   -0.703387
     10          7           0        0.792307    2.817193   -0.009647
     11          6           0       -0.730979   -2.290482    1.391677
     12          6           0       -0.947996   -0.973382    0.961579
     13          6           0        0.660725   -2.542538    1.375327
     14          6           0        1.237648   -1.295435    0.783354
     15          6           0       -3.812451    1.558746    0.349889
     16          6           0       -2.513105    0.950319    0.593561
     17          6           0       -2.347877   -0.359282    0.954578
     18          6           0       -3.548773    2.893351   -0.031505
     19          6           0       -1.701679   -3.294660    2.095371
     20          6           0        5.471860   -2.849303   -1.339482
     21          6           0        3.563993   -1.841572   -0.216674
     22          6           0       -2.119492    3.128024    0.000921
     23          6           0        4.968706   -1.605014   -0.590084
     24          6           0       -5.111487    0.781004    0.286884
     25          6           0        2.599336   -0.986354    0.366757
     26          6           0        1.452438   -3.715006    1.806674
     27          6           0        4.212733   -3.698705   -1.329327
     28          6           0       -1.931295   -4.442633    1.158333
     29          6           0       -5.448246    0.012590   -1.059979
     30          6           0       -4.531340    3.849848   -0.498356
     31          6           0       -1.263467    4.081569   -0.272906
     32          6           0        6.772427   -3.498796   -0.995576
     33          6           0        5.756948   -0.636325   -0.055772
     34          6           0        0.187240    3.993866   -0.251259
     35          6           0        1.170590    5.019473   -0.494893
     36          6           0        2.374250    4.367664   -0.298655
     37          6           0       -3.001702   -4.086460    0.076446
     38          6           0        5.459773    0.634543    0.664128
     39          6           0       -6.601096   -0.747268   -1.011586
     40          6           0        3.780892    5.232522   -0.250199
     41          6           0        2.164597    3.078008    0.033911
     42          6           0        0.738333    6.505562   -0.903253
     43          6           0        4.247026    5.439318    1.191280
     44          1           0        0.192191    0.289398   -0.022138
     45          1           0       -3.183628   -0.990742    0.923161
     46          1           0       -2.592399   -2.779261    2.475123
     47          1           0       -1.114168   -3.916783    2.869559
     48          1           0        5.640080   -2.500799   -2.360593
     49          1           0       -5.220330    0.073705    1.194563
     50          1           0       -5.889212    1.569026    0.724506
     51          1           0        2.722007    0.170416    0.237714
     52          1           0       -0.570341    2.100918    0.517562
     53          1           0        1.574242   -4.371178    0.970189
     54          1           0        2.479220   -3.515760    2.242278
     55          1           0        1.019538   -4.116898    2.678891
     56          1           0        2.428590   -3.531613   -0.662992
     57          1           0       -1.124745   -4.967341    0.705996
     58          1           0       -2.391562   -5.183756    1.621333
     59          1           0       -4.509612   -0.688367   -1.046516
     60          1           0       -5.320357    0.594034   -1.948988
     61          1           0       -4.265257    4.765825    0.232661
     62          1           0       -5.625542    3.622191   -0.086542
     63          1           0       -4.309170    4.269870   -1.522236
     64          1           0       -1.481705    5.125012   -0.570880
     65          1           0        7.640977   -2.869717   -1.313632
     66          1           0        6.847177   -4.463538   -1.619358
     67          1           0        6.995812   -3.599816    0.117937
     68          1           0        6.837415   -0.847771   -0.497016
     69          1           0        4.694236    1.285016    0.251741
     70          1           0        6.196209    1.307376    0.879293
     71          1           0        4.945966    0.275155    1.564086
     72          1           0        3.765840    6.229733   -0.769242
     73          1           0        4.477998    4.641116   -0.814173
     74          1           0        0.163365    6.548863   -1.731415
     75          1           0        1.479332    7.167782   -0.890510
     76          1           0        0.324118    6.870702   -0.104412
     77          1           0        3.426866    5.983635    1.783310
     78          1           0        5.119693    5.931127    1.179460
     79          1           0        4.302638    4.299537    1.813642
     80          1           0       -3.530966   -4.457798   -1.578061
     81          1           0       -7.550449   -2.239727   -1.697554
 ---------------------------------------------------------------------

 SCF Done:  E(RB3LYP) =  -1949.05327041     A.U. after   18 cycles

 Excitation energies and oscillator strengths:

 Excited State   1:      Singlet-A      1.4766 eV  839.67 nm  f=0.2222  <S**2>=0.000
     156 ->157         0.71348
     156 <-157        -0.14470
 This state for optimization and/or second-order correction.
 Total Energy, E(TD-HF/TD-DFT) =  -1948.99900677
 Copying the excited state density for this state as the 1-particle RhoCI density.

 The electronic state is 1-A.
 Alpha  occ. eigenvalues --  -19.20205 -19.18181 -19.13736 -19.10906 -19.10700
 Alpha  occ. eigenvalues --  -19.09886 -14.37492 -14.36640 -14.34218 -14.27942
 Alpha  occ. eigenvalues --  -10.33174 -10.31027 -10.28302 -10.25526 -10.24761
 Alpha  occ. eigenvalues --  -10.23429 -10.23128 -10.23064 -10.22686 -10.22570
 Alpha  occ. eigenvalues --  -10.21894 -10.21358 -10.21255 -10.21165 -10.20872
 Alpha  occ. eigenvalues --  -10.20823 -10.20703 -10.20596 -10.20514 -10.20220
 Alpha  occ. eigenvalues --  -10.20189 -10.19817 -10.19804 -10.19587 -10.19212
 Alpha  occ. eigenvalues --  -10.19177 -10.19132 -10.19119 -10.19082 -10.19055
 Alpha  occ. eigenvalues --  -10.18587 -10.17783 -10.16293  -1.13214  -1.10810
 Alpha  occ. eigenvalues --   -1.04909  -1.03376  -1.01199  -1.00364  -0.98852
 Alpha  occ. eigenvalues --   -0.96626  -0.95994  -0.92915  -0.82550  -0.82324
 Alpha  occ. eigenvalues --   -0.82206  -0.81040  -0.79178  -0.78670  -0.78271
 Alpha  occ. eigenvalues --   -0.77852  -0.76397  -0.75497  -0.74229  -0.72985
 Alpha  occ. eigenvalues --   -0.71535  -0.71408  -0.70605  -0.68800  -0.68367
 Alpha  occ. eigenvalues --   -0.67949  -0.66561  -0.66179  -0.62443  -0.61963
 Alpha  occ. eigenvalues --   -0.61579  -0.60294  -0.59686  -0.58710  -0.57416
 Alpha  occ. eigenvalues --   -0.57187  -0.55306  -0.54847  -0.53965  -0.53503
 Alpha  occ. eigenvalues --   -0.52037  -0.51878  -0.51824  -0.51071  -0.50430
 Alpha  occ. eigenvalues --   -0.49507  -0.49352  -0.49153  -0.48405  -0.47745
 Alpha  occ. eigenvalues --   -0.47162  -0.46982  -0.46591  -0.46486  -0.46112
 Alpha  occ. eigenvalues --   -0.45161  -0.45034  -0.44513  -0.44353  -0.44224
 Alpha  occ. eigenvalues --   -0.43740  -0.43459  -0.43104  -0.42757  -0.42307
 Alpha  occ. eigenvalues --   -0.42115  -0.41978  -0.41777  -0.41665  -0.41263
 Alpha  occ. eigenvalues --   -0.41133  -0.40773  -0.40483  -0.40213  -0.39969
 Alpha  occ. eigenvalues --   -0.39422  -0.39135  -0.39054  -0.38504  -0.38049
 Alpha  occ. eigenvalues --   -0.37841  -0.37714  -0.37018  -0.36960  -0.36488
 Alpha  occ. eigenvalues --   -0.35897  -0.35868  -0.35163  -0.34757  -0.34569
 Alpha  occ. eigenvalues --   -0.33546  -0.33493  -0.33364  -0.33152  -0.32482
 Alpha  occ. eigenvalues --   -0.31889  -0.31782  -0.31191  -0.30115  -0.29271
 Alpha  occ. eigenvalues --   -0.28121  -0.26732  -0.26441  -0.25641  -0.25221
 Alpha  occ. eigenvalues --   -0.25078  -0.24710  -0.24288  -0.23439  -0.21281
 Alpha  occ. eigenvalues --   -0.16987
 Alpha virt. eigenvalues --   -0.11074  -0.06299  -0.04095  -0.00674   0.00195
 Alpha virt. eigenvalues --    0.00246   0.02995   0.03796   0.04136   0.04347
 Alpha virt. eigenvalues --    0.04660   0.05094   0.05608   0.06176   0.06305

 Mulliken charges:
               1
     1  O   -0.241438
     2  O   -0.104336
     3  O   -0.153939
     4  O   -0.264278
     5  O   -0.263939
     6  O   -0.156281
     7  N    0.068601
     8  N   -0.098251
     9  N    0.038660
    10  N   -0.314505
    11  C   -0.116810
    12  C   -0.043745
    13  C   -0.183666
    14  C   -0.012466
    15  C   -0.091084
    16  C    0.135055
    17  C   -0.036556
    18  C   -0.092042
    19  C    0.120093
    20  C   -0.003614
    21  C    0.085934
    22  C    0.180358
    23  C   -0.064785
    24  C    0.014727
    25  C   -0.140778
    26  C    0.110989
    27  C    0.058353
    28  C    0.106369
    29  C    0.048626
    30  C    0.025988
    31  C   -0.123916
    32  C    0.025360
    33  C   -0.152034
    34  C   -0.037171
    35  C   -0.118099
    36  C   -0.165478
    37  C    0.082764
    38  C    0.135751
    39  C    0.118353
    40  C    0.080060
    41  C    0.112294
    42  C    0.310937
    43  C   -0.024535
    44  H    0.140480
    45  H   -0.004014
    46  H    0.026850
    47  H    0.013619
    48  H    0.033706
    49  H    0.036209
    50  H    0.028057
    51  H    0.058990
    52  H    0.076343
    53  H    0.022541
    54  H    0.026543
    55  H   -0.006964
    56  H    0.045711
    57  H    0.013022
    58  H   -0.019383
    59  H    0.056935
    60  H    0.037484
    61  H    0.024064
    62  H    0.046355
    63  H    0.046223
    64  H   -0.037729
    65  H    0.012179
    66  H    0.048887
    67  H    0.023693
    68  H    0.004168
    69  H    0.046582
    70  H   -0.017560
    71  H    0.019110
    72  H    0.005328
    73  H    0.000011
    74  H    0.012044
    75  H   -0.052160
    76  H   -0.040569
    77  H    0.019594
    78  H   -0.001490
    79  H    0.045570
    80  H    0.160477
    81  H    0.193570
 Sum of Mulliken charges =  -0.00000

 Dipole moment (field-independent basis, Debye):
    X=             -1.6359    Y=              1.7988    Z=             -1.0986  Tot=              2.6681
 Quadrupole moment (field-independent basis, Debye-Ang):
   XX=           -259.8008   YY=           -231.1204   ZZ=           -253.4609
   XY=             20.4497   XZ=             13.3102   YZ=            -13.4873

 Normal termination of Gaussian 16 at Sat Jun 29 14:45:38 2019.
