 Gaussian 16, Revision A.03,
 Gaussian 16:  ES64L-G16RevA.03 25-Dec-2016

 --------------------------
 # td=(NStates=1) B3LYP/SVP
 --------------------------

 --
 TD
 --
 Symbolic Z-matrix:
 Charge =  0 Multiplicity = 1

                         Standard orientation:
 ---------------------------------------------------------------------
 Center     Atomic      Atomic             Coordinates (Angstroms)
 Number     Number       Type             X           Y           Z
 ---------------------------------------------------------------------
      1          8           0        3.945351   -4.866541   -2.158850
      2          8           0       -3.356907   -4.719143   -0.974525
      3          8           0       -6.941608   -1.458097   -1.774292
      4          8           0       -3.836131   -2.843797    0.157837
      5          8           0       -7.589099   -0.269426    0.090670
      6          8           0        3.224373    2.380450    0.385046
      7          7           0        0.299040   -0.498345    0.623837
      8          7           0       -1.469590    1.868054    0.275616
      9          7           0        3.129788   -3.151416   -0.647397
     10          7           0        0.916212    2.852930    0.124656
     11          6           0       -0.739934   -2.399062    1.436273
     12          6           0       -0.943215   -1.076853    1.149623
     13          6           0        0.722628   -2.588919    1.355246
     14          6           0        1.204638   -1.421279    0.766164
     15          6           0       -3.749338    1.558224    0.176275
     16          6           0       -2.473268    0.951506    0.512412
     17          6           0       -2.294584   -0.376766    1.031588
     18          6           0       -3.386590    2.800780   -0.235303
     19          6           0       -1.697260   -3.305881    2.040876
     20          6           0        5.363181   -3.025680   -1.378047
     21          6           0        3.512803   -1.882864   -0.209106
     22          6           0       -2.038175    3.111530   -0.060088
     23          6           0        4.902424   -1.784141   -0.614272
     24          6           0       -5.084640    0.994369    0.264706
     25          6           0        2.630442   -1.029577    0.351201
     26          6           0        1.355328   -3.875924    1.728529
     27          6           0        4.045471   -3.784128   -1.500123
     28          6           0       -2.115426   -4.302261    1.034965
     29          6           0       -5.425103   -0.019188   -0.839440
     30          6           0       -4.355023    3.993270   -0.708291
     31          6           0       -1.142547    4.103771   -0.290393
     32          6           0        6.517270   -3.891737   -0.741263
     33          6           0        5.794799   -0.822198   -0.170717
     34          6           0        0.233632    4.066867   -0.132043
     35          6           0        1.295884    5.169723   -0.405701
     36          6           0        2.539876    4.565067   -0.149239
     37          6           0       -3.147032   -3.894376    0.052394
     38          6           0        5.444877    0.400733    0.629671
     39          6           0       -6.812421   -0.583341   -0.744809
     40          6           0        3.883810    5.236585   -0.275748
     41          6           0        2.289045    3.101265    0.018653
     42          6           0        0.942010    6.575731   -0.700110
     43          6           0        4.604195    5.200393    1.122198
     44          1           0        0.286324    0.401901    0.269656
     45          1           0       -3.172539   -0.890442    1.014797
     46          1           0       -2.572605   -2.635022    2.496999
     47          1           0       -1.171442   -3.859816    2.889550
     48          1           0        5.708183   -2.678130   -2.363429
     49          1           0       -5.185078    0.604322    1.268201
     50          1           0       -5.863854    1.754663    0.131771
     51          1           0        3.003937    0.041625    0.325157
     52          1           0       -0.595594    1.873655    0.462134
     53          1           0        1.448011   -4.594702    1.046297
     54          1           0        2.433773   -3.506913    2.220398
     55          1           0        0.826091   -4.369971    2.620564
     56          1           0        2.085298   -3.464176   -0.778125
     57          1           0       -1.418573   -4.704468    0.371512
     58          1           0       -2.588344   -5.335906    1.295058
     59          1           0       -4.617801   -0.746067   -0.848500
     60          1           0       -5.355849    0.429686   -1.853335
     61          1           0       -4.048059    4.840291   -0.224325
     62          1           0       -5.492662    3.715807   -0.741994
     63          1           0       -4.406124    4.037997   -1.884111
     64          1           0       -1.588719    4.931991   -0.797930
     65          1           0        7.535509   -3.296378   -0.561467
     66          1           0        6.891313   -4.696946   -1.398280
     67          1           0        6.184869   -4.445309    0.322222
     68          1           0        6.894508   -1.173286   -0.506781
     69          1           0        5.082064    1.176333    0.097783
     70          1           0        6.200091    0.855238    1.008430
     71          1           0        4.737291    0.260939    1.496157
     72          1           0        3.964980    6.361780   -0.693411
     73          1           0        4.409262    4.548004   -0.862121
     74          1           0        0.574217    6.608872   -1.708671
     75          1           0        2.124558    6.968722   -0.912740
     76          1           0        0.475633    7.009204   -0.004194
     77          1           0        4.176243    6.004854    1.758123
     78          1           0        5.476199    5.634807    1.001043
     79          1           0        4.571485    4.381412    1.639755
     80          1           0       -4.204662   -4.329749   -1.303541
     81          1           0       -7.770448   -1.594797   -1.833210
 ---------------------------------------------------------------------

 SCF Done:  E(RB3LYP) =  -1949.00605621     A.U. after   16 cycles

 Excitation energies and oscillator strengths:

 Excited State   1:      Singlet-A      1.7694 eV  700.71 nm  f=0.2582  <S**2>=0.000
     154 ->157        -0.10443
     156 ->157         0.69950
     156 <-157        -0.10544
 This state for optimization and/or second-order correction.
 Total Energy, E(TD-HF/TD-DFT) =  -1948.94103165
 Copying the excited state density for this state as the 1-particle RhoCI density.

 The electronic state is 1-A.
 Alpha  occ. eigenvalues --  -19.20696 -19.18416 -19.14258 -19.13796 -19.10310
 Alpha  occ. eigenvalues --  -19.10238 -14.37406 -14.37283 -14.35142 -14.28977
 Alpha  occ. eigenvalues --  -10.33834 -10.32698 -10.28940 -10.26481 -10.24175
 Alpha  occ. eigenvalues --  -10.24003 -10.23925 -10.23681 -10.23476 -10.23439
 Alpha  occ. eigenvalues --  -10.22450 -10.22194 -10.22065 -10.21066 -10.20988
 Alpha  occ. eigenvalues --  -10.20922 -10.20647 -10.20618 -10.20577 -10.20176
 Alpha  occ. eigenvalues --  -10.20054 -10.19973 -10.19954 -10.19692 -10.19482
 Alpha  occ. eigenvalues --  -10.19398 -10.19371 -10.18917 -10.18869 -10.18864
 Alpha  occ. eigenvalues --  -10.18645 -10.15303 -10.15209  -1.12854  -1.12078
 Alpha  occ. eigenvalues --   -1.04562  -1.00563  -1.00140  -1.00125  -0.99244
 Alpha  occ. eigenvalues --   -0.98386  -0.94050  -0.89359  -0.84407  -0.83628
 Alpha  occ. eigenvalues --   -0.80914  -0.80309  -0.79385  -0.79155  -0.78343
 Alpha  occ. eigenvalues --   -0.77992  -0.76203  -0.75390  -0.73899  -0.73167
 Alpha  occ. eigenvalues --   -0.71627  -0.70640  -0.69965  -0.69327  -0.68967
 Alpha  occ. eigenvalues --   -0.67410  -0.65651  -0.64154  -0.62872  -0.61941
 Alpha  occ. eigenvalues --   -0.61290  -0.60507  -0.59254  -0.58522  -0.57283
 Alpha  occ. eigenvalues --   -0.56958  -0.55988  -0.54702  -0.54162  -0.53010
 Alpha  occ. eigenvalues --   -0.52019  -0.51544  -0.51328  -0.50858  -0.50586
 Alpha  occ. eigenvalues --   -0.50141  -0.49851  -0.49673  -0.48452  -0.47759
 Alpha  occ. eigenvalues --   -0.47355  -0.46762  -0.46387  -0.46117  -0.45841
 Alpha  occ. eigenvalues --   -0.45501  -0.45240  -0.44698  -0.44199  -0.44004
 Alpha  occ. eigenvalues --   -0.43661  -0.43503  -0.43405  -0.42778  -0.42478
 Alpha  occ. eigenvalues --   -0.42219  -0.41845  -0.41721  -0.41409  -0.41083
 Alpha  occ. eigenvalues --   -0.40460  -0.40284  -0.40220  -0.39729  -0.39591
 Alpha  occ. eigenvalues --   -0.39417  -0.39316  -0.39054  -0.38886  -0.38500
 Alpha  occ. eigenvalues --   -0.37895  -0.37462  -0.36729  -0.36558  -0.36410
 Alpha  occ. eigenvalues --   -0.35905  -0.35785  -0.35602  -0.34644  -0.34530
 Alpha  occ. eigenvalues --   -0.34367  -0.33820  -0.33599  -0.33340  -0.33269
 Alpha  occ. eigenvalues --   -0.32906  -0.32449  -0.32407  -0.29640  -0.29580
 Alpha  occ. eigenvalues --   -0.29209  -0.27199  -0.26452  -0.26091  -0.25213
 Alpha  occ. eigenvalues --   -0.24804  -0.24215  -0.23831  -0.22462  -0.21400
 Alpha  occ. eigenvalues --   -0.18407
 Alpha virt. eigenvalues --   -0.11152  -0.05574  -0.03972  -0.01882  -0.00692
 Alpha virt. eigenvalues --    0.00084   0.01656   0.03015   0.03837   0.04184
 Alpha virt. eigenvalues --    0.04391   0.04695   0.04966   0.05677   0.06393

 Mulliken charges:
               1
     1  O   -0.272530
     2  O   -0.162541
     3  O   -0.100308
     4  O   -0.287307
     5  O   -0.183128
     6  O   -0.243266
     7  N   -0.010727
     8  N   -0.012353
     9  N   -0.181165
    10  N   -0.351797
    11  C   -0.122665
    12  C    0.043967
    13  C   -0.171629
    14  C    0.059107
    15  C   -0.064239
    16  C    0.006476
    17  C    0.053658
    18  C   -0.114365
    19  C    0.129460
    20  C   -0.007273
    21  C    0.111416
    22  C    0.081404
    23  C   -0.069040
    24  C    0.148001
    25  C   -0.125794
    26  C    0.069159
    27  C    0.155607
    28  C    0.065278
    29  C   -0.035958
    30  C    0.062387
    31  C   -0.089378
    32  C   -0.018669
    33  C   -0.152794
    34  C    0.105235
    35  C   -0.152398
    36  C   -0.143801
    37  C    0.091090
    38  C    0.203302
    39  C    0.137925
    40  C    0.047708
    41  C    0.187053
    42  C    0.180400
    43  C    0.123535
    44  H    0.089687
    45  H   -0.034307
    46  H    0.056261
    47  H    0.023790
    48  H    0.036304
    49  H    0.020524
    50  H   -0.004179
    51  H    0.043316
    52  H    0.033491
    53  H    0.002314
    54  H    0.049976
    55  H    0.008454
    56  H    0.171592
    57  H    0.005874
    58  H    0.046633
    59  H    0.039209
    60  H    0.023752
    61  H    0.028554
    62  H    0.017638
    63  H    0.024800
    64  H   -0.037992
    65  H    0.029447
    66  H    0.033207
    67  H    0.043258
    68  H    0.014641
    69  H    0.011350
    70  H   -0.068190
    71  H    0.037620
    72  H    0.032536
    73  H   -0.000374
    74  H    0.016913
    75  H    0.013299
    76  H   -0.013739
    77  H   -0.018320
    78  H   -0.045689
    79  H   -0.009416
    80  H    0.194363
    81  H    0.094360
 Sum of Mulliken charges =  -0.00000

 Dipole moment (field-independent basis, Debye):
    X=             -4.2025    Y=              0.8426    Z=             -0.5960  Tot=              4.3274
 Quadrupole moment (field-independent basis, Debye-Ang):
   XX=           -241.4018   YY=           -242.1497   ZZ=           -256.7500
   XY=             18.7993   XZ=             17.6122   YZ=            -18.2409

 Normal termination of Gaussian 16 at Thu Jun 27 19:23:52 2019.
