 Gaussian 16, Revision A.03,
 Gaussian 16:  ES64L-G16RevA.03 25-Dec-2016

 --------------------------
 # td=(NStates=1) B3LYP/SVP
 --------------------------

 --
 TD
 --
 Symbolic Z-matrix:
 Charge =  0 Multiplicity = 1

                         Standard orientation:
 ---------------------------------------------------------------------
 Center     Atomic      Atomic             Coordinates (Angstroms)
 Number     Number       Type             X           Y           Z
 ---------------------------------------------------------------------
      1          8           0        4.296846   -4.964517   -1.783955
      2          8           0       -3.585543   -4.769321   -0.999403
      3          8           0       -6.926222   -1.229694   -2.100419
      4          8           0       -4.105527   -2.949939    0.223405
      5          8           0       -7.452918   -0.850253    0.182152
      6          8           0        3.080974    2.380574    0.297708
      7          7           0        0.256752   -0.655352    0.571094
      8          7           0       -1.435731    1.907244    0.404856
      9          7           0        3.307922   -3.170473   -0.666524
     10          7           0        0.851543    2.898170   -0.004313
     11          6           0       -0.628451   -2.415211    1.348272
     12          6           0       -0.914779   -1.132021    0.980806
     13          6           0        0.791247   -2.731930    1.294963
     14          6           0        1.343597   -1.549377    0.723839
     15          6           0       -3.767362    1.555094    0.232166
     16          6           0       -2.396035    0.899761    0.556329
     17          6           0       -2.228916   -0.516572    0.906801
     18          6           0       -3.453289    2.942826   -0.104141
     19          6           0       -1.775833   -3.289378    1.961347
     20          6           0        5.476267   -2.910760   -1.349957
     21          6           0        3.629213   -1.917844   -0.224432
     22          6           0       -2.000678    3.053970   -0.040949
     23          6           0        5.049967   -1.729238   -0.536780
     24          6           0       -4.996120    0.999754    0.355288
     25          6           0        2.668063   -1.132105    0.255552
     26          6           0        1.497608   -3.983213    1.713100
     27          6           0        4.326947   -3.880774   -1.308239
     28          6           0       -2.373817   -4.365083    1.073242
     29          6           0       -5.353168    0.076475   -0.929981
     30          6           0       -4.474024    3.999022   -0.470006
     31          6           0       -1.232189    4.181748   -0.357639
     32          6           0        6.881511   -3.524772   -1.035214
     33          6           0        5.859399   -0.713148   -0.168290
     34          6           0        0.198231    4.105748   -0.300850
     35          6           0        1.201644    5.230829   -0.495398
     36          6           0        2.448099    4.743179   -0.134118
     37          6           0       -3.457601   -3.943509    0.052707
     38          6           0        5.448167    0.419119    0.752120
     39          6           0       -6.713107   -0.685053   -0.894144
     40          6           0        3.823916    5.343019   -0.184297
     41          6           0        2.299448    3.172844    0.126099
     42          6           0        0.764272    6.532090   -0.900035
     43          6           0        4.216988    5.484832    1.345454
     44          1           0        0.391371    0.182323    0.198058
     45          1           0       -3.013195   -1.201788    0.875062
     46          1           0       -2.471591   -2.474419    2.605947
     47          1           0       -1.319677   -3.910913    2.829667
     48          1           0        5.462999   -2.517222   -2.410511
     49          1           0       -5.134842    0.283023    1.252224
     50          1           0       -5.751633    1.674687    0.480531
     51          1           0        2.921420    0.066525    0.214081
     52          1           0       -0.385932    1.956386    0.368897
     53          1           0        1.624941   -4.773196    1.094153
     54          1           0        2.443502   -3.733601    2.469753
     55          1           0        0.606816   -4.559065    2.478290
     56          1           0        2.456257   -3.490320   -0.767946
     57          1           0       -1.580624   -4.755554    0.614081
     58          1           0       -2.832261   -5.091923    1.754827
     59          1           0       -4.583138   -0.822243   -1.001849
     60          1           0       -5.310778    0.727563   -1.718603
     61          1           0       -4.143262    4.846116    0.157673
     62          1           0       -5.523008    3.894475   -0.550647
     63          1           0       -4.174299    4.284089   -1.551253
     64          1           0       -1.684521    5.179166   -0.580175
     65          1           0        7.785198   -2.937456   -1.324219
     66          1           0        7.065582   -4.464584   -1.603600
     67          1           0        6.947687   -3.787178    0.038242
     68          1           0        6.994983   -0.824038   -0.572751
     69          1           0        4.612627    1.238098    0.120659
     70          1           0        6.400451    0.953690    0.879668
     71          1           0        4.968742    0.179130    1.839801
     72          1           0        3.706786    6.295673   -0.628105
     73          1           0        4.554709    4.626697   -0.718512
     74          1           0        0.059058    6.455117   -1.694758
     75          1           0        1.617778    7.239748   -0.944340
     76          1           0        0.018481    6.982840   -0.267650
     77          1           0        3.499788    6.178865    1.776330
     78          1           0        5.163519    5.995852    1.503996
     79          1           0        4.223039    4.630392    2.004275
     80          1           0       -4.227351   -4.323411   -1.545596
     81          1           0       -7.669190   -1.917399   -1.829096
 ---------------------------------------------------------------------

 SCF Done:  E(RB3LYP) =  -1949.07433566     A.U. after   16 cycles

 Excitation energies and oscillator strengths:

 Excited State   1:      Singlet-A      1.7539 eV  706.90 nm  f=0.3076  <S**2>=0.000
     156 ->157         0.70616
     156 <-157        -0.10751
 This state for optimization and/or second-order correction.
 Total Energy, E(TD-HF/TD-DFT) =  -1949.00988017
 Copying the excited state density for this state as the 1-particle RhoCI density.

 The electronic state is 1-A.
 Alpha  occ. eigenvalues --  -19.20996 -19.20371 -19.14707 -19.12976 -19.12943
 Alpha  occ. eigenvalues --  -19.11280 -14.36030 -14.35524 -14.35489 -14.28961
 Alpha  occ. eigenvalues --  -10.33711 -10.33406 -10.28735 -10.27890 -10.24767
 Alpha  occ. eigenvalues --  -10.24222 -10.23526 -10.23346 -10.23340 -10.21686
 Alpha  occ. eigenvalues --  -10.21661 -10.21525 -10.21425 -10.21360 -10.20928
 Alpha  occ. eigenvalues --  -10.20768 -10.20647 -10.20572 -10.20413 -10.20371
 Alpha  occ. eigenvalues --  -10.20231 -10.20154 -10.19822 -10.19737 -10.19651
 Alpha  occ. eigenvalues --  -10.19335 -10.19243 -10.19215 -10.19139 -10.19135
 Alpha  occ. eigenvalues --  -10.18984 -10.18790 -10.17933  -1.12457  -1.09485
 Alpha  occ. eigenvalues --   -1.08473  -1.05044  -1.03444  -0.98608  -0.96871
 Alpha  occ. eigenvalues --   -0.96732  -0.96597  -0.88780  -0.82488  -0.81658
 Alpha  occ. eigenvalues --   -0.81236  -0.80217  -0.79722  -0.78473  -0.77619
 Alpha  occ. eigenvalues --   -0.76610  -0.76362  -0.75170  -0.73424  -0.71877
 Alpha  occ. eigenvalues --   -0.71024  -0.69375  -0.69054  -0.68182  -0.67554
 Alpha  occ. eigenvalues --   -0.67407  -0.65096  -0.63934  -0.62601  -0.61583
 Alpha  occ. eigenvalues --   -0.60759  -0.59461  -0.58784  -0.57924  -0.56452
 Alpha  occ. eigenvalues --   -0.55450  -0.55188  -0.54604  -0.53957  -0.53019
 Alpha  occ. eigenvalues --   -0.51999  -0.51827  -0.51177  -0.50715  -0.49845
 Alpha  occ. eigenvalues --   -0.49556  -0.49480  -0.49105  -0.48509  -0.47965
 Alpha  occ. eigenvalues --   -0.47568  -0.46813  -0.46088  -0.45683  -0.45439
 Alpha  occ. eigenvalues --   -0.44821  -0.44556  -0.44468  -0.43985  -0.43840
 Alpha  occ. eigenvalues --   -0.43616  -0.43409  -0.43232  -0.43138  -0.42920
 Alpha  occ. eigenvalues --   -0.42012  -0.41712  -0.41509  -0.41450  -0.41360
 Alpha  occ. eigenvalues --   -0.41206  -0.40472  -0.40147  -0.39981  -0.39457
 Alpha  occ. eigenvalues --   -0.39161  -0.39086  -0.38983  -0.38295  -0.38168
 Alpha  occ. eigenvalues --   -0.37840  -0.37738  -0.37355  -0.37194  -0.37015
 Alpha  occ. eigenvalues --   -0.36011  -0.35579  -0.35371  -0.35053  -0.34676
 Alpha  occ. eigenvalues --   -0.34554  -0.34273  -0.33931  -0.33586  -0.33198
 Alpha  occ. eigenvalues --   -0.32823  -0.32211  -0.31370  -0.29837  -0.29033
 Alpha  occ. eigenvalues --   -0.28840  -0.27591  -0.26479  -0.25980  -0.24682
 Alpha  occ. eigenvalues --   -0.24492  -0.24352  -0.23616  -0.22787  -0.21017
 Alpha  occ. eigenvalues --   -0.17411
 Alpha virt. eigenvalues --   -0.10254  -0.05339  -0.03954  -0.02147  -0.00987
 Alpha virt. eigenvalues --    0.00456   0.01774   0.02512   0.03564   0.03795
 Alpha virt. eigenvalues --    0.04160   0.04509   0.04898   0.05512   0.06150

 Mulliken charges:
               1
     1  O   -0.168858
     2  O   -0.147628
     3  O   -0.193494
     4  O   -0.215321
     5  O   -0.320741
     6  O   -0.090152
     7  N    0.016536
     8  N   -0.081249
     9  N   -0.061995
    10  N   -0.416120
    11  C   -0.125621
    12  C    0.029302
    13  C   -0.116269
    14  C    0.056161
    15  C   -0.060040
    16  C    0.104166
    17  C   -0.010071
    18  C   -0.140410
    19  C   -0.059783
    20  C   -0.058595
    21  C    0.101332
    22  C    0.103600
    23  C   -0.000080
    24  C    0.081129
    25  C   -0.168827
    26  C    0.013939
    27  C    0.101331
    28  C    0.145898
    29  C   -0.032573
    30  C    0.104271
    31  C   -0.130571
    32  C    0.037125
    33  C   -0.173659
    34  C    0.085157
    35  C   -0.083786
    36  C   -0.257283
    37  C    0.115831
    38  C   -0.068840
    39  C    0.193536
    40  C    0.114927
    41  C    0.181986
    42  C    0.170401
    43  C    0.001030
    44  H    0.051698
    45  H   -0.005823
    46  H    0.052415
    47  H    0.014891
    48  H    0.051109
    49  H    0.040956
    50  H   -0.024856
    51  H    0.068408
    52  H    0.145216
    53  H    0.016463
    54  H    0.065075
    55  H    0.001975
    56  H    0.069139
    57  H   -0.016393
    58  H    0.040156
    59  H    0.077858
    60  H    0.008489
    61  H    0.029152
    62  H    0.016347
    63  H    0.026592
    64  H   -0.024731
    65  H    0.017623
    66  H    0.025222
    67  H    0.020011
    68  H    0.021065
    69  H    0.121262
    70  H    0.007743
    71  H    0.063441
    72  H   -0.016612
    73  H    0.040411
    74  H   -0.005997
    75  H    0.021146
    76  H   -0.002662
    77  H   -0.002273
    78  H   -0.000364
    79  H    0.028513
    80  H    0.168589
    81  H    0.213052
 Sum of Mulliken charges =  -0.00000

 Dipole moment (field-independent basis, Debye):
    X=             -1.8547    Y=              2.1779    Z=             -1.8579  Tot=              3.4110
 Quadrupole moment (field-independent basis, Debye-Ang):
   XX=           -250.7255   YY=           -235.6819   ZZ=           -256.6058
   XY=             15.7440   XZ=             17.9995   YZ=             -8.6169

 Normal termination of Gaussian 16 at Thu Jun 27 02:37:51 2019.
