 Gaussian 16, Revision A.03,
 Gaussian 16:  ES64L-G16RevA.03 25-Dec-2016

 --------------------------
 # td=(NStates=1) B3LYP/SVP
 --------------------------

 --
 TD
 --
 Symbolic Z-matrix:
 Charge =  0 Multiplicity = 1

                         Standard orientation:
 ---------------------------------------------------------------------
 Center     Atomic      Atomic             Coordinates (Angstroms)
 Number     Number       Type             X           Y           Z
 ---------------------------------------------------------------------
      1          8           0        4.336779   -4.900421   -1.865428
      2          8           0       -3.029297   -4.877612   -1.058043
      3          8           0       -7.096941   -1.382193   -1.969528
      4          8           0       -3.741837   -3.169973    0.146424
      5          8           0       -7.721542   -0.679517    0.143038
      6          8           0        2.928457    2.366777    0.340166
      7          7           0        0.258678   -0.504762    0.560394
      8          7           0       -1.553076    1.882077    0.308431
      9          7           0        3.395804   -3.148290   -0.755400
     10          7           0        0.773305    2.838709   -0.106615
     11          6           0       -0.570920   -2.377012    1.503664
     12          6           0       -0.914426   -1.152513    0.950127
     13          6           0        0.788250   -2.579376    1.389047
     14          6           0        1.309470   -1.442573    0.765943
     15          6           0       -3.804325    1.451738    0.283268
     16          6           0       -2.533626    0.892486    0.532133
     17          6           0       -2.207006   -0.486190    0.720592
     18          6           0       -3.479232    2.751120   -0.159637
     19          6           0       -1.500207   -3.426428    2.031276
     20          6           0        5.524172   -2.648217   -1.255866
     21          6           0        3.617350   -1.794642   -0.303792
     22          6           0       -2.105795    3.015070   -0.042924
     23          6           0        5.006146   -1.526617   -0.599506
     24          6           0       -5.130455    0.708639    0.380416
     25          6           0        2.556342   -1.079723    0.340498
     26          6           0        1.664078   -3.812143    1.693777
     27          6           0        4.413596   -3.757228   -1.347356
     28          6           0       -1.927108   -4.478262    0.967042
     29          6           0       -5.529370   -0.184912   -0.721434
     30          6           0       -4.596080    3.925733   -0.504728
     31          6           0       -1.291360    4.090932   -0.335672
     32          6           0        6.820166   -3.417180   -0.785571
     33          6           0        5.889465   -0.459861   -0.210581
     34          6           0        0.055796    3.985593   -0.401858
     35          6           0        1.012530    5.142437   -0.409575
     36          6           0        2.273382    4.660422   -0.238821
     37          6           0       -2.990048   -4.133849    0.046729
     38          6           0        5.528250    0.681167    0.658571
     39          6           0       -6.958025   -0.698889   -0.741059
     40          6           0        3.707160    5.263079   -0.228664
     41          6           0        2.103306    3.151565    0.018648
     42          6           0        0.713603    6.498365   -0.799386
     43          6           0        4.175090    5.692322    1.264652
     44          1           0        0.316113    0.409837    0.229426
     45          1           0       -3.112044   -0.995965    1.163672
     46          1           0       -2.281631   -3.114073    2.506320
     47          1           0       -0.995093   -3.825382    3.008052
     48          1           0        5.723314   -2.576483   -2.339192
     49          1           0       -5.153438    0.242469    1.440813
     50          1           0       -6.013458    1.462397    0.413343
     51          1           0        2.812397    0.021508    0.498675
     52          1           0       -0.531255    2.115272    0.612213
     53          1           0        1.369263   -4.710231    0.959539
     54          1           0        2.577571   -3.416600    1.591038
     55          1           0        1.321438   -4.020744    2.891850
     56          1           0        2.669851   -3.648812   -0.520929
     57          1           0       -1.107432   -4.990845    0.472709
     58          1           0       -2.401745   -5.200294    1.574878
     59          1           0       -5.100351   -1.214138   -0.828345
     60          1           0       -5.197322    0.362135   -1.743748
     61          1           0       -4.463098    4.729067    0.123063
     62          1           0       -5.549989    3.575664   -0.232383
     63          1           0       -4.460974    4.327704   -1.602395
     64          1           0       -1.775339    5.061634   -0.681240
     65          1           0        7.712011   -2.649734   -0.830068
     66          1           0        7.052795   -4.141864   -1.504115
     67          1           0        6.717172   -3.624330    0.175997
     68          1           0        6.864167   -0.719712   -0.494660
     69          1           0        4.819296    1.617337    0.250216
     70          1           0        6.407511    1.079547    1.038130
     71          1           0        4.923305    0.383191    1.623748
     72          1           0        3.813708    6.056408   -0.748408
     73          1           0        4.356144    4.389073   -0.643837
     74          1           0        0.463792    6.628022   -1.969459
     75          1           0        1.830325    7.077303   -0.714751
     76          1           0       -0.102095    6.887991   -0.079475
     77          1           0        3.830666    6.683522    1.825964
     78          1           0        5.119246    6.081122    1.173451
     79          1           0        4.118016    4.799223    2.061016
     80          1           0       -3.855500   -4.618890   -1.653319
     81          1           0       -7.966260   -1.583267   -1.748191
 ---------------------------------------------------------------------

 SCF Done:  E(RB3LYP) =  -1949.02632134     A.U. after   16 cycles

 Excitation energies and oscillator strengths:

 Excited State   1:      Singlet-A      1.7065 eV  726.54 nm  f=0.3139  <S**2>=0.000
     156 ->157         0.70789
     156 <-157        -0.10939
 This state for optimization and/or second-order correction.
 Total Energy, E(TD-HF/TD-DFT) =  -1948.96360864
 Copying the excited state density for this state as the 1-particle RhoCI density.

 The electronic state is 1-A.
 Alpha  occ. eigenvalues --  -19.19788 -19.17732 -19.14997 -19.13301 -19.10201
 Alpha  occ. eigenvalues --  -19.09899 -14.36834 -14.35917 -14.35093 -14.28154
 Alpha  occ. eigenvalues --  -10.33256 -10.32632 -10.28129 -10.25802 -10.25358
 Alpha  occ. eigenvalues --  -10.23819 -10.23722 -10.23425 -10.22919 -10.22748
 Alpha  occ. eigenvalues --  -10.22369 -10.22239 -10.21886 -10.21825 -10.21336
 Alpha  occ. eigenvalues --  -10.21229 -10.21149 -10.20997 -10.20642 -10.20612
 Alpha  occ. eigenvalues --  -10.20198 -10.20008 -10.19796 -10.19744 -10.19631
 Alpha  occ. eigenvalues --  -10.19614 -10.19572 -10.19200 -10.19126 -10.18620
 Alpha  occ. eigenvalues --  -10.18605 -10.18397 -10.18316  -1.11473  -1.10587
 Alpha  occ. eigenvalues --   -1.03575  -1.03355  -1.01989  -1.00394  -0.99315
 Alpha  occ. eigenvalues --   -0.97509  -0.94607  -0.90894  -0.83577  -0.82742
 Alpha  occ. eigenvalues --   -0.82697  -0.81035  -0.79425  -0.78996  -0.78603
 Alpha  occ. eigenvalues --   -0.77333  -0.76024  -0.74973  -0.74049  -0.73268
 Alpha  occ. eigenvalues --   -0.71207  -0.70672  -0.70277  -0.68438  -0.68071
 Alpha  occ. eigenvalues --   -0.67274  -0.65812  -0.64678  -0.62685  -0.61969
 Alpha  occ. eigenvalues --   -0.61369  -0.58708  -0.58587  -0.58359  -0.57823
 Alpha  occ. eigenvalues --   -0.55897  -0.54928  -0.54666  -0.54366  -0.52946
 Alpha  occ. eigenvalues --   -0.52459  -0.52128  -0.51556  -0.50354  -0.50167
 Alpha  occ. eigenvalues --   -0.49920  -0.49699  -0.49236  -0.48736  -0.48275
 Alpha  occ. eigenvalues --   -0.47565  -0.47028  -0.46170  -0.45953  -0.45389
 Alpha  occ. eigenvalues --   -0.45079  -0.44623  -0.44283  -0.44073  -0.43569
 Alpha  occ. eigenvalues --   -0.43459  -0.43088  -0.42916  -0.42691  -0.42424
 Alpha  occ. eigenvalues --   -0.41878  -0.41347  -0.41292  -0.41229  -0.40893
 Alpha  occ. eigenvalues --   -0.40646  -0.40465  -0.40171  -0.39811  -0.39619
 Alpha  occ. eigenvalues --   -0.39177  -0.39009  -0.38632  -0.38474  -0.37956
 Alpha  occ. eigenvalues --   -0.37899  -0.37840  -0.37661  -0.36785  -0.36534
 Alpha  occ. eigenvalues --   -0.36381  -0.35921  -0.35527  -0.35294  -0.35127
 Alpha  occ. eigenvalues --   -0.34966  -0.34413  -0.34305  -0.33753  -0.33062
 Alpha  occ. eigenvalues --   -0.32978  -0.32848  -0.32045  -0.29915  -0.29476
 Alpha  occ. eigenvalues --   -0.28922  -0.27095  -0.26290  -0.26083  -0.25442
 Alpha  occ. eigenvalues --   -0.24864  -0.24275  -0.23851  -0.23099  -0.21389
 Alpha  occ. eigenvalues --   -0.18095
 Alpha virt. eigenvalues --   -0.11043  -0.06325  -0.04838  -0.01179   0.00220
 Alpha virt. eigenvalues --    0.00485   0.01914   0.02117   0.02258   0.03817
 Alpha virt. eigenvalues --    0.03995   0.04402   0.05031   0.06133   0.06579

 Mulliken charges:
               1
     1  O   -0.266148
     2  O   -0.209371
     3  O   -0.186365
     4  O   -0.242557
     5  O   -0.167824
     6  O   -0.180115
     7  N   -0.081540
     8  N   -0.096277
     9  N   -0.030469
    10  N   -0.338572
    11  C   -0.100719
    12  C    0.042793
    13  C   -0.177280
    14  C    0.146540
    15  C   -0.052277
    16  C    0.022740
    17  C    0.007077
    18  C   -0.166958
    19  C    0.166000
    20  C   -0.130438
    21  C    0.055206
    22  C    0.077872
    23  C    0.009889
    24  C    0.089027
    25  C   -0.154115
    26  C    0.071843
    27  C    0.093669
    28  C    0.101548
    29  C   -0.060164
    30  C    0.107203
    31  C   -0.130881
    32  C    0.110993
    33  C   -0.036261
    34  C    0.113492
    35  C   -0.112569
    36  C   -0.163475
    37  C    0.099866
    38  C   -0.004219
    39  C    0.131408
    40  C    0.166850
    41  C    0.125866
    42  C   -0.029107
    43  C   -0.052001
    44  H    0.100310
    45  H    0.032026
    46  H   -0.067091
    47  H    0.003929
    48  H    0.037434
    49  H    0.038143
    50  H    0.020513
    51  H    0.052955
    52  H    0.182637
    53  H    0.074706
    54  H    0.004154
    55  H    0.054542
    56  H    0.044998
    57  H    0.029475
    58  H    0.025921
    59  H    0.059591
    60  H    0.059437
    61  H   -0.000798
    62  H   -0.007131
    63  H    0.040540
    64  H   -0.007930
    65  H    0.009154
    66  H    0.023500
    67  H   -0.015841
    68  H   -0.031708
    69  H    0.117438
    70  H   -0.012122
    71  H    0.036321
    72  H   -0.061466
    73  H    0.037896
    74  H    0.055938
    75  H    0.036173
    76  H    0.046469
    77  H    0.016526
    78  H   -0.011181
    79  H    0.050385
    80  H    0.231923
    81  H    0.122052
 Sum of Mulliken charges =  -0.00000

 Dipole moment (field-independent basis, Debye):
    X=             -2.8041    Y=              0.8726    Z=              1.4058  Tot=              3.2559
 Quadrupole moment (field-independent basis, Debye-Ang):
   XX=           -248.1356   YY=           -243.1791   ZZ=           -254.8163
   XY=             20.2988   XZ=             12.5926   YZ=            -16.3545

 Normal termination of Gaussian 16 at Sun Jun 30 06:31:26 2019.
