 Gaussian 16, Revision A.03,
 Gaussian 16:  ES64L-G16RevA.03 25-Dec-2016

 --------------------------
 # td=(NStates=1) B3LYP/SVP
 --------------------------

 --
 TD
 --
 Symbolic Z-matrix:
 Charge =  0 Multiplicity = 1

                         Standard orientation:
 ---------------------------------------------------------------------
 Center     Atomic      Atomic             Coordinates (Angstroms)
 Number     Number       Type             X           Y           Z
 ---------------------------------------------------------------------
      1          8           0        4.673351   -4.894856   -1.564619
      2          8           0       -2.797496   -4.657862   -1.273653
      3          8           0       -7.113286   -1.563432   -1.902948
      4          8           0       -3.842202   -3.263521    0.105918
      5          8           0       -7.562316   -0.930906    0.158595
      6          8           0        3.038082    2.448675    0.379268
      7          7           0        0.220535   -0.444101    0.470117
      8          7           0       -1.622129    1.804017    0.403034
      9          7           0        3.403142   -3.027409   -0.737065
     10          7           0        0.699398    2.923354   -0.088280
     11          6           0       -0.600475   -2.351095    1.319332
     12          6           0       -0.952765   -1.132795    0.801711
     13          6           0        0.808173   -2.536377    1.121432
     14          6           0        1.346151   -1.314416    0.642331
     15          6           0       -3.845995    1.379528    0.359685
     16          6           0       -2.573115    0.793419    0.695917
     17          6           0       -2.192692   -0.500599    0.822013
     18          6           0       -3.629101    2.724528    0.082378
     19          6           0       -1.533021   -3.461723    1.820991
     20          6           0        5.678188   -2.724281   -1.152771
     21          6           0        3.639917   -1.698540   -0.356545
     22          6           0       -2.193936    2.986712   -0.042149
     23          6           0        5.148271   -1.486690   -0.414163
     24          6           0       -5.116229    0.620438    0.419479
     25          6           0        2.618235   -0.902201    0.221776
     26          6           0        1.637837   -3.735528    1.589130
     27          6           0        4.618658   -3.710809   -1.153465
     28          6           0       -1.986677   -4.553125    0.909077
     29          6           0       -5.491011   -0.288979   -0.773671
     30          6           0       -4.624603    3.707586   -0.262077
     31          6           0       -1.400062    4.085953   -0.303774
     32          6           0        7.001585   -3.218549   -0.586627
     33          6           0        5.896064   -0.418254   -0.003408
     34          6           0        0.015324    4.076053   -0.329977
     35          6           0        0.979662    5.186125   -0.501284
     36          6           0        2.266014    4.721424   -0.386182
     37          6           0       -2.991052   -4.071765   -0.055651
     38          6           0        5.406033    0.757897    0.713948
     39          6           0       -6.748169   -0.961144   -0.738692
     40          6           0        3.481790    5.478009   -0.359545
     41          6           0        1.991061    3.210544   -0.011145
     42          6           0        0.476225    6.557845   -0.752046
     43          6           0        3.998850    5.580575    1.086190
     44          1           0        0.358015    0.323060   -0.055141
     45          1           0       -2.955442   -1.237370    1.146273
     46          1           0       -2.492074   -3.049673    2.251475
     47          1           0       -1.231884   -3.678301    2.893298
     48          1           0        5.912992   -2.410521   -2.251115
     49          1           0       -5.287841    0.050868    1.369174
     50          1           0       -5.829887    1.424591    0.594458
     51          1           0        2.863814    0.051681    0.350955
     52          1           0       -0.475995    1.906424    0.419483
     53          1           0        1.384149   -4.816884    1.123935
     54          1           0        2.934348   -3.772237    1.557578
     55          1           0        1.343880   -4.048093    2.668669
     56          1           0        2.565788   -3.598438   -0.532510
     57          1           0       -0.987452   -4.700603    0.495357
     58          1           0       -2.258543   -5.473436    1.500855
     59          1           0       -4.899147   -1.280613   -0.756114
     60          1           0       -5.241820    0.207122   -1.790591
     61          1           0       -4.577968    4.484806    0.536007
     62          1           0       -5.657516    3.431247   -0.350633
     63          1           0       -4.500572    4.277660   -1.288202
     64          1           0       -1.905031    4.999146   -0.793503
     65          1           0        7.817662   -2.409757   -0.680654
     66          1           0        7.051695   -4.110369   -1.293788
     67          1           0        7.052944   -3.521296    0.207671
     68          1           0        6.995029   -0.717317   -0.468142
     69          1           0        4.808008    1.448489    0.095321
     70          1           0        6.313976    1.212348    1.011598
     71          1           0        4.875441    0.544563    1.611873
     72          1           0        3.430635    6.423168   -0.923600
     73          1           0        4.245449    4.695715   -0.736574
     74          1           0       -0.157802    6.493162   -1.649006
     75          1           0        1.243871    7.246043   -1.108566
     76          1           0       -0.208257    6.790655    0.034665
     77          1           0        3.159490    6.026132    1.862904
     78          1           0        5.043341    5.980962    1.123090
     79          1           0        4.103414    4.421574    1.330323
     80          1           0       -3.694973   -4.525755   -1.829934
     81          1           0       -7.992206   -1.783174   -1.765320
 ---------------------------------------------------------------------

 SCF Done:  E(RB3LYP) =  -1949.05186884     A.U. after   19 cycles

 Excitation energies and oscillator strengths:

 Excited State   1:      Singlet-A      1.7264 eV  718.17 nm  f=0.2839  <S**2>=0.000
     156 ->157         0.70669
     156 <-157        -0.10357
 This state for optimization and/or second-order correction.
 Total Energy, E(TD-HF/TD-DFT) =  -1948.98842473
 Copying the excited state density for this state as the 1-particle RhoCI density.

 The electronic state is 1-A.
 Alpha  occ. eigenvalues --  -19.19488 -19.17091 -19.15321 -19.12011 -19.11892
 Alpha  occ. eigenvalues --  -19.09561 -14.37431 -14.36644 -14.35297 -14.30474
 Alpha  occ. eigenvalues --  -10.33830 -10.31576 -10.30020 -10.27396 -10.25203
 Alpha  occ. eigenvalues --  -10.24462 -10.23997 -10.23890 -10.23417 -10.23319
 Alpha  occ. eigenvalues --  -10.23188 -10.22154 -10.21658 -10.21554 -10.21340
 Alpha  occ. eigenvalues --  -10.21154 -10.20971 -10.20947 -10.20879 -10.20775
 Alpha  occ. eigenvalues --  -10.20656 -10.20622 -10.20184 -10.20154 -10.20071
 Alpha  occ. eigenvalues --  -10.19238 -10.19153 -10.19086 -10.19022 -10.18749
 Alpha  occ. eigenvalues --  -10.17842 -10.17623 -10.16471  -1.11322  -1.10366
 Alpha  occ. eigenvalues --   -1.02099  -1.01915  -1.00007  -0.97780  -0.97066
 Alpha  occ. eigenvalues --   -0.95829  -0.94079  -0.91022  -0.83569  -0.82562
 Alpha  occ. eigenvalues --   -0.82112  -0.81663  -0.80614  -0.79242  -0.78968
 Alpha  occ. eigenvalues --   -0.78495  -0.77324  -0.76091  -0.74736  -0.73056
 Alpha  occ. eigenvalues --   -0.71690  -0.70253  -0.68936  -0.68477  -0.68359
 Alpha  occ. eigenvalues --   -0.67766  -0.66599  -0.65174  -0.62988  -0.61131
 Alpha  occ. eigenvalues --   -0.60616  -0.59431  -0.59215  -0.57709  -0.57111
 Alpha  occ. eigenvalues --   -0.56055  -0.55596  -0.54863  -0.53239  -0.53152
 Alpha  occ. eigenvalues --   -0.52519  -0.52224  -0.51769  -0.50827  -0.50628
 Alpha  occ. eigenvalues --   -0.50184  -0.49961  -0.49103  -0.48359  -0.47867
 Alpha  occ. eigenvalues --   -0.47562  -0.47361  -0.46262  -0.45746  -0.45460
 Alpha  occ. eigenvalues --   -0.45037  -0.44868  -0.44696  -0.44174  -0.43870
 Alpha  occ. eigenvalues --   -0.43730  -0.43353  -0.42736  -0.42667  -0.42148
 Alpha  occ. eigenvalues --   -0.41999  -0.41566  -0.41466  -0.41337  -0.41263
 Alpha  occ. eigenvalues --   -0.40951  -0.40388  -0.40012  -0.39880  -0.39534
 Alpha  occ. eigenvalues --   -0.39334  -0.38810  -0.38712  -0.38401  -0.38192
 Alpha  occ. eigenvalues --   -0.38045  -0.37910  -0.37269  -0.37042  -0.36824
 Alpha  occ. eigenvalues --   -0.36499  -0.35811  -0.35638  -0.34577  -0.34238
 Alpha  occ. eigenvalues --   -0.34130  -0.33794  -0.33464  -0.32992  -0.32497
 Alpha  occ. eigenvalues --   -0.31950  -0.31934  -0.31767  -0.30786  -0.29585
 Alpha  occ. eigenvalues --   -0.28063  -0.27662  -0.26892  -0.26455  -0.25786
 Alpha  occ. eigenvalues --   -0.25221  -0.24706  -0.23479  -0.23129  -0.22017
 Alpha  occ. eigenvalues --   -0.18334
 Alpha virt. eigenvalues --   -0.11156  -0.06507  -0.04684  -0.02485  -0.02175
 Alpha virt. eigenvalues --    0.00507   0.01803   0.01928   0.02871   0.03143
 Alpha virt. eigenvalues --    0.03639   0.04905   0.05239   0.05367   0.05711

 Mulliken charges:
               1
     1  O   -0.241063
     2  O   -0.237984
     3  O   -0.168012
     4  O   -0.184770
     5  O   -0.238855
     6  O   -0.352590
     7  N   -0.080802
     8  N   -0.225325
     9  N   -0.183997
    10  N   -0.258254
    11  C   -0.093232
    12  C    0.077190
    13  C   -0.107430
    14  C    0.119014
    15  C   -0.087001
    16  C    0.125694
    17  C   -0.038664
    18  C   -0.071758
    19  C   -0.000277
    20  C   -0.082621
    21  C    0.090339
    22  C    0.095785
    23  C   -0.050380
    24  C    0.105091
    25  C   -0.013661
    26  C   -0.100797
    27  C    0.168054
    28  C    0.100284
    29  C   -0.006162
    30  C    0.042690
    31  C   -0.116204
    32  C    0.186194
    33  C   -0.180572
    34  C    0.077471
    35  C   -0.138648
    36  C   -0.163320
    37  C    0.131135
    38  C    0.131994
    39  C    0.105399
    40  C    0.074796
    41  C    0.196969
    42  C    0.170973
    43  C   -0.086385
    44  H    0.092190
    45  H    0.013271
    46  H   -0.002260
    47  H    0.015092
    48  H    0.071533
    49  H    0.025478
    50  H   -0.001620
    51  H   -0.079764
    52  H    0.202442
    53  H    0.038027
    54  H    0.083970
    55  H    0.036397
    56  H    0.147014
    57  H    0.029850
    58  H    0.061887
    59  H    0.063819
    60  H    0.056532
    61  H    0.027635
    62  H    0.004718
    63  H    0.033552
    64  H    0.004390
    65  H    0.027714
    66  H    0.036597
    67  H   -0.126999
    68  H    0.016022
    69  H    0.084705
    70  H   -0.012230
    71  H    0.026256
    72  H    0.010546
    73  H    0.020204
    74  H    0.002572
    75  H    0.005969
    76  H    0.016165
    77  H    0.032280
    78  H    0.023188
    79  H    0.052344
    80  H    0.225741
    81  H    0.144464
 Sum of Mulliken charges =  -0.00000

 Dipole moment (field-independent basis, Debye):
    X=             -2.7894    Y=              0.1329    Z=             -0.6631  Tot=              2.8702
 Quadrupole moment (field-independent basis, Debye-Ang):
   XX=           -256.1968   YY=           -240.5348   ZZ=           -254.7055
   XY=             11.4027   XZ=             13.7156   YZ=            -16.8068

 Normal termination of Gaussian 16 at Wed Jul  3 06:27:12 2019.
