 Gaussian 16, Revision A.03,
 Gaussian 16:  ES64L-G16RevA.03 25-Dec-2016

 --------------------------
 # td=(NStates=1) B3LYP/SVP
 --------------------------

 --
 TD
 --
 Symbolic Z-matrix:
 Charge =  0 Multiplicity = 1

                         Standard orientation:
 ---------------------------------------------------------------------
 Center     Atomic      Atomic             Coordinates (Angstroms)
 Number     Number       Type             X           Y           Z
 ---------------------------------------------------------------------
      1          8           0        4.063748   -5.038288   -1.720326
      2          8           0       -3.130100   -4.796805   -0.971732
      3          8           0       -6.794972   -1.544225   -1.994998
      4          8           0       -3.863425   -3.122860    0.274420
      5          8           0       -7.495682   -0.259023   -0.281797
      6          8           0        3.139664    2.415148    0.399619
      7          7           0        0.240882   -0.486576    0.598852
      8          7           0       -1.563235    1.831756    0.438491
      9          7           0        3.194121   -3.188482   -0.697162
     10          7           0        0.877435    2.864834    0.061301
     11          6           0       -0.552030   -2.374452    1.473096
     12          6           0       -0.982697   -1.036295    1.029492
     13          6           0        0.676371   -2.564676    1.191711
     14          6           0        1.347985   -1.368954    0.770664
     15          6           0       -3.724337    1.475010    0.336816
     16          6           0       -2.500860    0.856350    0.697737
     17          6           0       -2.309581   -0.515758    0.966377
     18          6           0       -3.516079    2.847134   -0.087498
     19          6           0       -1.638419   -3.330417    2.068891
     20          6           0        5.386958   -2.914131   -1.400032
     21          6           0        3.525458   -1.922202   -0.219459
     22          6           0       -2.055976    2.950469   -0.015449
     23          6           0        4.881248   -1.697569   -0.604262
     24          6           0       -5.083755    0.871881    0.286870
     25          6           0        2.606907   -1.030246    0.341633
     26          6           0        1.336466   -3.788476    1.789105
     27          6           0        4.147428   -3.867417   -1.336677
     28          6           0       -2.040332   -4.508755    1.142435
     29          6           0       -5.122837   -0.136386   -0.895100
     30          6           0       -4.343726    3.985707   -0.536391
     31          6           0       -1.256732    4.142293   -0.277842
     32          6           0        6.715041   -3.410646   -1.023995
     33          6           0        5.727931   -0.703567   -0.278429
     34          6           0        0.209162    4.008276   -0.228073
     35          6           0        1.096375    5.129747   -0.447412
     36          6           0        2.432268    4.693929   -0.184256
     37          6           0       -3.047682   -4.032091    0.114372
     38          6           0        5.453102    0.449214    0.648894
     39          6           0       -6.564229   -0.682264   -0.991801
     40          6           0        3.715075    5.310900   -0.265299
     41          6           0        2.224669    3.277096    0.139582
     42          6           0        0.661841    6.618095   -0.767239
     43          6           0        4.274606    5.510888    1.093295
     44          1           0        0.375658    0.439728    0.135304
     45          1           0       -3.157914   -1.084527    1.263555
     46          1           0       -2.382508   -2.801711    2.282984
     47          1           0       -1.184817   -3.762913    2.988768
     48          1           0        5.219386   -2.463796   -2.588374
     49          1           0       -5.159499    0.417315    1.311184
     50          1           0       -6.057636    1.529522    0.330342
     51          1           0        2.800874   -0.046982    0.325846
     52          1           0       -0.460614    2.027694    0.551377
     53          1           0        1.252143   -4.711619    1.125859
     54          1           0        2.524595   -3.647387    1.826781
     55          1           0        0.994342   -3.906823    2.719299
     56          1           0        2.243424   -3.513620   -0.491076
     57          1           0       -1.378735   -5.212615    0.620941
     58          1           0       -2.616428   -5.358672    1.673000
     59          1           0       -4.622954   -1.217244   -0.829214
     60          1           0       -4.776337    0.437649   -1.852912
     61          1           0       -4.356462    4.994601   -0.123941
     62          1           0       -5.422336    3.865375   -0.501479
     63          1           0       -4.171472    3.998571   -1.656899
     64          1           0       -1.872429    5.017147   -0.389837
     65          1           0        7.496326   -2.656348   -1.566927
     66          1           0        6.832032   -4.442572   -1.440534
     67          1           0        6.933698   -3.337174    0.130890
     68          1           0        6.759034   -0.954729   -0.717237
     69          1           0        4.868033    1.209252    0.193728
     70          1           0        6.357584    1.048148    1.011733
     71          1           0        4.922556    0.139930    1.581280
     72          1           0        3.685110    6.355051   -0.591499
     73          1           0        4.177113    4.490635   -0.940284
     74          1           0        0.044294    6.529637   -1.839861
     75          1           0        1.477426    7.041236   -1.049727
     76          1           0       -0.054199    7.214979    0.150761
     77          1           0        3.747353    6.439426    1.513438
     78          1           0        5.339514    5.781337    0.824060
     79          1           0        4.428368    4.581567    1.787351
     80          1           0       -3.845365   -4.534215   -1.630108
     81          1           0       -7.635164   -1.744264   -1.780974
 ---------------------------------------------------------------------

 SCF Done:  E(RB3LYP) =  -1949.06485885     A.U. after   24 cycles

 Excitation energies and oscillator strengths:

 Excited State   1:      Singlet-A      1.6510 eV  750.94 nm  f=0.3565  <S**2>=0.000
     156 ->157         0.71514
     156 <-157        -0.14802
 This state for optimization and/or second-order correction.
 Total Energy, E(TD-HF/TD-DFT) =  -1949.00418411
 Copying the excited state density for this state as the 1-particle RhoCI density.

 The electronic state is 1-A.
 Alpha  occ. eigenvalues --  -19.20032 -19.18611 -19.13886 -19.12461 -19.10822
 Alpha  occ. eigenvalues --  -19.09329 -14.38214 -14.38072 -14.35142 -14.29156
 Alpha  occ. eigenvalues --  -10.33930 -10.32147 -10.29470 -10.26211 -10.25187
 Alpha  occ. eigenvalues --  -10.24321 -10.23838 -10.23313 -10.23028 -10.22647
 Alpha  occ. eigenvalues --  -10.22496 -10.22265 -10.21898 -10.21845 -10.21147
 Alpha  occ. eigenvalues --  -10.21094 -10.21073 -10.20534 -10.20350 -10.20139
 Alpha  occ. eigenvalues --  -10.20027 -10.19904 -10.19719 -10.19680 -10.19442
 Alpha  occ. eigenvalues --  -10.19428 -10.19104 -10.19057 -10.19014 -10.18920
 Alpha  occ. eigenvalues --  -10.18886 -10.18775 -10.17645  -1.11924  -1.11057
 Alpha  occ. eigenvalues --   -1.03340  -1.00933  -0.99714  -0.98593  -0.97961
 Alpha  occ. eigenvalues --   -0.97098  -0.96237  -0.90529  -0.83471  -0.82501
 Alpha  occ. eigenvalues --   -0.82021  -0.81066  -0.80621  -0.79181  -0.78918
 Alpha  occ. eigenvalues --   -0.76452  -0.75645  -0.74794  -0.74283  -0.72262
 Alpha  occ. eigenvalues --   -0.71090  -0.70580  -0.69916  -0.68627  -0.68160
 Alpha  occ. eigenvalues --   -0.66937  -0.65983  -0.65045  -0.63099  -0.62304
 Alpha  occ. eigenvalues --   -0.61148  -0.60011  -0.59330  -0.58411  -0.57657
 Alpha  occ. eigenvalues --   -0.55955  -0.54797  -0.54191  -0.53283  -0.52606
 Alpha  occ. eigenvalues --   -0.52389  -0.51825  -0.51144  -0.50274  -0.49470
 Alpha  occ. eigenvalues --   -0.49310  -0.48942  -0.48631  -0.48181  -0.47647
 Alpha  occ. eigenvalues --   -0.47146  -0.46749  -0.46247  -0.46020  -0.45757
 Alpha  occ. eigenvalues --   -0.45425  -0.44679  -0.44314  -0.43711  -0.43354
 Alpha  occ. eigenvalues --   -0.43318  -0.43249  -0.42616  -0.42303  -0.42029
 Alpha  occ. eigenvalues --   -0.41958  -0.41765  -0.41519  -0.41322  -0.40863
 Alpha  occ. eigenvalues --   -0.40658  -0.40601  -0.40435  -0.40107  -0.39681
 Alpha  occ. eigenvalues --   -0.39252  -0.39088  -0.38779  -0.38746  -0.38313
 Alpha  occ. eigenvalues --   -0.38118  -0.37800  -0.37194  -0.37035  -0.36574
 Alpha  occ. eigenvalues --   -0.36493  -0.36129  -0.34884  -0.34594  -0.34492
 Alpha  occ. eigenvalues --   -0.34309  -0.33922  -0.33437  -0.32626  -0.32391
 Alpha  occ. eigenvalues --   -0.32117  -0.31757  -0.31477  -0.29971  -0.29496
 Alpha  occ. eigenvalues --   -0.27930  -0.27634  -0.27236  -0.26603  -0.26090
 Alpha  occ. eigenvalues --   -0.25114  -0.23931  -0.23437  -0.22521  -0.21272
 Alpha  occ. eigenvalues --   -0.17234
 Alpha virt. eigenvalues --   -0.10834  -0.06879  -0.04402  -0.02013  -0.00505
 Alpha virt. eigenvalues --   -0.00384   0.02366   0.02711   0.03639   0.03751
 Alpha virt. eigenvalues --    0.04725   0.05043   0.05103   0.05492   0.06421

 Mulliken charges:
               1
     1  O   -0.231780
     2  O   -0.185798
     3  O   -0.112275
     4  O   -0.256682
     5  O   -0.274556
     6  O   -0.280879
     7  N   -0.148417
     8  N   -0.093343
     9  N   -0.058449
    10  N   -0.324469
    11  C   -0.120477
    12  C    0.080488
    13  C   -0.193839
    14  C    0.114995
    15  C   -0.124397
    16  C    0.109601
    17  C   -0.037017
    18  C   -0.083992
    19  C    0.297541
    20  C   -0.118835
    21  C    0.085398
    22  C   -0.045295
    23  C   -0.059153
    24  C    0.052055
    25  C    0.008850
    26  C    0.059109
    27  C    0.115762
    28  C    0.005574
    29  C   -0.076860
    30  C    0.075666
    31  C   -0.070563
    32  C    0.007133
    33  C   -0.123127
    34  C    0.126000
    35  C   -0.152516
    36  C   -0.129836
    37  C    0.115503
    38  C    0.069823
    39  C    0.140650
    40  C    0.076926
    41  C    0.155174
    42  C    0.102794
    43  C   -0.040955
    44  H    0.148546
    45  H    0.012264
    46  H   -0.077256
    47  H    0.005053
    48  H    0.073154
    49  H    0.015003
    50  H    0.053665
    51  H   -0.070207
    52  H    0.193314
    53  H    0.033650
    54  H    0.035585
    55  H   -0.002777
    56  H    0.128700
    57  H    0.024601
    58  H    0.053533
    59  H    0.085101
    60  H    0.065149
    61  H    0.031152
    62  H   -0.012185
    63  H    0.027609
    64  H   -0.028950
    65  H    0.045319
    66  H    0.049149
    67  H    0.051251
    68  H   -0.001519
    69  H    0.053056
    70  H    0.007368
    71  H    0.031558
    72  H   -0.009043
    73  H    0.043947
    74  H    0.031851
    75  H   -0.048021
    76  H    0.069725
    77  H    0.026422
    78  H    0.008095
    79  H    0.053071
    80  H    0.214840
    81  H    0.122698
 Sum of Mulliken charges =  -0.00000

 Dipole moment (field-independent basis, Debye):
    X=             -1.4699    Y=             -0.7208    Z=             -0.1697  Tot=              1.6459
 Quadrupole moment (field-independent basis, Debye-Ang):
   XX=           -257.0832   YY=           -239.3555   ZZ=           -253.2449
   XY=             19.3172   XZ=             10.3673   YZ=            -14.0201

 Normal termination of Gaussian 16 at Thu Jun 27 23:54:08 2019.
