 Gaussian 16, Revision A.03,
 Gaussian 16:  ES64L-G16RevA.03 25-Dec-2016

 --------------------------
 # td=(NStates=1) B3LYP/SVP
 --------------------------

 --
 TD
 --
 Symbolic Z-matrix:
 Charge =  0 Multiplicity = 1

                         Standard orientation:
 ---------------------------------------------------------------------
 Center     Atomic      Atomic             Coordinates (Angstroms)
 Number     Number       Type             X           Y           Z
 ---------------------------------------------------------------------
      1          8           0        4.288658   -4.800395   -1.872329
      2          8           0       -2.947172   -4.831981   -1.268700
      3          8           0       -6.976707   -1.528619   -1.833929
      4          8           0       -3.805164   -3.168052    0.074192
      5          8           0       -7.571940   -0.536957    0.142922
      6          8           0        3.095318    2.349373    0.549885
      7          7           0        0.322679   -0.498988    0.559752
      8          7           0       -1.561112    1.832491    0.413759
      9          7           0        3.266430   -3.067181   -0.699901
     10          7           0        0.849015    2.851667    0.036130
     11          6           0       -0.626449   -2.369384    1.382318
     12          6           0       -0.922572   -1.063683    1.070486
     13          6           0        0.769133   -2.525503    1.204462
     14          6           0        1.265372   -1.358931    0.694833
     15          6           0       -3.761314    1.599746    0.246390
     16          6           0       -2.504886    0.896653    0.587188
     17          6           0       -2.273978   -0.470917    0.898065
     18          6           0       -3.447390    2.813556   -0.167814
     19          6           0       -1.629966   -3.321828    1.990522
     20          6           0        5.553259   -2.761245   -1.342442
     21          6           0        3.545422   -1.791908   -0.240309
     22          6           0       -2.091750    3.025956   -0.147089
     23          6           0        5.019878   -1.635100   -0.393094
     24          6           0       -5.100321    0.866639    0.401027
     25          6           0        2.624161   -1.020161    0.425453
     26          6           0        1.381466   -3.735577    1.628089
     27          6           0        4.338411   -3.770146   -1.268249
     28          6           0       -2.035639   -4.470477    1.058118
     29          6           0       -5.366108   -0.186769   -0.791486
     30          6           0       -4.585493    3.817476   -0.529253
     31          6           0       -1.222932    4.118043   -0.395995
     32          6           0        6.806517   -3.448038   -0.858326
     33          6           0        5.792766   -0.585275    0.001858
     34          6           0        0.159858    4.001301   -0.410677
     35          6           0        1.081602    5.125233   -0.529152
     36          6           0        2.388721    4.589520   -0.329649
     37          6           0       -3.085636   -4.085771   -0.097970
     38          6           0        5.378954    0.552641    0.698128
     39          6           0       -6.720264   -0.722027   -0.702223
     40          6           0        3.672500    5.159218   -0.311198
     41          6           0        2.247922    3.188218    0.148985
     42          6           0        0.702797    6.515110   -0.897828
     43          6           0        4.172930    5.521588    1.180893
     44          1           0        0.271412    0.493953    0.114811
     45          1           0       -3.066524   -1.147761    1.062019
     46          1           0       -2.650846   -2.862307    2.367392
     47          1           0       -1.240154   -3.926648    2.854568
     48          1           0        5.821263   -2.597480   -2.271383
     49          1           0       -4.984195    0.246807    1.412153
     50          1           0       -6.055120    1.418714    0.610647
     51          1           0        2.711103   -0.012300    0.575105
     52          1           0       -0.525626    1.693108    0.629021
     53          1           0        1.238954   -4.644399    1.047832
     54          1           0        2.327243   -3.618305    1.770586
     55          1           0        0.966912   -4.079320    2.586353
     56          1           0        2.439778   -3.428433   -0.611283
     57          1           0       -1.199277   -5.078485    0.686037
     58          1           0       -2.719735   -5.156130    1.603846
     59          1           0       -4.680838   -1.034999   -0.715241
     60          1           0       -5.035595    0.209302   -1.747145
     61          1           0       -4.439324    4.520060    0.077359
     62          1           0       -5.604204    3.574849   -0.461023
     63          1           0       -4.567426    4.264252   -1.578238
     64          1           0       -1.734981    4.979906   -0.802578
     65          1           0        7.830548   -2.787845   -0.779140
     66          1           0        6.857976   -4.247274   -1.539787
     67          1           0        6.871732   -3.804747    0.140504
     68          1           0        6.738541   -0.646236   -0.319856
     69          1           0        4.912688    1.473581    0.038592
     70          1           0        6.236436    0.982264    1.276834
     71          1           0        4.684918    0.631078    1.601628
     72          1           0        3.581365    5.923192   -0.931232
     73          1           0        4.134354    4.352880   -0.743128
     74          1           0        0.118562    6.609914   -1.839479
     75          1           0        1.625359    7.216416   -1.107711
     76          1           0        0.086969    6.913394   -0.011982
     77          1           0        3.317030    6.042301    1.721015
     78          1           0        5.054964    6.205342    1.292269
     79          1           0        4.278679    4.613728    1.644036
     80          1           0       -3.623664   -4.208225   -1.828249
     81          1           0       -7.944114   -1.585955   -1.554049
 ---------------------------------------------------------------------

 SCF Done:  E(RB3LYP) =  -1949.06201487     A.U. after   17 cycles

 Excitation energies and oscillator strengths:

 Excited State   1:      Singlet-A      1.5896 eV  779.98 nm  f=0.2120  <S**2>=0.000
     154 ->157         0.11089
     156 ->157         0.70068
     156 <-157        -0.11840
 This state for optimization and/or second-order correction.
 Total Energy, E(TD-HF/TD-DFT) =  -1949.00359897
 Copying the excited state density for this state as the 1-particle RhoCI density.

 The electronic state is 1-A.
 Alpha  occ. eigenvalues --  -19.20568 -19.18021 -19.15950 -19.14546 -19.11820
 Alpha  occ. eigenvalues --  -19.10629 -14.37882 -14.36630 -14.36462 -14.28276
 Alpha  occ. eigenvalues --  -10.34062 -10.32869 -10.29563 -10.26268 -10.24638
 Alpha  occ. eigenvalues --  -10.24553 -10.23683 -10.23202 -10.22780 -10.22662
 Alpha  occ. eigenvalues --  -10.22631 -10.22355 -10.22178 -10.22073 -10.21108
 Alpha  occ. eigenvalues --  -10.20874 -10.20772 -10.20130 -10.20094 -10.19641
 Alpha  occ. eigenvalues --  -10.19631 -10.19619 -10.19550 -10.18740 -10.18653
 Alpha  occ. eigenvalues --  -10.18498 -10.18407 -10.18233 -10.18150 -10.17736
 Alpha  occ. eigenvalues --  -10.17485 -10.17326 -10.16658  -1.11230  -1.09380
 Alpha  occ. eigenvalues --   -1.04787  -1.02774  -1.00504  -0.99620  -0.99389
 Alpha  occ. eigenvalues --   -0.98506  -0.96305  -0.89110  -0.83009  -0.82495
 Alpha  occ. eigenvalues --   -0.81816  -0.81407  -0.80345  -0.79436  -0.77975
 Alpha  occ. eigenvalues --   -0.77628  -0.76944  -0.75737  -0.74740  -0.72875
 Alpha  occ. eigenvalues --   -0.72471  -0.70463  -0.69417  -0.68263  -0.67489
 Alpha  occ. eigenvalues --   -0.66866  -0.65648  -0.64445  -0.63436  -0.62360
 Alpha  occ. eigenvalues --   -0.59851  -0.59503  -0.58595  -0.58063  -0.57280
 Alpha  occ. eigenvalues --   -0.56240  -0.55966  -0.54932  -0.54519  -0.53971
 Alpha  occ. eigenvalues --   -0.52866  -0.51490  -0.51053  -0.50882  -0.50419
 Alpha  occ. eigenvalues --   -0.49585  -0.49351  -0.49303  -0.48531  -0.48416
 Alpha  occ. eigenvalues --   -0.47732  -0.47279  -0.46614  -0.46540  -0.45894
 Alpha  occ. eigenvalues --   -0.45403  -0.45170  -0.44818  -0.44530  -0.44343
 Alpha  occ. eigenvalues --   -0.43919  -0.43620  -0.43452  -0.43107  -0.42579
 Alpha  occ. eigenvalues --   -0.42462  -0.42245  -0.42071  -0.41708  -0.41485
 Alpha  occ. eigenvalues --   -0.41178  -0.40776  -0.40499  -0.40390  -0.39867
 Alpha  occ. eigenvalues --   -0.39549  -0.39088  -0.38797  -0.38650  -0.38493
 Alpha  occ. eigenvalues --   -0.38353  -0.38115  -0.37767  -0.37393  -0.36840
 Alpha  occ. eigenvalues --   -0.36655  -0.36449  -0.36270  -0.35483  -0.35228
 Alpha  occ. eigenvalues --   -0.34791  -0.34531  -0.34318  -0.33679  -0.33417
 Alpha  occ. eigenvalues --   -0.33152  -0.32689  -0.31690  -0.30360  -0.30091
 Alpha  occ. eigenvalues --   -0.30025  -0.27183  -0.27003  -0.26226  -0.25809
 Alpha  occ. eigenvalues --   -0.25342  -0.24340  -0.23738  -0.22371  -0.21005
 Alpha  occ. eigenvalues --   -0.18139
 Alpha virt. eigenvalues --   -0.11479  -0.06078  -0.04219  -0.01682  -0.00892
 Alpha virt. eigenvalues --   -0.00444   0.01475   0.02183   0.03994   0.04435
 Alpha virt. eigenvalues --    0.04983   0.05085   0.05682   0.06059   0.06478

 Mulliken charges:
               1
     1  O   -0.184265
     2  O   -0.243673
     3  O   -0.242757
     4  O   -0.190405
     5  O   -0.230329
     6  O   -0.256652
     7  N   -0.085891
     8  N   -0.120030
     9  N   -0.045210
    10  N   -0.386987
    11  C   -0.034333
    12  C    0.012107
    13  C   -0.169459
    14  C    0.045122
    15  C   -0.047269
    16  C    0.038348
    17  C    0.003945
    18  C   -0.111218
    19  C    0.058678
    20  C   -0.005441
    21  C    0.126254
    22  C    0.093369
    23  C   -0.014382
    24  C    0.016859
    25  C   -0.081210
    26  C    0.184824
    27  C    0.136777
    28  C   -0.012250
    29  C    0.027827
    30  C    0.187885
    31  C   -0.097073
    32  C    0.012294
    33  C   -0.019701
    34  C    0.144770
    35  C   -0.110760
    36  C   -0.217780
    37  C    0.139721
    38  C   -0.010269
    39  C    0.170886
    40  C    0.219755
    41  C    0.183601
    42  C    0.039290
    43  C    0.013576
    44  H    0.160750
    45  H   -0.011107
    46  H    0.038822
    47  H    0.015741
    48  H   -0.014558
    49  H    0.035170
    50  H    0.035039
    51  H   -0.025069
    52  H    0.153019
    53  H    0.013896
    54  H   -0.044853
    55  H   -0.006049
    56  H    0.056862
    57  H    0.029287
    58  H    0.034165
    59  H    0.039187
    60  H    0.037110
    61  H   -0.040666
    62  H   -0.005567
    63  H    0.015129
    64  H   -0.028878
    65  H    0.025989
    66  H    0.018281
    67  H   -0.007903
    68  H   -0.062397
    69  H    0.096599
    70  H   -0.010100
    71  H    0.042202
    72  H   -0.061503
    73  H   -0.010117
    74  H    0.032268
    75  H    0.030503
    76  H    0.042742
    77  H    0.011400
    78  H    0.025649
    79  H    0.008952
    80  H    0.216380
    81  H    0.175079
 Sum of Mulliken charges =  -0.00000

 Dipole moment (field-independent basis, Debye):
    X=             -2.9081    Y=              1.5254    Z=             -0.2197  Tot=              3.2912
 Quadrupole moment (field-independent basis, Debye-Ang):
   XX=           -254.4844   YY=           -242.1281   ZZ=           -255.0767
   XY=              7.6723   XZ=             10.4009   YZ=            -17.6946

 Normal termination of Gaussian 16 at Fri Jun 28 15:58:52 2019.
