 Gaussian 16, Revision A.03,
 Gaussian 16:  ES64L-G16RevA.03 25-Dec-2016

 --------------------------
 # td=(NStates=1) B3LYP/SVP
 --------------------------

 --
 TD
 --
 Symbolic Z-matrix:
 Charge =  0 Multiplicity = 1

                         Standard orientation:
 ---------------------------------------------------------------------
 Center     Atomic      Atomic             Coordinates (Angstroms)
 Number     Number       Type             X           Y           Z
 ---------------------------------------------------------------------
      1          8           0        4.365288   -4.812169   -1.853898
      2          8           0       -2.641251   -5.002242   -1.003702
      3          8           0       -6.876373   -1.833475   -1.840562
      4          8           0       -3.587970   -3.300859    0.158887
      5          8           0       -7.625065   -0.539483   -0.004237
      6          8           0        2.984156    2.489542    0.388985
      7          7           0        0.240598   -0.446682    0.603232
      8          7           0       -1.585343    1.897746    0.376807
      9          7           0        3.337727   -3.076169   -0.654521
     10          7           0        0.685985    2.885364   -0.100991
     11          6           0       -0.606600   -2.383747    1.432248
     12          6           0       -0.959640   -1.098447    0.972353
     13          6           0        0.838435   -2.549606    1.246679
     14          6           0        1.329746   -1.333457    0.691102
     15          6           0       -3.814487    1.401487    0.270616
     16          6           0       -2.453505    0.884521    0.508493
     17          6           0       -2.184199   -0.477605    0.881827
     18          6           0       -3.626443    2.735166   -0.134776
     19          6           0       -1.578974   -3.259190    2.022605
     20          6           0        5.534804   -2.668505   -1.313962
     21          6           0        3.603704   -1.712423   -0.236185
     22          6           0       -2.268192    3.012704   -0.087863
     23          6           0        4.984641   -1.436824   -0.651036
     24          6           0       -5.038839    0.638157    0.288650
     25          6           0        2.627641   -0.931129    0.266770
     26          6           0        1.687374   -3.760563    1.774033
     27          6           0        4.424240   -3.616893   -1.330477
     28          6           0       -1.908977   -4.582773    1.216436
     29          6           0       -5.361106   -0.305279   -0.944779
     30          6           0       -4.634900    3.752994   -0.501310
     31          6           0       -1.413341    4.104227   -0.295925
     32          6           0        6.925794   -3.288850   -0.931743
     33          6           0        5.682679   -0.412085   -0.126344
     34          6           0        0.004580    3.999469   -0.350113
     35          6           0        0.922947    5.258050   -0.482629
     36          6           0        2.142870    4.663507   -0.207184
     37          6           0       -2.834370   -4.272056    0.065950
     38          6           0        5.358300    0.764090    0.704209
     39          6           0       -6.776974   -0.873105   -0.833666
     40          6           0        3.513065    5.218273   -0.155718
     41          6           0        2.046092    3.266637    0.063477
     42          6           0        0.441783    6.588098   -0.832722
     43          6           0        4.166431    5.520247    1.251491
     44          1           0        0.325036    0.477146    0.340103
     45          1           0       -3.160954   -0.910271    1.000512
     46          1           0       -2.364093   -2.727322    2.413749
     47          1           0       -1.173211   -3.672075    2.891741
     48          1           0        5.616301   -2.397825   -2.439902
     49          1           0       -4.947775    0.025337    1.408842
     50          1           0       -5.869861    1.261040    0.478808
     51          1           0        2.857614    0.226733    0.305930
     52          1           0       -0.600577    1.905663    0.164007
     53          1           0        1.596836   -4.903398    1.189371
     54          1           0        2.704617   -3.478120    1.891318
     55          1           0        1.440605   -4.189335    2.891321
     56          1           0        2.429384   -3.384002   -0.953103
     57          1           0       -0.997494   -4.949010    0.799603
     58          1           0       -2.337563   -5.296325    1.882007
     59          1           0       -4.583154   -1.043259   -1.068928
     60          1           0       -5.416531    0.293588   -1.838526
     61          1           0       -4.649485    4.701273    0.039023
     62          1           0       -5.507148    3.151772   -0.169548
     63          1           0       -4.455258    3.836397   -1.585091
     64          1           0       -1.981472    4.831457   -0.431483
     65          1           0        7.622054   -2.285842   -0.921132
     66          1           0        7.376947   -4.262005   -1.406488
     67          1           0        6.727488   -3.587329    0.100396
     68          1           0        6.792025   -0.688814   -0.561848
     69          1           0        5.140568    1.747838   -0.113770
     70          1           0        6.187085    1.109297    1.401992
     71          1           0        4.425711    0.638090    1.279503
     72          1           0        3.464491    6.265177   -0.767864
     73          1           0        4.116856    4.514968   -0.795320
     74          1           0       -0.286891    6.533374   -1.707585
     75          1           0        1.263944    7.223008   -1.078460
     76          1           0       -0.044036    7.065377   -0.010606
     77          1           0        3.567835    6.185354    1.772586
     78          1           0        5.116724    5.882125    1.341856
     79          1           0        4.351167    4.740132    1.879282
     80          1           0       -3.308137   -4.690127   -1.673848
     81          1           0       -7.790170   -2.052961   -1.726973
 ---------------------------------------------------------------------

 SCF Done:  E(RB3LYP) =  -1949.09690284     A.U. after   17 cycles

 Excitation energies and oscillator strengths:

 Excited State   1:      Singlet-A      1.7003 eV  729.19 nm  f=0.3159  <S**2>=0.000
     156 ->157         0.71020
     156 <-157        -0.13403
 This state for optimization and/or second-order correction.
 Total Energy, E(TD-HF/TD-DFT) =  -1949.03441795
 Copying the excited state density for this state as the 1-particle RhoCI density.

 The electronic state is 1-A.
 Alpha  occ. eigenvalues --  -19.21014 -19.19374 -19.14735 -19.13254 -19.10248
 Alpha  occ. eigenvalues --  -19.09543 -14.36898 -14.36444 -14.34191 -14.28852
 Alpha  occ. eigenvalues --  -10.33565 -10.32998 -10.28644 -10.26132 -10.24461
 Alpha  occ. eigenvalues --  -10.24221 -10.23028 -10.22985 -10.22981 -10.22248
 Alpha  occ. eigenvalues --  -10.21945 -10.21642 -10.21421 -10.21303 -10.21241
 Alpha  occ. eigenvalues --  -10.21194 -10.21037 -10.20881 -10.20857 -10.20579
 Alpha  occ. eigenvalues --  -10.20538 -10.20330 -10.20169 -10.20141 -10.19709
 Alpha  occ. eigenvalues --  -10.19659 -10.19590 -10.19454 -10.19287 -10.18985
 Alpha  occ. eigenvalues --  -10.18241 -10.17172 -10.15581  -1.12141  -1.09690
 Alpha  occ. eigenvalues --   -1.01708  -1.01292  -0.99589  -0.99471  -0.98323
 Alpha  occ. eigenvalues --   -0.96761  -0.92428  -0.91246  -0.82874  -0.82521
 Alpha  occ. eigenvalues --   -0.82214  -0.81354  -0.79567  -0.79320  -0.77597
 Alpha  occ. eigenvalues --   -0.77171  -0.76843  -0.75344  -0.74330  -0.72623
 Alpha  occ. eigenvalues --   -0.71436  -0.70515  -0.69584  -0.68896  -0.68361
 Alpha  occ. eigenvalues --   -0.67381  -0.65561  -0.64811  -0.62973  -0.62382
 Alpha  occ. eigenvalues --   -0.61869  -0.59589  -0.59293  -0.57390  -0.57229
 Alpha  occ. eigenvalues --   -0.56180  -0.55689  -0.55011  -0.54114  -0.52782
 Alpha  occ. eigenvalues --   -0.52069  -0.51199  -0.51062  -0.50467  -0.50100
 Alpha  occ. eigenvalues --   -0.49830  -0.49632  -0.49157  -0.48621  -0.47552
 Alpha  occ. eigenvalues --   -0.46930  -0.46586  -0.46364  -0.45568  -0.45310
 Alpha  occ. eigenvalues --   -0.44959  -0.44620  -0.44070  -0.43864  -0.43550
 Alpha  occ. eigenvalues --   -0.43131  -0.42969  -0.42928  -0.42545  -0.42073
 Alpha  occ. eigenvalues --   -0.41757  -0.41507  -0.41282  -0.40823  -0.40571
 Alpha  occ. eigenvalues --   -0.40479  -0.40269  -0.40022  -0.39915  -0.39531
 Alpha  occ. eigenvalues --   -0.39490  -0.39374  -0.38800  -0.38550  -0.38300
 Alpha  occ. eigenvalues --   -0.38119  -0.37917  -0.37725  -0.36991  -0.36452
 Alpha  occ. eigenvalues --   -0.36123  -0.35911  -0.35615  -0.35058  -0.34361
 Alpha  occ. eigenvalues --   -0.33888  -0.33853  -0.33537  -0.33348  -0.32936
 Alpha  occ. eigenvalues --   -0.32500  -0.32191  -0.31832  -0.29731  -0.29591
 Alpha  occ. eigenvalues --   -0.28796  -0.27715  -0.25991  -0.25278  -0.25037
 Alpha  occ. eigenvalues --   -0.24659  -0.24446  -0.24227  -0.23220  -0.21698
 Alpha  occ. eigenvalues --   -0.17515
 Alpha virt. eigenvalues --   -0.10767  -0.05997  -0.04406  -0.01399  -0.01142
 Alpha virt. eigenvalues --   -0.00859   0.01897   0.02502   0.03368   0.04073
 Alpha virt. eigenvalues --    0.04127   0.04523   0.04786   0.05355   0.05621

 Mulliken charges:
               1
     1  O   -0.307250
     2  O   -0.138298
     3  O   -0.184066
     4  O   -0.257302
     5  O   -0.230407
     6  O   -0.265107
     7  N   -0.086207
     8  N   -0.048701
     9  N   -0.129416
    10  N   -0.321519
    11  C   -0.107817
    12  C    0.163220
    13  C   -0.121044
    14  C    0.095698
    15  C   -0.070560
    16  C   -0.025127
    17  C   -0.032496
    18  C   -0.131328
    19  C    0.197170
    20  C    0.002021
    21  C    0.084506
    22  C    0.022089
    23  C   -0.048376
    24  C   -0.000970
    25  C   -0.154562
    26  C   -0.020483
    27  C    0.097944
    28  C    0.051745
    29  C    0.064180
    30  C    0.110370
    31  C    0.022627
    32  C    0.005824
    33  C   -0.142460
    34  C    0.096678
    35  C   -0.101291
    36  C   -0.162360
    37  C    0.111546
    38  C    0.027536
    39  C    0.165133
    40  C    0.026907
    41  C    0.193688
    42  C    0.151865
    43  C    0.117102
    44  H    0.080131
    45  H   -0.013416
    46  H   -0.022534
    47  H   -0.035039
    48  H    0.060166
    49  H    0.045302
    50  H    0.000993
    51  H    0.077318
    52  H    0.134000
    53  H    0.049645
    54  H    0.025602
    55  H    0.031531
    56  H    0.138896
    57  H    0.016500
    58  H    0.030831
    59  H    0.043608
    60  H    0.027544
    61  H    0.034363
    62  H    0.006081
    63  H    0.035892
    64  H   -0.167693
    65  H    0.039591
    66  H    0.072170
    67  H    0.019576
    68  H    0.008870
    69  H    0.094718
    70  H    0.032227
    71  H    0.050785
    72  H   -0.002416
    73  H    0.020259
    74  H    0.034644
    75  H    0.000096
    76  H    0.019812
    77  H   -0.017284
    78  H   -0.028846
    79  H   -0.019067
    80  H    0.197984
    81  H    0.156460
 Sum of Mulliken charges =  -0.00000

 Dipole moment (field-independent basis, Debye):
    X=             -3.2494    Y=              1.0934    Z=             -0.4825  Tot=              3.4622
 Quadrupole moment (field-independent basis, Debye-Ang):
   XX=           -247.8453   YY=           -243.7135   ZZ=           -252.0816
   XY=             17.9237   XZ=             18.2103   YZ=            -12.2009

 Normal termination of Gaussian 16 at Sat Jun 29 11:47:25 2019.
