 Gaussian 16, Revision A.03,
 Gaussian 16:  ES64L-G16RevA.03 25-Dec-2016

 --------------------------
 # td=(NStates=1) B3LYP/SVP
 --------------------------

 --
 TD
 --
 Symbolic Z-matrix:
 Charge =  0 Multiplicity = 1

                         Standard orientation:
 ---------------------------------------------------------------------
 Center     Atomic      Atomic             Coordinates (Angstroms)
 Number     Number       Type             X           Y           Z
 ---------------------------------------------------------------------
      1          8           0        4.031656   -5.054489   -1.699025
      2          8           0       -3.050954   -4.728377   -1.049400
      3          8           0       -6.948747   -1.393686   -1.941444
      4          8           0       -3.969527   -3.092991    0.237256
      5          8           0       -7.516872   -0.277918   -0.039527
      6          8           0        3.214487    2.346380    0.345649
      7          7           0        0.162829   -0.493312    0.635425
      8          7           0       -1.499232    1.881798    0.302081
      9          7           0        3.161024   -3.199063   -0.665103
     10          7           0        0.948139    2.775661    0.118252
     11          6           0       -0.694112   -2.305657    1.497905
     12          6           0       -1.005288   -1.004170    0.955806
     13          6           0        0.641799   -2.648512    1.283028
     14          6           0        1.222051   -1.437452    0.731272
     15          6           0       -3.627396    1.571930    0.216093
     16          6           0       -2.469213    0.961692    0.525870
     17          6           0       -2.200196   -0.344356    0.857393
     18          6           0       -3.351973    2.859641   -0.122306
     19          6           0       -1.735234   -3.229794    2.143589
     20          6           0        5.303248   -2.981567   -1.341504
     21          6           0        3.500010   -1.960968   -0.307904
     22          6           0       -1.952432    3.067721    0.038217
     23          6           0        4.927536   -1.732689   -0.584313
     24          6           0       -5.019146    0.943972    0.257141
     25          6           0        2.538878   -1.090522    0.300696
     26          6           0        1.386529   -3.885652    1.745820
     27          6           0        4.069037   -3.891875   -1.320141
     28          6           0       -2.197589   -4.392890    1.191703
     29          6           0       -5.357871   -0.017197   -0.982861
     30          6           0       -4.371225    4.034062   -0.509444
     31          6           0       -1.176808    4.171882   -0.348065
     32          6           0        6.561306   -3.688918   -0.998743
     33          6           0        5.662199   -0.749063   -0.265767
     34          6           0        0.289931    3.987624   -0.231519
     35          6           0        1.293105    5.060713   -0.442814
     36          6           0        2.431366    4.581573   -0.152798
     37          6           0       -3.085239   -4.003204    0.164008
     38          6           0        5.441190    0.499918    0.608413
     39          6           0       -6.669845   -0.591294   -0.935537
     40          6           0        3.867431    5.109848   -0.213811
     41          6           0        2.228539    3.126617    0.136785
     42          6           0        0.961561    6.468090   -0.758869
     43          6           0        4.312865    5.628914    1.232863
     44          1           0        0.165316    0.473032    0.104174
     45          1           0       -3.227361   -0.973709    1.222329
     46          1           0       -2.437823   -2.489953    2.442658
     47          1           0       -1.550057   -3.730914    3.096523
     48          1           0        5.182325   -2.667687   -2.507215
     49          1           0       -5.127724    0.394419    1.126516
     50          1           0       -5.911115    1.614703    0.283016
     51          1           0        2.799690    0.081678    0.391917
     52          1           0       -0.293584    1.747442    0.495275
     53          1           0        1.383942   -4.892578    1.174701
     54          1           0        2.409091   -3.783080    2.020655
     55          1           0        1.172100   -4.240952    2.763470
     56          1           0        2.207537   -3.780167   -0.632075
     57          1           0       -1.174785   -4.924304    0.841872
     58          1           0       -2.834395   -5.137478    1.626471
     59          1           0       -4.773385   -0.784569   -1.020803
     60          1           0       -5.086608    0.405751   -1.971351
     61          1           0       -4.113506    5.052096    0.074382
     62          1           0       -5.391789    3.730840   -0.386659
     63          1           0       -4.263623    4.231546   -1.477355
     64          1           0       -1.629205    5.108406   -0.715842
     65          1           0        7.527307   -2.925762   -0.994684
     66          1           0        6.792629   -4.384452   -1.696929
     67          1           0        6.614024   -4.092098    0.112812
     68          1           0        6.700559   -0.652056   -0.704809
     69          1           0        5.278666    1.321399   -0.232393
     70          1           0        6.408291    0.770936    0.983858
     71          1           0        4.478476    0.538104    1.214550
     72          1           0        4.021105    5.859470   -1.029688
     73          1           0        4.466885    4.268726   -0.525113
     74          1           0        0.442558    6.485609   -1.755531
     75          1           0        1.826577    7.164699   -1.277397
     76          1           0        0.143177    6.957774   -0.013253
     77          1           0        3.743012    6.523937    1.448910
     78          1           0        5.515522    5.905597    1.067771
     79          1           0        4.323228    4.999747    2.098835
     80          1           0       -3.646018   -4.474630   -1.695291
     81          1           0       -7.980772   -1.558980   -1.738184
 ---------------------------------------------------------------------

 SCF Done:  E(RB3LYP) =  -1949.04169876     A.U. after   20 cycles

 Excitation energies and oscillator strengths:

 Excited State   1:      Singlet-A      1.7723 eV  699.58 nm  f=0.3600  <S**2>=0.000
     156 ->157         0.70980
     156 <-157        -0.12747
 This state for optimization and/or second-order correction.
 Total Energy, E(TD-HF/TD-DFT) =  -1948.97656878
 Copying the excited state density for this state as the 1-particle RhoCI density.

 The electronic state is 1-A.
 Alpha  occ. eigenvalues --  -19.19775 -19.17657 -19.13567 -19.11559 -19.11009
 Alpha  occ. eigenvalues --  -19.08808 -14.38887 -14.38618 -14.35436 -14.30456
 Alpha  occ. eigenvalues --  -10.34012 -10.31567 -10.28746 -10.25595 -10.25469
 Alpha  occ. eigenvalues --  -10.25185 -10.24158 -10.23359 -10.23331 -10.22756
 Alpha  occ. eigenvalues --  -10.22280 -10.21910 -10.21462 -10.21457 -10.21216
 Alpha  occ. eigenvalues --  -10.21207 -10.21199 -10.21072 -10.20034 -10.20010
 Alpha  occ. eigenvalues --  -10.19749 -10.19740 -10.19550 -10.19395 -10.19374
 Alpha  occ. eigenvalues --  -10.19131 -10.18926 -10.18854 -10.18827 -10.18824
 Alpha  occ. eigenvalues --  -10.18646 -10.18410 -10.17461  -1.09850  -1.08018
 Alpha  occ. eigenvalues --   -1.04592  -1.00576  -0.99189  -0.98977  -0.98718
 Alpha  occ. eigenvalues --   -0.97717  -0.97595  -0.91372  -0.83080  -0.82681
 Alpha  occ. eigenvalues --   -0.82566  -0.81362  -0.80168  -0.79351  -0.78527
 Alpha  occ. eigenvalues --   -0.77716  -0.76724  -0.74865  -0.73977  -0.73145
 Alpha  occ. eigenvalues --   -0.71612  -0.70413  -0.69913  -0.68841  -0.68295
 Alpha  occ. eigenvalues --   -0.67792  -0.66048  -0.65249  -0.63179  -0.61866
 Alpha  occ. eigenvalues --   -0.61070  -0.59255  -0.59025  -0.58512  -0.57517
 Alpha  occ. eigenvalues --   -0.56589  -0.55805  -0.54963  -0.54040  -0.53589
 Alpha  occ. eigenvalues --   -0.52658  -0.51981  -0.51218  -0.50314  -0.50028
 Alpha  occ. eigenvalues --   -0.49605  -0.49009  -0.48723  -0.48445  -0.47616
 Alpha  occ. eigenvalues --   -0.47369  -0.47022  -0.46164  -0.45827  -0.45285
 Alpha  occ. eigenvalues --   -0.44579  -0.44466  -0.44268  -0.43625  -0.43356
 Alpha  occ. eigenvalues --   -0.43333  -0.42940  -0.42404  -0.41849  -0.41611
 Alpha  occ. eigenvalues --   -0.41460  -0.41388  -0.41028  -0.40881  -0.40438
 Alpha  occ. eigenvalues --   -0.40223  -0.39855  -0.39823  -0.39598  -0.39207
 Alpha  occ. eigenvalues --   -0.39039  -0.38692  -0.38344  -0.38257  -0.37901
 Alpha  occ. eigenvalues --   -0.37779  -0.37587  -0.37409  -0.37234  -0.36955
 Alpha  occ. eigenvalues --   -0.36318  -0.35795  -0.35206  -0.34833  -0.34576
 Alpha  occ. eigenvalues --   -0.34409  -0.34058  -0.34004  -0.32682  -0.32494
 Alpha  occ. eigenvalues --   -0.32046  -0.31747  -0.31076  -0.29968  -0.28544
 Alpha  occ. eigenvalues --   -0.28377  -0.27366  -0.27109  -0.26826  -0.26240
 Alpha  occ. eigenvalues --   -0.25647  -0.24923  -0.24304  -0.23664  -0.21838
 Alpha  occ. eigenvalues --   -0.17755
 Alpha virt. eigenvalues --   -0.10759  -0.05848  -0.04108  -0.02821  -0.00051
 Alpha virt. eigenvalues --    0.01138   0.01948   0.02865   0.03131   0.03267
 Alpha virt. eigenvalues --    0.04014   0.04638   0.05426   0.05715   0.06059

 Mulliken charges:
               1
     1  O   -0.224409
     2  O   -0.203537
     3  O   -0.192292
     4  O   -0.278699
     5  O   -0.310560
     6  O   -0.297050
     7  N   -0.089133
     8  N   -0.149019
     9  N   -0.053306
    10  N   -0.292437
    11  C   -0.123743
    12  C    0.054756
    13  C   -0.086929
    14  C    0.084475
    15  C   -0.049271
    16  C    0.051073
    17  C   -0.130303
    18  C   -0.175735
    19  C    0.133950
    20  C   -0.077816
    21  C    0.058662
    22  C    0.088119
    23  C    0.137985
    24  C    0.135842
    25  C   -0.177054
    26  C    0.022337
    27  C    0.049463
    28  C    0.035365
    29  C    0.101350
    30  C    0.147910
    31  C   -0.127024
    32  C    0.064902
    33  C   -0.296865
    34  C    0.079785
    35  C   -0.078131
    36  C   -0.156282
    37  C    0.147875
    38  C    0.081019
    39  C    0.142679
    40  C    0.115184
    41  C    0.140384
    42  C    0.022226
    43  C   -0.029881
    44  H    0.164325
    45  H    0.084466
    46  H   -0.003207
    47  H    0.004309
    48  H    0.053931
    49  H   -0.013953
    50  H    0.018764
    51  H    0.085580
    52  H    0.226061
    53  H    0.040517
    54  H    0.011883
    55  H    0.009882
    56  H    0.180562
    57  H    0.066817
    58  H    0.048924
    59  H   -0.043228
    60  H    0.027356
    61  H    0.036796
    62  H    0.003233
    63  H   -0.019666
    64  H   -0.008001
    65  H    0.018280
    66  H    0.006353
    67  H    0.034224
    68  H    0.002277
    69  H    0.058294
    70  H    0.001067
    71  H    0.065931
    72  H   -0.001100
    73  H    0.004933
    74  H    0.006174
    75  H    0.033357
    76  H    0.055896
    77  H    0.018340
    78  H    0.016001
    79  H    0.027865
    80  H    0.161629
    81  H    0.219266
 Sum of Mulliken charges =  -0.00000

 Dipole moment (field-independent basis, Debye):
    X=             -1.2577    Y=             -0.4060    Z=             -0.7515  Tot=              1.5204
 Quadrupole moment (field-independent basis, Debye-Ang):
   XX=           -259.5853   YY=           -243.9979   ZZ=           -249.7738
   XY=             12.9475   XZ=             13.6373   YZ=            -19.2186

 Normal termination of Gaussian 16 at Tue Jul  2 16:18:21 2019.
