 Gaussian 16, Revision A.03,
 Gaussian 16:  ES64L-G16RevA.03 25-Dec-2016

 --------------------------
 # td=(NStates=1) B3LYP/SVP
 --------------------------

 --
 TD
 --
 Symbolic Z-matrix:
 Charge =  0 Multiplicity = 1

                         Standard orientation:
 ---------------------------------------------------------------------
 Center     Atomic      Atomic             Coordinates (Angstroms)
 Number     Number       Type             X           Y           Z
 ---------------------------------------------------------------------
      1          8           0       -4.110087   -4.915231    1.862262
      2          8           0        3.048036   -4.675251    1.185877
      3          8           0        7.132799   -1.351124    1.832642
      4          8           0        3.763214   -3.018909   -0.064562
      5          8           0        7.556807   -0.523956   -0.239057
      6          8           0       -3.064593    2.195371   -0.304553
      7          7           0       -0.187293   -0.479539   -0.616374
      8          7           0        1.557762    1.918359   -0.554442
      9          7           0       -3.235016   -3.198710    0.641993
     10          7           0       -0.859161    2.923020   -0.189487
     11          6           0        0.713665   -2.361534   -1.401784
     12          6           0        1.062486   -1.064714   -0.910259
     13          6           0       -0.711286   -2.587104   -1.257040
     14          6           0       -1.230305   -1.426250   -0.686496
     15          6           0        3.715321    1.528919   -0.295369
     16          6           0        2.392625    0.927044   -0.573668
     17          6           0        2.334508   -0.395730   -0.857438
     18          6           0        3.446783    2.895618    0.159119
     19          6           0        1.733745   -3.330504   -2.014048
     20          6           0       -5.410086   -2.847148    1.322417
     21          6           0       -3.512615   -1.921877    0.111201
     22          6           0        2.000855    3.010231   -0.037653
     23          6           0       -4.869291   -1.713150    0.393527
     24          6           0        5.052733    0.913560   -0.278939
     25          6           0       -2.575875   -1.036749   -0.406816
     26          6           0       -1.357427   -3.826482   -1.770706
     27          6           0       -4.153733   -3.804950    1.443143
     28          6           0        2.150449   -4.416421   -1.004035
     29          6           0        5.481830   -0.012099    0.903315
     30          6           0        4.411441    3.948249    0.606188
     31          6           0        1.165242    4.118330    0.217721
     32          6           0       -6.754990   -3.632039    0.907896
     33          6           0       -5.747294   -0.718460    0.151422
     34          6           0       -0.288706    4.078341    0.174293
     35          6           0       -1.267541    5.144570    0.343443
     36          6           0       -2.516189    4.569620    0.137295
     37          6           0        3.092126   -3.965362    0.046643
     38          6           0       -5.433828    0.444094   -0.684568
     39          6           0        6.791003   -0.545801    0.784846
     40          6           0       -3.874049    5.178448    0.220384
     41          6           0       -2.256164    3.086272   -0.148086
     42          6           0       -0.848870    6.458384    1.074595
     43          6           0       -4.519895    5.438275   -1.140603
     44          1           0       -0.790147    0.372229   -0.098611
     45          1           0        3.259726   -1.120631   -0.837819
     46          1           0        2.626936   -2.517537   -2.433066
     47          1           0        1.010671   -3.797954   -2.775657
     48          1           0       -5.603618   -2.347018    2.233934
     49          1           0        5.136172    0.373937   -1.313379
     50          1           0        5.650533    1.880454   -0.422680
     51          1           0       -2.940619   -0.125179   -0.617922
     52          1           0        0.546456    1.818485   -0.649880
     53          1           0       -1.023858   -4.623450   -1.072109
     54          1           0       -2.455403   -3.868902   -1.774657
     55          1           0       -0.952038   -4.026694   -2.690857
     56          1           0       -2.312525   -3.574639    0.738657
     57          1           0        1.222654   -4.833134   -0.545764
     58          1           0        2.496783   -5.519528   -1.552825
     59          1           0        4.684411   -0.803574    1.105997
     60          1           0        5.368940    0.737741    1.888868
     61          1           0        4.099837    4.843961    0.014287
     62          1           0        5.391734    3.616167    0.119263
     63          1           0        4.593890    4.153844    1.869820
     64          1           0        1.766826    4.857770    1.051512
     65          1           0       -7.526095   -2.936593    1.345027
     66          1           0       -6.709913   -4.518513    1.418677
     67          1           0       -6.926043   -3.832248   -0.214675
     68          1           0       -6.736941   -0.768880    0.647241
     69          1           0       -4.845936    1.340884   -0.374681
     70          1           0       -6.299755    0.903457   -1.023193
     71          1           0       -4.920534    0.253186   -1.502760
     72          1           0       -3.859118    5.959330    1.009485
     73          1           0       -4.427861    4.605807    0.919484
     74          1           0       -0.265389    6.234479    2.037883
     75          1           0       -1.665579    7.019362    1.646418
     76          1           0       -0.307135    7.078974    0.264906
     77          1           0       -4.012999    6.277632   -1.593640
     78          1           0       -5.566821    5.866769   -0.911788
     79          1           0       -4.461731    4.534510   -1.675286
     80          1           0        3.879796   -4.358703    1.753055
     81          1           0        8.031233   -1.786400    1.684397
 ---------------------------------------------------------------------

 SCF Done:  E(RB3LYP) =  -1949.06430433     A.U. after   17 cycles

 Excitation energies and oscillator strengths:

 Excited State   1:      Singlet-A      1.6921 eV  732.72 nm  f=0.2642  <S**2>=0.000
     156 ->157         0.70742
     156 <-157        -0.11375
 This state for optimization and/or second-order correction.
 Total Energy, E(TD-HF/TD-DFT) =  -1949.00212057
 Copying the excited state density for this state as the 1-particle RhoCI density.

 The electronic state is 1-A.
 Alpha  occ. eigenvalues --  -19.19723 -19.18467 -19.14577 -19.12342 -19.11508
 Alpha  occ. eigenvalues --  -19.10995 -14.37271 -14.36429 -14.36240 -14.28712
 Alpha  occ. eigenvalues --  -10.33261 -10.32656 -10.28468 -10.27195 -10.24122
 Alpha  occ. eigenvalues --  -10.23748 -10.23438 -10.23388 -10.23279 -10.23074
 Alpha  occ. eigenvalues --  -10.22943 -10.22935 -10.22653 -10.22132 -10.21705
 Alpha  occ. eigenvalues --  -10.21329 -10.21119 -10.20871 -10.20572 -10.20480
 Alpha  occ. eigenvalues --  -10.20054 -10.19800 -10.19620 -10.19617 -10.19354
 Alpha  occ. eigenvalues --  -10.19222 -10.19190 -10.18845 -10.18729 -10.18494
 Alpha  occ. eigenvalues --  -10.18409 -10.18185 -10.14648  -1.12380  -1.07911
 Alpha  occ. eigenvalues --   -1.04650  -1.02933  -1.02695  -1.01970  -0.97331
 Alpha  occ. eigenvalues --   -0.95986  -0.95328  -0.91874  -0.82554  -0.81678
 Alpha  occ. eigenvalues --   -0.81433  -0.81205  -0.79563  -0.78797  -0.77924
 Alpha  occ. eigenvalues --   -0.77222  -0.75569  -0.74890  -0.74387  -0.72466
 Alpha  occ. eigenvalues --   -0.71359  -0.70090  -0.69033  -0.68433  -0.67569
 Alpha  occ. eigenvalues --   -0.67188  -0.65591  -0.64556  -0.63373  -0.62271
 Alpha  occ. eigenvalues --   -0.60333  -0.59881  -0.59201  -0.58128  -0.56321
 Alpha  occ. eigenvalues --   -0.55831  -0.54750  -0.54297  -0.53435  -0.52680
 Alpha  occ. eigenvalues --   -0.52326  -0.52027  -0.50892  -0.50588  -0.50244
 Alpha  occ. eigenvalues --   -0.49058  -0.48845  -0.48357  -0.47508  -0.47268
 Alpha  occ. eigenvalues --   -0.46994  -0.46403  -0.46062  -0.45905  -0.45466
 Alpha  occ. eigenvalues --   -0.45044  -0.44908  -0.44333  -0.43911  -0.43731
 Alpha  occ. eigenvalues --   -0.43373  -0.43081  -0.42614  -0.42395  -0.41957
 Alpha  occ. eigenvalues --   -0.41872  -0.41456  -0.41175  -0.41033  -0.40805
 Alpha  occ. eigenvalues --   -0.40528  -0.40263  -0.40151  -0.39700  -0.39570
 Alpha  occ. eigenvalues --   -0.39195  -0.39046  -0.38767  -0.38632  -0.38223
 Alpha  occ. eigenvalues --   -0.37895  -0.37324  -0.36951  -0.36792  -0.36354
 Alpha  occ. eigenvalues --   -0.36147  -0.35646  -0.35511  -0.35247  -0.35021
 Alpha  occ. eigenvalues --   -0.34540  -0.34355  -0.33603  -0.33347  -0.32895
 Alpha  occ. eigenvalues --   -0.32844  -0.32279  -0.31150  -0.30505  -0.30334
 Alpha  occ. eigenvalues --   -0.28051  -0.27560  -0.26352  -0.25533  -0.25061
 Alpha  occ. eigenvalues --   -0.24903  -0.24462  -0.24054  -0.23477  -0.21196
 Alpha  occ. eigenvalues --   -0.17614
 Alpha virt. eigenvalues --   -0.10689  -0.06509  -0.04459  -0.02712  -0.01602
 Alpha virt. eigenvalues --    0.00918   0.01710   0.01913   0.02814   0.03307
 Alpha virt. eigenvalues --    0.03672   0.04460   0.04973   0.05160   0.05613

 Mulliken charges:
               1
     1  O   -0.186656
     2  O   -0.218132
     3  O   -0.221878
     4  O   -0.184911
     5  O   -0.285763
     6  O   -0.193471
     7  N   -0.216600
     8  N    0.115975
     9  N   -0.117904
    10  N   -0.329225
    11  C   -0.182577
    12  C    0.099062
    13  C   -0.148273
    14  C    0.065107
    15  C   -0.153210
    16  C    0.119340
    17  C   -0.179172
    18  C   -0.122814
    19  C    0.063614
    20  C   -0.133719
    21  C    0.103740
    22  C   -0.008430
    23  C   -0.006128
    24  C    0.057530
    25  C   -0.030958
    26  C    0.138506
    27  C    0.121539
    28  C   -0.034308
    29  C   -0.029080
    30  C    0.020080
    31  C   -0.119913
    32  C    0.065331
    33  C   -0.127395
    34  C    0.050420
    35  C   -0.059429
    36  C   -0.228302
    37  C    0.136729
    38  C    0.144711
    39  C    0.192384
    40  C    0.099329
    41  C    0.175179
    42  C    0.018352
    43  C    0.066377
    44  H    0.216820
    45  H    0.082719
    46  H    0.067566
    47  H    0.015012
    48  H    0.021512
    49  H    0.039133
    50  H    0.021587
    51  H   -0.070404
    52  H    0.118888
    53  H    0.013700
    54  H    0.028709
    55  H    0.000103
    56  H    0.115493
    57  H    0.032453
    58  H    0.070017
    59  H    0.075998
    60  H    0.066338
    61  H    0.039706
    62  H    0.019415
    63  H    0.067098
    64  H    0.031560
    65  H    0.019040
    66  H    0.011436
    67  H    0.035777
    68  H   -0.007778
    69  H    0.055862
    70  H   -0.038793
    71  H   -0.031746
    72  H   -0.031932
    73  H   -0.019125
    74  H    0.037580
    75  H    0.021017
    76  H    0.053936
    77  H    0.011171
    78  H    0.019578
    79  H    0.026322
    80  H    0.222416
    81  H    0.206759
 Sum of Mulliken charges =  -0.00000

 Dipole moment (field-independent basis, Debye):
    X=              2.0430    Y=              0.8871    Z=              1.8930  Tot=              2.9230
 Quadrupole moment (field-independent basis, Debye-Ang):
   XX=           -253.6280   YY=           -243.4279   ZZ=           -253.6462
   XY=            -22.2549   XZ=             17.8022   YZ=             15.2000

 Normal termination of Gaussian 16 at Mon Jul  1 06:36:16 2019.
