 Gaussian 16, Revision A.03,
 Gaussian 16:  ES64L-G16RevA.03 25-Dec-2016

 --------------------------
 # td=(NStates=1) B3LYP/SVP
 --------------------------

 --
 TD
 --
 Symbolic Z-matrix:
 Charge =  0 Multiplicity = 1

                         Standard orientation:
 ---------------------------------------------------------------------
 Center     Atomic      Atomic             Coordinates (Angstroms)
 Number     Number       Type             X           Y           Z
 ---------------------------------------------------------------------
      1          8           0        4.218913   -5.017241   -1.654709
      2          8           0       -3.045159   -4.916240   -0.966245
      3          8           0       -7.132663   -1.386549   -1.727437
      4          8           0       -3.917416   -3.096809   -0.064168
      5          8           0       -7.536319   -0.400102    0.110959
      6          8           0        3.023969    2.163034    0.319348
      7          7           0        0.278953   -0.478022    0.522879
      8          7           0       -1.534513    1.812728    0.186551
      9          7           0        3.324336   -3.215207   -0.685956
     10          7           0        0.873756    2.748901   -0.193147
     11          6           0       -0.690154   -2.411612    1.274672
     12          6           0       -1.010243   -1.046711    0.803713
     13          6           0        0.693372   -2.588360    1.210487
     14          6           0        1.284525   -1.374914    0.660360
     15          6           0       -3.761889    1.638180    0.171737
     16          6           0       -2.513149    0.936117    0.451839
     17          6           0       -2.264002   -0.370475    0.745037
     18          6           0       -3.531721    2.988452   -0.155376
     19          6           0       -1.771144   -3.257178    1.949867
     20          6           0        5.473968   -2.893444   -1.325757
     21          6           0        3.579651   -1.923890   -0.185467
     22          6           0       -2.081399    3.057998   -0.135368
     23          6           0        4.951756   -1.647952   -0.461472
     24          6           0       -5.081078    0.792822    0.366909
     25          6           0        2.545120   -1.017403    0.334904
     26          6           0        1.406129   -3.702573    1.934208
     27          6           0        4.287848   -3.879283   -1.309913
     28          6           0       -2.211517   -4.425583    1.131273
     29          6           0       -5.318397   -0.084257   -0.838301
     30          6           0       -4.450655    4.106730   -0.392391
     31          6           0       -1.136761    4.110386   -0.361880
     32          6           0        6.859345   -3.355241   -0.907853
     33          6           0        5.746531   -0.660236   -0.053286
     34          6           0        0.264204    3.919459   -0.453759
     35          6           0        1.254318    5.093095   -0.460816
     36          6           0        2.417658    4.626850   -0.163242
     37          6           0       -3.149024   -4.014827    0.037137
     38          6           0        5.433613    0.597460    0.734757
     39          6           0       -6.796334   -0.616271   -0.781941
     40          6           0        3.797204    5.243984   -0.107897
     41          6           0        2.253049    3.129172   -0.048682
     42          6           0        0.880864    6.438997   -0.681383
     43          6           0        4.353205    5.367520    1.218984
     44          1           0        0.349194    0.320252    0.115020
     45          1           0       -3.154451   -1.186471    0.751105
     46          1           0       -2.552435   -2.602289    2.414366
     47          1           0       -1.076318   -3.738394    2.868335
     48          1           0        5.434381   -2.268237   -2.314010
     49          1           0       -4.884006    0.332657    1.407063
     50          1           0       -5.832087    1.661239    0.568188
     51          1           0        2.553860    0.068366    0.232597
     52          1           0       -0.476942    1.739506    0.311424
     53          1           0        1.441317   -4.641144    1.068924
     54          1           0        2.390871   -3.532736    2.185123
     55          1           0        0.878698   -4.102244    2.745099
     56          1           0        2.518067   -3.572513   -0.698336
     57          1           0       -1.383932   -4.909350    0.662587
     58          1           0       -2.831091   -5.238467    1.650018
     59          1           0       -4.582846   -0.882754   -0.723459
     60          1           0       -5.384391    0.393209   -1.787450
     61          1           0       -4.263725    4.974389    0.274786
     62          1           0       -5.586916    3.607295   -0.272295
     63          1           0       -4.352253    4.416408   -1.415354
     64          1           0       -1.525448    5.125609   -0.337292
     65          1           0        7.662252   -2.472160   -1.282238
     66          1           0        7.342146   -4.266436   -1.469872
     67          1           0        6.706343   -3.600788    0.136263
     68          1           0        6.692723   -0.577758   -0.565165
     69          1           0        4.908540    1.400790    0.187072
     70          1           0        6.432310    1.003367    1.093451
     71          1           0        4.702651    0.147719    1.571059
     72          1           0        3.657893    6.378431   -0.612375
     73          1           0        4.413354    4.712822   -0.793712
     74          1           0       -0.224694    6.648510   -1.298432
     75          1           0        1.820496    7.045474   -0.991378
     76          1           0        0.530284    6.941715    0.390651
     77          1           0        3.703020    5.935490    1.963978
     78          1           0        5.369712    5.694909    1.169932
     79          1           0        4.445941    4.359543    1.652854
     80          1           0       -3.747130   -4.792210   -1.572445
     81          1           0       -7.873062   -2.033361   -1.446946
 ---------------------------------------------------------------------

 SCF Done:  E(RB3LYP) =  -1949.07763048     A.U. after   17 cycles

 Excitation energies and oscillator strengths:

 Excited State   1:      Singlet-A      1.5889 eV  780.34 nm  f=0.3241  <S**2>=0.000
     156 ->157         0.71324
     156 <-157        -0.14679
 This state for optimization and/or second-order correction.
 Total Energy, E(TD-HF/TD-DFT) =  -1949.01924124
 Copying the excited state density for this state as the 1-particle RhoCI density.

 The electronic state is 1-A.
 Alpha  occ. eigenvalues --  -19.18821 -19.18277 -19.14925 -19.10987 -19.10661
 Alpha  occ. eigenvalues --  -19.09871 -14.36668 -14.36614 -14.35306 -14.29049
 Alpha  occ. eigenvalues --  -10.33666 -10.30387 -10.28939 -10.26863 -10.25764
 Alpha  occ. eigenvalues --  -10.23732 -10.23613 -10.23398 -10.22726 -10.22372
 Alpha  occ. eigenvalues --  -10.22337 -10.22148 -10.22071 -10.21412 -10.21207
 Alpha  occ. eigenvalues --  -10.20889 -10.20808 -10.20806 -10.20624 -10.20606
 Alpha  occ. eigenvalues --  -10.20449 -10.20268 -10.20235 -10.19922 -10.19850
 Alpha  occ. eigenvalues --  -10.19799 -10.19456 -10.19242 -10.18959 -10.18577
 Alpha  occ. eigenvalues --  -10.18470 -10.17982 -10.17490  -1.12125  -1.11981
 Alpha  occ. eigenvalues --   -1.05566  -1.02709  -1.00552  -0.98650  -0.98131
 Alpha  occ. eigenvalues --   -0.97261  -0.97026  -0.90528  -0.83352  -0.82141
 Alpha  occ. eigenvalues --   -0.81643  -0.81273  -0.80572  -0.79516  -0.78576
 Alpha  occ. eigenvalues --   -0.76664  -0.76610  -0.75544  -0.74138  -0.72298
 Alpha  occ. eigenvalues --   -0.71407  -0.70645  -0.69676  -0.69169  -0.67850
 Alpha  occ. eigenvalues --   -0.66867  -0.65518  -0.64364  -0.62487  -0.61909
 Alpha  occ. eigenvalues --   -0.61108  -0.60281  -0.58712  -0.58246  -0.57754
 Alpha  occ. eigenvalues --   -0.55825  -0.54713  -0.54189  -0.53923  -0.53449
 Alpha  occ. eigenvalues --   -0.52650  -0.51479  -0.51140  -0.50589  -0.50133
 Alpha  occ. eigenvalues --   -0.49538  -0.48997  -0.48733  -0.48590  -0.47726
 Alpha  occ. eigenvalues --   -0.46983  -0.46743  -0.46006  -0.45819  -0.44878
 Alpha  occ. eigenvalues --   -0.44746  -0.44441  -0.44410  -0.44161  -0.44098
 Alpha  occ. eigenvalues --   -0.43741  -0.43179  -0.43092  -0.42828  -0.42397
 Alpha  occ. eigenvalues --   -0.42279  -0.42165  -0.41724  -0.41512  -0.41047
 Alpha  occ. eigenvalues --   -0.40602  -0.39938  -0.39907  -0.39674  -0.39554
 Alpha  occ. eigenvalues --   -0.39198  -0.38646  -0.38513  -0.38225  -0.37784
 Alpha  occ. eigenvalues --   -0.37743  -0.37444  -0.37368  -0.36954  -0.36528
 Alpha  occ. eigenvalues --   -0.35938  -0.35782  -0.34869  -0.34711  -0.34659
 Alpha  occ. eigenvalues --   -0.34297  -0.34012  -0.33489  -0.32697  -0.32076
 Alpha  occ. eigenvalues --   -0.31749  -0.31600  -0.31393  -0.30156  -0.29660
 Alpha  occ. eigenvalues --   -0.27680  -0.26858  -0.26730  -0.26275  -0.25647
 Alpha  occ. eigenvalues --   -0.25309  -0.24847  -0.24206  -0.23826  -0.20983
 Alpha  occ. eigenvalues --   -0.16669
 Alpha virt. eigenvalues --   -0.10398  -0.06274  -0.04362  -0.01372   0.00520
 Alpha virt. eigenvalues --    0.01301   0.01649   0.02957   0.03308   0.03954
 Alpha virt. eigenvalues --    0.04450   0.04946   0.05261   0.05694   0.05776

 Mulliken charges:
               1
     1  O   -0.178850
     2  O   -0.165375
     3  O   -0.148735
     4  O   -0.208962
     5  O   -0.211430
     6  O   -0.281189
     7  N   -0.008061
     8  N   -0.116007
     9  N    0.022231
    10  N   -0.312912
    11  C   -0.102503
    12  C    0.014114
    13  C   -0.169587
    14  C    0.069655
    15  C   -0.145139
    16  C    0.105072
    17  C   -0.107126
    18  C   -0.108182
    19  C    0.032458
    20  C   -0.118679
    21  C    0.078709
    22  C    0.077372
    23  C   -0.025303
    24  C    0.039903
    25  C   -0.068920
    26  C    0.100983
    27  C    0.091457
    28  C    0.074995
    29  C    0.066406
    30  C    0.070279
    31  C   -0.134120
    32  C    0.010902
    33  C   -0.163792
    34  C    0.119160
    35  C   -0.059584
    36  C   -0.143429
    37  C    0.094995
    38  C    0.038359
    39  C    0.057165
    40  C    0.052813
    41  C    0.187836
    42  C   -0.054833
    43  C    0.039722
    44  H    0.046321
    45  H    0.073045
    46  H    0.042372
    47  H    0.029833
    48  H    0.058822
    49  H    0.043136
    50  H    0.019628
    51  H    0.020179
    52  H    0.160890
    53  H    0.024726
    54  H    0.010330
    55  H    0.001417
    56  H    0.040182
    57  H    0.029106
    58  H    0.059700
    59  H    0.053599
    60  H    0.016988
    61  H    0.041470
    62  H    0.038554
    63  H    0.022013
    64  H   -0.040416
    65  H    0.041671
    66  H    0.045175
    67  H    0.031798
    68  H   -0.013774
    69  H    0.076961
    70  H    0.009871
    71  H    0.043092
    72  H   -0.003014
    73  H    0.008216
    74  H    0.055042
    75  H    0.044018
    76  H    0.047614
    77  H    0.019375
    78  H    0.000980
    79  H    0.018061
    80  H    0.160816
    81  H    0.210333
 Sum of Mulliken charges =  -0.00000

 Dipole moment (field-independent basis, Debye):
    X=             -2.2068    Y=             -0.1780    Z=             -0.2713  Tot=              2.2305
 Quadrupole moment (field-independent basis, Debye-Ang):
   XX=           -251.4712   YY=           -236.7425   ZZ=           -255.2019
   XY=             26.0616   XZ=             10.6676   YZ=            -10.8293

 Normal termination of Gaussian 16 at Fri Jun 28 23:31:45 2019.
