 Gaussian 16, Revision A.03,
 Gaussian 16:  ES64L-G16RevA.03 25-Dec-2016

 --------------------------
 # td=(NStates=1) B3LYP/SVP
 --------------------------

 --
 TD
 --
 Symbolic Z-matrix:
 Charge =  0 Multiplicity = 1

                         Standard orientation:
 ---------------------------------------------------------------------
 Center     Atomic      Atomic             Coordinates (Angstroms)
 Number     Number       Type             X           Y           Z
 ---------------------------------------------------------------------
      1          8           0        4.155363   -4.927619   -1.923540
      2          8           0       -3.230154   -4.768253   -1.084002
      3          8           0       -6.918166   -1.707673   -1.825321
      4          8           0       -3.879331   -3.021497    0.155408
      5          8           0       -7.606782   -0.248399   -0.176228
      6          8           0        2.968292    2.364081    0.377257
      7          7           0        0.303353   -0.516093    0.645680
      8          7           0       -1.447457    1.893118    0.415878
      9          7           0        3.349123   -3.165505   -0.798537
     10          7           0        0.771479    3.051161    0.135312
     11          6           0       -0.589232   -2.406152    1.487120
     12          6           0       -0.933454   -1.103347    1.056042
     13          6           0        0.688834   -2.632105    1.331548
     14          6           0        1.284167   -1.386072    0.777335
     15          6           0       -3.684724    1.472509    0.312488
     16          6           0       -2.409242    0.873707    0.606269
     17          6           0       -2.184873   -0.433779    1.025393
     18          6           0       -3.479169    2.827324   -0.030233
     19          6           0       -1.733983   -3.442710    1.932143
     20          6           0        5.562382   -2.935693   -1.264025
     21          6           0        3.547692   -1.834417   -0.273722
     22          6           0       -1.972458    2.997964    0.013878
     23          6           0        5.001558   -1.646019   -0.498427
     24          6           0       -4.989592    0.796684    0.428404
     25          6           0        2.679651   -1.138895    0.504912
     26          6           0        1.304699   -3.893183    1.735422
     27          6           0        4.307120   -3.912767   -1.356612
     28          6           0       -2.123073   -4.535456    0.882348
     29          6           0       -5.315719    0.054491   -0.850836
     30          6           0       -4.487416    3.711779   -0.568311
     31          6           0       -1.295759    4.189309   -0.193951
     32          6           0        6.836301   -3.581559   -0.786508
     33          6           0        5.815653   -0.562937   -0.202251
     34          6           0        0.151731    4.097173   -0.251886
     35          6           0        1.152514    5.155552   -0.544689
     36          6           0        2.364077    4.664178   -0.221596
     37          6           0       -3.163665   -4.022096   -0.000032
     38          6           0        5.482102    0.606961    0.640332
     39          6           0       -6.713096   -0.584050   -0.979531
     40          6           0        3.747729    5.253570   -0.329889
     41          6           0        2.044428    3.214708    0.155814
     42          6           0        0.686697    6.529781   -1.004378
     43          6           0        4.310200    5.657844    1.021595
     44          1           0        0.696260    0.468673    0.299894
     45          1           0       -2.924193   -0.978755    1.028063
     46          1           0       -2.680724   -2.845962    2.366852
     47          1           0       -1.369296   -4.034076    2.854403
     48          1           0        5.609658   -2.639446   -2.439119
     49          1           0       -4.879571    0.119503    1.311686
     50          1           0       -5.875908    1.325822    0.824092
     51          1           0        3.054516   -0.103007    0.837350
     52          1           0       -0.484645    2.031752    0.426490
     53          1           0        1.197663   -4.585288    0.895828
     54          1           0        2.375935   -4.003739    1.964112
     55          1           0        1.043030   -4.247030    2.780052
     56          1           0        2.377411   -3.522611   -0.619949
     57          1           0       -1.139292   -4.809314    0.263794
     58          1           0       -2.708444   -5.172813    1.642141
     59          1           0       -4.594648   -0.766689   -0.866548
     60          1           0       -5.150243    0.604543   -1.888848
     61          1           0       -4.481514    4.821112   -0.010317
     62          1           0       -5.518300    3.502908   -0.202248
     63          1           0       -4.497470    4.048293   -1.698033
     64          1           0       -1.967641    5.031285   -0.426757
     65          1           0        7.667262   -3.085060   -0.990988
     66          1           0        7.057523   -4.453170   -1.494944
     67          1           0        6.690353   -3.837841    0.257148
     68          1           0        6.812923   -0.789482   -0.370569
     69          1           0        4.757215    1.189697    0.113849
     70          1           0        6.387652    1.121509    0.994366
     71          1           0        5.016044    0.632095    1.697595
     72          1           0        3.684082    6.172888   -0.695427
     73          1           0        4.197277    4.584114   -1.000329
     74          1           0       -0.242894    6.483621   -1.663727
     75          1           0        1.585490    7.118618   -1.570507
     76          1           0        0.208724    7.099605   -0.049006
     77          1           0        3.616824    6.124124    1.725615
     78          1           0        5.239210    6.328992    0.911902
     79          1           0        4.862649    4.899576    1.658502
     80          1           0       -3.893774   -4.298008   -1.704891
     81          1           0       -7.830881   -2.214118   -1.463437
 ---------------------------------------------------------------------

 SCF Done:  E(RB3LYP) =  -1949.05298381     A.U. after   16 cycles

 Excitation energies and oscillator strengths:

 Excited State   1:      Singlet-A      1.9355 eV  640.58 nm  f=0.3327  <S**2>=0.000
     156 ->157         0.70642
     156 <-157        -0.10760
 This state for optimization and/or second-order correction.
 Total Energy, E(TD-HF/TD-DFT) =  -1948.98185539
 Copying the excited state density for this state as the 1-particle RhoCI density.

 The electronic state is 1-A.
 Alpha  occ. eigenvalues --  -19.20442 -19.18501 -19.13950 -19.12719 -19.10883
 Alpha  occ. eigenvalues --  -19.09661 -14.39562 -14.36651 -14.35476 -14.28858
 Alpha  occ. eigenvalues --  -10.33404 -10.32649 -10.28670 -10.26148 -10.24998
 Alpha  occ. eigenvalues --  -10.24456 -10.23623 -10.23568 -10.23476 -10.23471
 Alpha  occ. eigenvalues --  -10.23342 -10.22890 -10.21887 -10.21464 -10.21365
 Alpha  occ. eigenvalues --  -10.21245 -10.20543 -10.20522 -10.20306 -10.20238
 Alpha  occ. eigenvalues --  -10.20123 -10.20050 -10.19868 -10.19848 -10.19462
 Alpha  occ. eigenvalues --  -10.19233 -10.19160 -10.19007 -10.18304 -10.18279
 Alpha  occ. eigenvalues --  -10.18113 -10.17621 -10.17268  -1.11722  -1.05696
 Alpha  occ. eigenvalues --   -1.05398  -1.00921  -1.00866  -0.99537  -0.99006
 Alpha  occ. eigenvalues --   -0.97560  -0.94667  -0.94185  -0.83751  -0.82967
 Alpha  occ. eigenvalues --   -0.81177  -0.80204  -0.80057  -0.79425  -0.78685
 Alpha  occ. eigenvalues --   -0.77384  -0.76891  -0.75238  -0.74758  -0.73031
 Alpha  occ. eigenvalues --   -0.71069  -0.69771  -0.68635  -0.68336  -0.67868
 Alpha  occ. eigenvalues --   -0.67327  -0.65902  -0.64304  -0.62887  -0.62277
 Alpha  occ. eigenvalues --   -0.60848  -0.60609  -0.58413  -0.57676  -0.57065
 Alpha  occ. eigenvalues --   -0.55995  -0.55741  -0.55260  -0.53582  -0.53261
 Alpha  occ. eigenvalues --   -0.52346  -0.52134  -0.51040  -0.50277  -0.49920
 Alpha  occ. eigenvalues --   -0.49797  -0.49150  -0.48379  -0.47991  -0.47483
 Alpha  occ. eigenvalues --   -0.46871  -0.46844  -0.46526  -0.45904  -0.45628
 Alpha  occ. eigenvalues --   -0.45207  -0.44945  -0.44456  -0.44291  -0.43779
 Alpha  occ. eigenvalues --   -0.43407  -0.43304  -0.43024  -0.42807  -0.42738
 Alpha  occ. eigenvalues --   -0.42125  -0.42054  -0.41702  -0.41447  -0.41313
 Alpha  occ. eigenvalues --   -0.40925  -0.40830  -0.40427  -0.39770  -0.39338
 Alpha  occ. eigenvalues --   -0.39231  -0.39077  -0.38861  -0.38565  -0.38347
 Alpha  occ. eigenvalues --   -0.38112  -0.37658  -0.37065  -0.36723  -0.36546
 Alpha  occ. eigenvalues --   -0.35452  -0.35274  -0.34866  -0.34697  -0.34304
 Alpha  occ. eigenvalues --   -0.33922  -0.33552  -0.33277  -0.33094  -0.32637
 Alpha  occ. eigenvalues --   -0.32370  -0.32050  -0.31469  -0.30240  -0.29588
 Alpha  occ. eigenvalues --   -0.27586  -0.27326  -0.27207  -0.26110  -0.25728
 Alpha  occ. eigenvalues --   -0.25191  -0.24418  -0.24083  -0.23711  -0.22256
 Alpha  occ. eigenvalues --   -0.18019
 Alpha virt. eigenvalues --   -0.10203  -0.06143  -0.04313  -0.02119  -0.01672
 Alpha virt. eigenvalues --    0.00776   0.01652   0.01803   0.02387   0.03343
 Alpha virt. eigenvalues --    0.03817   0.04485   0.04814   0.05297   0.05917

 Mulliken charges:
               1
     1  O   -0.165189
     2  O   -0.170161
     3  O   -0.302809
     4  O   -0.255835
     5  O   -0.263471
     6  O   -0.281536
     7  N   -0.102071
     8  N    0.039201
     9  N   -0.146868
    10  N   -0.169299
    11  C   -0.051754
    12  C    0.062567
    13  C   -0.125322
    14  C    0.010373
    15  C   -0.069736
    16  C    0.096348
    17  C    0.117340
    18  C   -0.080546
    19  C    0.000994
    20  C   -0.183035
    21  C    0.138842
    22  C   -0.027339
    23  C   -0.051318
    24  C    0.083613
    25  C   -0.133286
    26  C    0.034184
    27  C    0.114427
    28  C    0.034544
    29  C   -0.007640
    30  C   -0.012748
    31  C   -0.083521
    32  C    0.137971
    33  C   -0.053664
    34  C    0.068557
    35  C   -0.082357
    36  C   -0.242312
    37  C    0.102854
    38  C    0.025575
    39  C    0.193676
    40  C    0.256951
    41  C    0.103483
    42  C    0.007614
    43  C   -0.054994
    44  H    0.203715
    45  H   -0.156042
    46  H    0.046506
    47  H    0.011154
    48  H    0.056767
    49  H    0.017465
    50  H    0.025611
    51  H    0.051773
    52  H    0.066536
    53  H    0.025248
    54  H    0.007983
    55  H    0.035396
    56  H    0.121510
    57  H    0.084840
    58  H    0.070155
    59  H    0.036998
    60  H    0.057135
    61  H    0.013589
    62  H    0.022851
    63  H    0.055701
    64  H   -0.020080
    65  H   -0.026291
    66  H    0.019580
    67  H    0.023544
    68  H   -0.032651
    69  H    0.065837
    70  H    0.000366
    71  H    0.035732
    72  H   -0.059993
    73  H    0.011644
    74  H    0.024931
    75  H    0.050331
    76  H    0.044057
    77  H    0.021013
    78  H    0.004804
    79  H    0.015075
    80  H    0.211432
    81  H    0.243475
 Sum of Mulliken charges =  -0.00000

 Dipole moment (field-independent basis, Debye):
    X=             -1.7707    Y=             -0.5283    Z=              0.3424  Tot=              1.8793
 Quadrupole moment (field-independent basis, Debye-Ang):
   XX=           -255.6524   YY=           -244.0381   ZZ=           -254.0087
   XY=             17.8249   XZ=             11.1153   YZ=            -15.9767

 Normal termination of Gaussian 16 at Sun Jun 30 01:10:26 2019.
