 Gaussian 16, Revision A.03,
 Gaussian 16:  ES64L-G16RevA.03 25-Dec-2016

 --------------------------
 # td=(NStates=1) B3LYP/SVP
 --------------------------

 --
 TD
 --
 Symbolic Z-matrix:
 Charge =  0 Multiplicity = 1

                         Standard orientation:
 ---------------------------------------------------------------------
 Center     Atomic      Atomic             Coordinates (Angstroms)
 Number     Number       Type             X           Y           Z
 ---------------------------------------------------------------------
      1          8           0        4.030123   -4.978954   -1.814134
      2          8           0       -3.480808   -4.704550   -0.974070
      3          8           0       -6.840676   -1.630275   -1.892780
      4          8           0       -3.923180   -2.914944    0.274628
      5          8           0       -7.610717   -0.500369    0.008386
      6          8           0        3.111802    2.351332    0.363142
      7          7           0        0.280804   -0.401848    0.569445
      8          7           0       -1.558534    1.926194    0.399340
      9          7           0        3.251040   -3.290396   -0.691627
     10          7           0        0.856701    2.906204    0.142618
     11          6           0       -0.640894   -2.255497    1.489759
     12          6           0       -0.896185   -0.946259    0.974568
     13          6           0        0.652063   -2.576788    1.262963
     14          6           0        1.290925   -1.380472    0.719489
     15          6           0       -3.754839    1.596337    0.256372
     16          6           0       -2.509678    0.952852    0.471098
     17          6           0       -2.196426   -0.285594    0.894286
     18          6           0       -3.521546    2.980047   -0.109756
     19          6           0       -1.650898   -3.274218    2.124170
     20          6           0        5.455742   -3.034119   -1.364014
     21          6           0        3.589725   -1.988224   -0.177167
     22          6           0       -2.057349    3.133107   -0.100571
     23          6           0        4.917859   -1.827547   -0.473572
     24          6           0       -5.032239    0.888855    0.207856
     25          6           0        2.611428   -1.000912    0.435095
     26          6           0        1.367827   -3.828128    1.768293
     27          6           0        4.192520   -3.851386   -1.435679
     28          6           0       -2.333651   -4.372960    1.036160
     29          6           0       -5.376813   -0.079996   -0.847612
     30          6           0       -4.395329    4.097546   -0.681630
     31          6           0       -1.073374    4.200293   -0.362451
     32          6           0        6.728368   -3.813764   -0.967308
     33          6           0        5.814650   -0.837879   -0.172593
     34          6           0        0.279353    4.075073   -0.201090
     35          6           0        1.296233    5.061774   -0.484636
     36          6           0        2.490452    4.612279   -0.197828
     37          6           0       -3.291211   -3.948197    0.118519
     38          6           0        5.549167    0.386549    0.623538
     39          6           0       -6.743226   -0.644705   -0.827760
     40          6           0        3.819276    5.235239   -0.176340
     41          6           0        2.280468    3.106303    0.074945
     42          6           0        0.914329    6.504935   -0.931287
     43          6           0        4.451541    5.474173    1.202234
     44          1           0        0.317136    0.381998   -0.080805
     45          1           0       -3.174902   -0.839369    1.183314
     46          1           0       -2.594119   -2.895880    2.770795
     47          1           0       -1.051138   -4.133479    2.854958
     48          1           0        5.676627   -2.786450   -2.546269
     49          1           0       -5.207598    0.262456    1.149201
     50          1           0       -5.889654    1.565258    0.210497
     51          1           0        2.886149    0.125089    0.478748
     52          1           0       -0.490447    1.959149    0.518032
     53          1           0        1.377112   -4.668294    0.955757
     54          1           0        2.365997   -3.615157    1.979770
     55          1           0        0.917130   -4.283585    2.630311
     56          1           0        2.298887   -3.655006   -0.737627
     57          1           0       -1.570453   -4.989044    0.392413
     58          1           0       -2.922894   -5.004561    1.734497
     59          1           0       -4.693081   -0.980733   -0.827233
     60          1           0       -5.417181    0.658947   -1.660175
     61          1           0       -4.187205    5.181986   -0.233098
     62          1           0       -5.462273    4.043013   -0.371381
     63          1           0       -4.301017    4.290266   -1.787181
     64          1           0       -1.409720    5.229704   -0.609039
     65          1           0        7.770823   -3.099270   -1.270442
     66          1           0        6.795875   -4.712578   -1.628288
     67          1           0        6.723853   -4.075388   -0.006742
     68          1           0        6.915841   -1.107930   -0.536813
     69          1           0        5.107625    1.048761    0.167706
     70          1           0        6.648333    0.830680    1.027049
     71          1           0        4.814059    0.411655    1.535782
     72          1           0        3.892358    6.184638   -0.796927
     73          1           0        4.431963    4.428198   -0.460667
     74          1           0        0.492052    6.579065   -1.767205
     75          1           0        1.703632    7.438690   -0.869871
     76          1           0        0.098437    6.807152   -0.173238
     77          1           0        3.647511    6.123965    1.879906
     78          1           0        5.443775    6.060084    1.019118
     79          1           0        4.618031    4.552688    1.743621
     80          1           0       -4.307352   -4.503149   -1.609361
     81          1           0       -7.736230   -1.924865   -1.807229
 ---------------------------------------------------------------------

 SCF Done:  E(RB3LYP) =  -1949.04166413     A.U. after   17 cycles

 Excitation energies and oscillator strengths:

 Excited State   1:      Singlet-A      1.7071 eV  726.30 nm  f=0.4110  <S**2>=0.000
     156 ->157         0.71231
     156 <-157        -0.13974
 This state for optimization and/or second-order correction.
 Total Energy, E(TD-HF/TD-DFT) =  -1948.97893020
 Copying the excited state density for this state as the 1-particle RhoCI density.

 The electronic state is 1-A.
 Alpha  occ. eigenvalues --  -19.19311 -19.16916 -19.14157 -19.12622 -19.11392
 Alpha  occ. eigenvalues --  -19.09922 -14.38290 -14.37318 -14.34773 -14.27974
 Alpha  occ. eigenvalues --  -10.32599 -10.32476 -10.28159 -10.26503 -10.25860
 Alpha  occ. eigenvalues --  -10.25450 -10.24471 -10.24319 -10.24162 -10.22796
 Alpha  occ. eigenvalues --  -10.22359 -10.22201 -10.21679 -10.21660 -10.21479
 Alpha  occ. eigenvalues --  -10.21350 -10.21206 -10.21094 -10.21091 -10.20978
 Alpha  occ. eigenvalues --  -10.20730 -10.20560 -10.20395 -10.20327 -10.20125
 Alpha  occ. eigenvalues --  -10.19495 -10.19296 -10.19014 -10.18731 -10.18658
 Alpha  occ. eigenvalues --  -10.18504 -10.18237 -10.17460  -1.09556  -1.07597
 Alpha  occ. eigenvalues --   -1.05288  -1.04841  -1.00210  -1.00164  -0.98832
 Alpha  occ. eigenvalues --   -0.96734  -0.95314  -0.91297  -0.82711  -0.82295
 Alpha  occ. eigenvalues --   -0.81860  -0.80740  -0.79623  -0.78833  -0.77960
 Alpha  occ. eigenvalues --   -0.77323  -0.76250  -0.75212  -0.73887  -0.72788
 Alpha  occ. eigenvalues --   -0.71486  -0.70987  -0.68751  -0.68581  -0.67660
 Alpha  occ. eigenvalues --   -0.66990  -0.65741  -0.65035  -0.62592  -0.61329
 Alpha  occ. eigenvalues --   -0.60681  -0.58390  -0.58243  -0.57821  -0.57621
 Alpha  occ. eigenvalues --   -0.55907  -0.54887  -0.53992  -0.53489  -0.52970
 Alpha  occ. eigenvalues --   -0.52373  -0.51446  -0.50705  -0.50022  -0.49842
 Alpha  occ. eigenvalues --   -0.49703  -0.49212  -0.48118  -0.47507  -0.47394
 Alpha  occ. eigenvalues --   -0.47123  -0.46784  -0.45924  -0.45642  -0.45139
 Alpha  occ. eigenvalues --   -0.44749  -0.44630  -0.44185  -0.44008  -0.43656
 Alpha  occ. eigenvalues --   -0.43503  -0.43192  -0.42876  -0.42234  -0.41981
 Alpha  occ. eigenvalues --   -0.41699  -0.41331  -0.41209  -0.40933  -0.40920
 Alpha  occ. eigenvalues --   -0.40586  -0.40393  -0.40213  -0.40092  -0.39666
 Alpha  occ. eigenvalues --   -0.39357  -0.39197  -0.39021  -0.38609  -0.37766
 Alpha  occ. eigenvalues --   -0.37445  -0.37060  -0.36948  -0.36649  -0.36457
 Alpha  occ. eigenvalues --   -0.36006  -0.35861  -0.35633  -0.35289  -0.35240
 Alpha  occ. eigenvalues --   -0.34792  -0.34408  -0.34186  -0.33845  -0.33519
 Alpha  occ. eigenvalues --   -0.32652  -0.32310  -0.32289  -0.29904  -0.28625
 Alpha  occ. eigenvalues --   -0.28182  -0.28070  -0.27058  -0.26491  -0.25909
 Alpha  occ. eigenvalues --   -0.25335  -0.24390  -0.24150  -0.22925  -0.20970
 Alpha  occ. eigenvalues --   -0.17416
 Alpha virt. eigenvalues --   -0.10806  -0.06488  -0.04423  -0.01511  -0.00771
 Alpha virt. eigenvalues --   -0.00632   0.01078   0.01795   0.02438   0.03601
 Alpha virt. eigenvalues --    0.03788   0.04347   0.04801   0.05143   0.05721

 Mulliken charges:
               1
     1  O   -0.210669
     2  O   -0.240884
     3  O   -0.247588
     4  O   -0.246582
     5  O   -0.208496
     6  O   -0.152076
     7  N   -0.065605
     8  N   -0.145325
     9  N   -0.091977
    10  N   -0.362322
    11  C   -0.031225
    12  C    0.042188
    13  C   -0.144040
    14  C    0.090556
    15  C   -0.034133
    16  C    0.079640
    17  C   -0.067534
    18  C   -0.087024
    19  C   -0.017974
    20  C   -0.112902
    21  C    0.090140
    22  C    0.081369
    23  C   -0.036123
    24  C    0.019404
    25  C   -0.147625
    26  C    0.113262
    27  C    0.068081
    28  C   -0.019422
    29  C    0.050845
    30  C    0.022251
    31  C   -0.105985
    32  C    0.043725
    33  C   -0.121785
    34  C    0.092233
    35  C   -0.081255
    36  C   -0.193728
    37  C    0.133582
    38  C    0.110009
    39  C    0.133973
    40  C    0.129466
    41  C    0.144009
    42  C    0.119123
    43  C   -0.067410
    44  H    0.147923
    45  H    0.039532
    46  H    0.058924
    47  H    0.042192
    48  H    0.060588
    49  H    0.014205
    50  H   -0.004890
    51  H    0.070022
    52  H    0.153004
    53  H    0.028014
    54  H    0.013909
    55  H    0.007101
    56  H    0.133343
    57  H    0.056723
    58  H    0.057616
    59  H    0.075559
    60  H    0.026352
    61  H    0.026768
    62  H    0.018732
    63  H    0.045063
    64  H   -0.032329
    65  H    0.036881
    66  H    0.044713
    67  H   -0.002766
    68  H    0.028221
    69  H   -0.038824
    70  H    0.024672
    71  H    0.048039
    72  H    0.012275
    73  H   -0.013283
    74  H   -0.044346
    75  H    0.033446
    76  H    0.022676
    77  H    0.020083
    78  H    0.032020
    79  H    0.028022
    80  H    0.247227
    81  H    0.158419
 Sum of Mulliken charges =  -0.00000

 Dipole moment (field-independent basis, Debye):
    X=             -1.4295    Y=             -0.9377    Z=             -0.8467  Tot=              1.9078
 Quadrupole moment (field-independent basis, Debye-Ang):
   XX=           -247.1718   YY=           -242.9892   ZZ=           -255.6327
   XY=             14.7136   XZ=             11.5209   YZ=            -16.4252

 Normal termination of Gaussian 16 at Fri Jun 28 16:44:59 2019.
