 Gaussian 16, Revision A.03,
 Gaussian 16:  ES64L-G16RevA.03 25-Dec-2016

 --------------------------
 # td=(NStates=1) B3LYP/SVP
 --------------------------

 --
 TD
 --
 Symbolic Z-matrix:
 Charge =  0 Multiplicity = 1

                         Standard orientation:
 ---------------------------------------------------------------------
 Center     Atomic      Atomic             Coordinates (Angstroms)
 Number     Number       Type             X           Y           Z
 ---------------------------------------------------------------------
      1          8           0        4.596934   -4.640282   -1.849005
      2          8           0       -2.445676   -5.023609   -0.947882
      3          8           0       -6.933609   -1.775624   -1.993058
      4          8           0       -3.508443   -3.334874    0.083150
      5          8           0       -7.673463   -0.773006   -0.131316
      6          8           0        2.836251    2.580755    0.514544
      7          7           0        0.286302   -0.581220    0.479118
      8          7           0       -1.739694    1.690186    0.327223
      9          7           0        3.398749   -3.043728   -0.693888
     10          7           0        0.601968    2.919150   -0.022916
     11          6           0       -0.458662   -2.411598    1.401805
     12          6           0       -0.843395   -1.194346    0.985975
     13          6           0        0.940326   -2.577164    1.235153
     14          6           0        1.397861   -1.340584    0.524492
     15          6           0       -3.942603    1.263614    0.317687
     16          6           0       -2.592021    0.645642    0.551899
     17          6           0       -2.271489   -0.703204    0.843024
     18          6           0       -3.718888    2.586098   -0.020381
     19          6           0       -1.334758   -3.484775    2.134146
     20          6           0        5.606660   -2.575075   -1.349231
     21          6           0        3.669436   -1.756964   -0.180423
     22          6           0       -2.277195    2.814143   -0.044491
     23          6           0        5.146073   -1.390708   -0.471066
     24          6           0       -5.175492    0.567083    0.367575
     25          6           0        2.719145   -0.880292    0.207944
     26          6           0        1.643753   -3.697466    1.757351
     27          6           0        4.579469   -3.490474   -1.339343
     28          6           0       -1.806383   -4.596875    1.334005
     29          6           0       -5.352687   -0.373072   -0.847107
     30          6           0       -4.697058    3.622222   -0.286884
     31          6           0       -1.556534    4.089461   -0.294935
     32          6           0        7.029124   -3.127931   -1.039172
     33          6           0        5.829869   -0.302523   -0.048634
     34          6           0       -0.094453    4.068621   -0.306096
     35          6           0        0.831929    5.263339   -0.432866
     36          6           0        2.017911    4.710653   -0.227984
     37          6           0       -2.629472   -4.250141    0.083379
     38          6           0        5.451037    0.905176    0.676581
     39          6           0       -6.746809   -0.892504   -0.962992
     40          6           0        3.397321    5.503034   -0.232210
     41          6           0        1.915165    3.331728    0.108480
     42          6           0        0.264152    6.610057   -0.886353
     43          6           0        3.824821    5.982301    1.211870
     44          1           0        0.327033    0.330186    0.005372
     45          1           0       -3.137574   -1.325456    1.068784
     46          1           0       -1.989602   -2.892584    2.796709
     47          1           0       -0.779557   -4.136386    2.906241
     48          1           0        5.609446   -2.205724   -2.343630
     49          1           0       -5.374159    0.059630    1.360556
     50          1           0       -5.908032    1.507676    0.283979
     51          1           0        2.933970    0.204874    0.025406
     52          1           0       -0.742658    1.553691    0.347606
     53          1           0        1.768989   -4.566595    1.130599
     54          1           0        2.741785   -3.293655    2.209861
     55          1           0        1.035729   -4.219590    2.571520
     56          1           0        2.387850   -3.494408   -0.804354
     57          1           0       -1.008338   -5.499906    0.937128
     58          1           0       -2.488227   -5.571888    1.795387
     59          1           0       -4.668790   -1.308320   -0.788875
     60          1           0       -5.359803    0.162382   -1.834375
     61          1           0       -5.009962    4.474282    0.523619
     62          1           0       -5.846227    3.335289   -0.772383
     63          1           0       -4.273979    4.306853   -1.351276
     64          1           0       -2.066271    4.951329   -0.935082
     65          1           0        7.883506   -2.386285   -1.246374
     66          1           0        7.365970   -3.954285   -1.595868
     67          1           0        7.073497   -3.544284   -0.110000
     68          1           0        6.872943   -0.283085   -0.526549
     69          1           0        4.660088    1.611982    0.100749
     70          1           0        6.233421    1.371049    1.111384
     71          1           0        4.979015    0.751032    1.794485
     72          1           0        3.259799    6.344812   -0.913379
     73          1           0        4.057649    4.841902   -0.600996
     74          1           0       -0.396350    6.421604   -1.531032
     75          1           0        1.266083    7.140197   -1.255090
     76          1           0       -0.046235    7.256941   -0.133810
     77          1           0        3.198571    6.811324    1.533049
     78          1           0        4.994907    6.311806    1.375583
     79          1           0        3.754966    5.163426    2.020273
     80          1           0       -2.831334   -4.821515   -1.751839
     81          1           0       -7.882278   -2.070719   -2.068790
 ---------------------------------------------------------------------

 SCF Done:  E(RB3LYP) =  -1949.01995815     A.U. after   17 cycles

 Excitation energies and oscillator strengths:

 Excited State   1:      Singlet-A      1.7250 eV  718.75 nm  f=0.2825  <S**2>=0.000
     156 ->157         0.70681
     156 <-157        -0.10060
 This state for optimization and/or second-order correction.
 Total Energy, E(TD-HF/TD-DFT) =  -1948.95656600
 Copying the excited state density for this state as the 1-particle RhoCI density.

 The electronic state is 1-A.
 Alpha  occ. eigenvalues --  -19.20280 -19.17510 -19.13064 -19.11610 -19.09897
 Alpha  occ. eigenvalues --  -19.09782 -14.38338 -14.37601 -14.37424 -14.28451
 Alpha  occ. eigenvalues --  -10.33958 -10.31759 -10.28758 -10.25695 -10.25285
 Alpha  occ. eigenvalues --  -10.24906 -10.24279 -10.23958 -10.23903 -10.23846
 Alpha  occ. eigenvalues --  -10.23431 -10.23158 -10.23038 -10.22079 -10.21891
 Alpha  occ. eigenvalues --  -10.20926 -10.20872 -10.20779 -10.20712 -10.20678
 Alpha  occ. eigenvalues --  -10.20480 -10.20318 -10.20194 -10.19962 -10.19455
 Alpha  occ. eigenvalues --  -10.19381 -10.19238 -10.19121 -10.18610 -10.18579
 Alpha  occ. eigenvalues --  -10.18555 -10.18378 -10.18094  -1.12571  -1.07505
 Alpha  occ. eigenvalues --   -1.01432  -1.00742  -0.99626  -0.99579  -0.98994
 Alpha  occ. eigenvalues --   -0.97563  -0.93325  -0.91066  -0.83433  -0.82868
 Alpha  occ. eigenvalues --   -0.82110  -0.80743  -0.79282  -0.78941  -0.78402
 Alpha  occ. eigenvalues --   -0.77510  -0.76479  -0.75171  -0.73998  -0.72202
 Alpha  occ. eigenvalues --   -0.71201  -0.70827  -0.69830  -0.69594  -0.68779
 Alpha  occ. eigenvalues --   -0.67770  -0.66207  -0.65004  -0.63168  -0.61782
 Alpha  occ. eigenvalues --   -0.60754  -0.59717  -0.59092  -0.57951  -0.57206
 Alpha  occ. eigenvalues --   -0.56284  -0.55865  -0.54708  -0.54146  -0.53087
 Alpha  occ. eigenvalues --   -0.52099  -0.51427  -0.50870  -0.50098  -0.49809
 Alpha  occ. eigenvalues --   -0.49157  -0.48946  -0.48610  -0.48409  -0.47246
 Alpha  occ. eigenvalues --   -0.46612  -0.46299  -0.45881  -0.45556  -0.45265
 Alpha  occ. eigenvalues --   -0.45015  -0.44622  -0.44279  -0.44033  -0.43915
 Alpha  occ. eigenvalues --   -0.43549  -0.43152  -0.42890  -0.42534  -0.42273
 Alpha  occ. eigenvalues --   -0.42085  -0.41880  -0.41270  -0.41165  -0.40794
 Alpha  occ. eigenvalues --   -0.40476  -0.40280  -0.40153  -0.39552  -0.39481
 Alpha  occ. eigenvalues --   -0.39197  -0.38769  -0.38568  -0.38331  -0.38215
 Alpha  occ. eigenvalues --   -0.37598  -0.37326  -0.36841  -0.36722  -0.35907
 Alpha  occ. eigenvalues --   -0.35740  -0.35118  -0.34709  -0.34683  -0.33748
 Alpha  occ. eigenvalues --   -0.33450  -0.33289  -0.33136  -0.32068  -0.31795
 Alpha  occ. eigenvalues --   -0.31489  -0.31172  -0.30906  -0.29848  -0.28338
 Alpha  occ. eigenvalues --   -0.27268  -0.26897  -0.26457  -0.25708  -0.25526
 Alpha  occ. eigenvalues --   -0.25284  -0.24629  -0.24245  -0.23926  -0.21245
 Alpha  occ. eigenvalues --   -0.17872
 Alpha virt. eigenvalues --   -0.10672  -0.06206  -0.04310  -0.02290  -0.00888
 Alpha virt. eigenvalues --   -0.00242   0.01801   0.02146   0.02551   0.03686
 Alpha virt. eigenvalues --    0.03829   0.04271   0.04965   0.05093   0.05330

 Mulliken charges:
               1
     1  O   -0.256251
     2  O   -0.098442
     3  O   -0.224363
     4  O   -0.288715
     5  O   -0.267939
     6  O   -0.256419
     7  N   -0.057544
     8  N    0.033620
     9  N   -0.181857
    10  N   -0.313340
    11  C   -0.096029
    12  C    0.036096
    13  C   -0.149618
    14  C    0.035656
    15  C   -0.054950
    16  C    0.007961
    17  C    0.006046
    18  C   -0.030581
    19  C    0.136690
    20  C    0.090900
    21  C    0.096663
    22  C    0.042512
    23  C   -0.045870
    24  C    0.031938
    25  C   -0.104415
    26  C    0.038270
    27  C    0.074286
    28  C   -0.113782
    29  C   -0.003895
    30  C   -0.145973
    31  C   -0.101865
    32  C    0.099980
    33  C   -0.160131
    34  C    0.015095
    35  C   -0.105421
    36  C   -0.207131
    37  C    0.144667
    38  C    0.040976
    39  C    0.130782
    40  C    0.181293
    41  C    0.150906
    42  C    0.218380
    43  C   -0.059193
    44  H    0.134358
    45  H    0.023701
    46  H    0.033472
    47  H    0.023892
    48  H    0.037534
    49  H    0.045735
    50  H    0.028339
    51  H    0.032877
    52  H    0.108448
    53  H    0.011387
    54  H    0.054910
    55  H   -0.001060
    56  H    0.190122
    57  H    0.048202
    58  H    0.072751
    59  H    0.096402
    60  H    0.038304
    61  H    0.072421
    62  H    0.052912
    63  H    0.035703
    64  H    0.026721
    65  H    0.022002
    66  H    0.003337
    67  H   -0.009594
    68  H    0.004176
    69  H    0.116527
    70  H   -0.025527
    71  H    0.030134
    72  H   -0.008395
    73  H   -0.027450
    74  H   -0.029558
    75  H    0.019409
    76  H    0.012590
    77  H    0.010327
    78  H    0.023889
    79  H    0.036427
    80  H    0.166786
    81  H    0.198796
 Sum of Mulliken charges =  -0.00000

 Dipole moment (field-independent basis, Debye):
    X=             -1.7503    Y=             -0.0581    Z=             -1.8810  Tot=              2.5700
 Quadrupole moment (field-independent basis, Debye-Ang):
   XX=           -261.5691   YY=           -237.2724   ZZ=           -250.7663
   XY=             13.2639   XZ=             14.8164   YZ=            -11.7781

 Normal termination of Gaussian 16 at Sat Jun 29 04:06:01 2019.
