 Gaussian 16, Revision A.03,
 Gaussian 16:  ES64L-G16RevA.03 25-Dec-2016

 --------------------------
 # td=(NStates=1) B3LYP/SVP
 --------------------------

 --
 TD
 --
 Symbolic Z-matrix:
 Charge =  0 Multiplicity = 1

                         Standard orientation:
 ---------------------------------------------------------------------
 Center     Atomic      Atomic             Coordinates (Angstroms)
 Number     Number       Type             X           Y           Z
 ---------------------------------------------------------------------
      1          8           0        4.166461   -4.981455   -1.785768
      2          8           0       -3.146665   -4.932831   -1.147952
      3          8           0       -6.943533   -1.460189   -1.837826
      4          8           0       -3.761709   -3.015182   -0.191188
      5          8           0       -7.463086   -0.560964    0.238373
      6          8           0        3.076430    2.435095    0.437772
      7          7           0        0.249295   -0.379652    0.760799
      8          7           0       -1.485072    1.882363    0.311298
      9          7           0        3.205841   -3.261710   -0.562781
     10          7           0        0.871963    2.947335    0.022738
     11          6           0       -0.711832   -2.373096    1.264839
     12          6           0       -0.948145   -1.003231    0.950319
     13          6           0        0.633192   -2.636035    1.250870
     14          6           0        1.216957   -1.378509    0.759721
     15          6           0       -3.685185    1.547959    0.266238
     16          6           0       -2.507167    0.931478    0.532173
     17          6           0       -2.185220   -0.328241    0.880959
     18          6           0       -3.509054    2.864238   -0.060582
     19          6           0       -1.766658   -3.413557    1.916312
     20          6           0        5.477140   -2.894255   -1.331567
     21          6           0        3.525645   -1.989666   -0.153892
     22          6           0       -2.090726    3.074036   -0.031165
     23          6           0        4.924244   -1.723664   -0.428239
     24          6           0       -5.076264    0.905239    0.408739
     25          6           0        2.601543   -1.169682    0.445723
     26          6           0        1.332966   -3.827995    1.819098
     27          6           0        4.313343   -3.839973   -1.354230
     28          6           0       -2.148959   -4.400830    0.878716
     29          6           0       -5.396061   -0.085022   -0.719628
     30          6           0       -4.518153    3.934056   -0.461230
     31          6           0       -1.203289    4.184191   -0.338760
     32          6           0        6.778994   -3.650600   -0.876920
     33          6           0        5.781440   -0.672731   -0.119128
     34          6           0        0.191631    4.151749   -0.229790
     35          6           0        1.115716    5.164407   -0.515593
     36          6           0        2.357317    4.679987   -0.350855
     37          6           0       -3.094968   -4.017948   -0.144099
     38          6           0        5.472294    0.545054    0.853217
     39          6           0       -6.749680   -0.703420   -0.705954
     40          6           0        3.769666    5.226357   -0.304906
     41          6           0        2.222661    3.253837    0.115748
     42          6           0        0.795482    6.603866   -0.979220
     43          6           0        4.413688    5.410492    1.008954
     44          1           0        0.342148    0.422623    0.224792
     45          1           0       -3.105840   -0.945974    1.134435
     46          1           0       -2.644139   -3.019325    2.361956
     47          1           0       -1.379589   -3.880571    2.974838
     48          1           0        5.665549   -2.655251   -2.291294
     49          1           0       -5.236638    0.479686    1.520614
     50          1           0       -5.726370    1.722457    0.252596
     51          1           0        2.898128   -0.212852    0.745515
     52          1           0       -0.430942    1.813459    0.410626
     53          1           0        1.319008   -4.708532    1.032100
     54          1           0        2.366537   -3.413858    1.929964
     55          1           0        0.802983   -4.183630    2.649820
     56          1           0        2.269918   -3.531765   -0.682593
     57          1           0       -1.410073   -4.848486    0.283268
     58          1           0       -2.661950   -5.331555    1.488506
     59          1           0       -4.718670   -1.039194   -0.737483
     60          1           0       -4.926501    0.297648   -1.687267
     61          1           0       -4.421803    4.909843    0.380363
     62          1           0       -5.554120    3.577339   -0.744626
     63          1           0       -3.969013    4.465096   -1.345303
     64          1           0       -1.550160    5.198416   -0.720847
     65          1           0        7.625405   -2.830306   -0.808082
     66          1           0        7.215734   -4.476461   -1.806218
     67          1           0        6.802885   -4.001880    0.178718
     68          1           0        6.685048   -0.664401   -0.529899
     69          1           0        4.724891    1.481597    0.365653
     70          1           0        6.301280    0.942753    1.337216
     71          1           0        4.912295    0.206342    1.849850
     72          1           0        3.697070    6.159573   -0.966434
     73          1           0        4.485572    4.488014   -0.679303
     74          1           0        0.333868    6.786780   -2.063762
     75          1           0        1.843680    7.286118   -1.028807
     76          1           0       -0.094945    6.901912   -0.408440
     77          1           0        4.159940    6.259720    1.766945
     78          1           0        5.345275    5.720829    0.737215
     79          1           0        4.391108    4.594679    1.608071
     80          1           0       -3.825366   -4.759255   -1.895447
     81          1           0       -7.844924   -1.616685   -1.744137
 ---------------------------------------------------------------------

 SCF Done:  E(RB3LYP) =  -1949.08084305     A.U. after   17 cycles

 Excitation energies and oscillator strengths:

 Excited State   1:      Singlet-A      1.7368 eV  713.85 nm  f=0.2960  <S**2>=0.000
     156 ->157         0.70211
     156 <-157        -0.11523
 This state for optimization and/or second-order correction.
 Total Energy, E(TD-HF/TD-DFT) =  -1949.01701544
 Copying the excited state density for this state as the 1-particle RhoCI density.

 The electronic state is 1-A.
 Alpha  occ. eigenvalues --  -19.18970 -19.18200 -19.13830 -19.13215 -19.12271
 Alpha  occ. eigenvalues --  -19.09301 -14.38434 -14.36523 -14.35192 -14.26894
 Alpha  occ. eigenvalues --  -10.33227 -10.31964 -10.30476 -10.24768 -10.24727
 Alpha  occ. eigenvalues --  -10.24722 -10.24189 -10.23519 -10.22755 -10.22541
 Alpha  occ. eigenvalues --  -10.22508 -10.22310 -10.21834 -10.21688 -10.21463
 Alpha  occ. eigenvalues --  -10.21447 -10.21334 -10.21117 -10.20978 -10.20751
 Alpha  occ. eigenvalues --  -10.20615 -10.20339 -10.20213 -10.20062 -10.20050
 Alpha  occ. eigenvalues --  -10.19496 -10.19335 -10.18865 -10.18699 -10.18598
 Alpha  occ. eigenvalues --  -10.18228 -10.17771 -10.15932  -1.10406  -1.10093
 Alpha  occ. eigenvalues --   -1.03361  -1.02563  -1.01197  -1.00116  -0.99766
 Alpha  occ. eigenvalues --   -0.97085  -0.95091  -0.90067  -0.83463  -0.81950
 Alpha  occ. eigenvalues --   -0.81770  -0.81336  -0.79945  -0.78811  -0.78232
 Alpha  occ. eigenvalues --   -0.76679  -0.75851  -0.75118  -0.73791  -0.72579
 Alpha  occ. eigenvalues --   -0.71257  -0.69928  -0.69404  -0.67961  -0.67670
 Alpha  occ. eigenvalues --   -0.67075  -0.65151  -0.64241  -0.62761  -0.61265
 Alpha  occ. eigenvalues --   -0.60675  -0.59184  -0.58947  -0.58346  -0.57691
 Alpha  occ. eigenvalues --   -0.56402  -0.55220  -0.54790  -0.54565  -0.53238
 Alpha  occ. eigenvalues --   -0.52248  -0.51802  -0.51020  -0.50105  -0.49556
 Alpha  occ. eigenvalues --   -0.49464  -0.49391  -0.49086  -0.48660  -0.47901
 Alpha  occ. eigenvalues --   -0.47044  -0.46609  -0.46215  -0.45609  -0.45491
 Alpha  occ. eigenvalues --   -0.44978  -0.44471  -0.44300  -0.44207  -0.44028
 Alpha  occ. eigenvalues --   -0.43633  -0.42995  -0.42478  -0.42433  -0.42264
 Alpha  occ. eigenvalues --   -0.41943  -0.41542  -0.41238  -0.40904  -0.40480
 Alpha  occ. eigenvalues --   -0.40346  -0.39993  -0.39880  -0.39285  -0.39201
 Alpha  occ. eigenvalues --   -0.38908  -0.38436  -0.38124  -0.37927  -0.37653
 Alpha  occ. eigenvalues --   -0.37605  -0.37376  -0.37261  -0.36777  -0.36305
 Alpha  occ. eigenvalues --   -0.36252  -0.35675  -0.35491  -0.34528  -0.34436
 Alpha  occ. eigenvalues --   -0.34041  -0.33709  -0.33553  -0.33354  -0.33122
 Alpha  occ. eigenvalues --   -0.32662  -0.32204  -0.31544  -0.29925  -0.29221
 Alpha  occ. eigenvalues --   -0.28537  -0.27249  -0.26916  -0.26587  -0.26087
 Alpha  occ. eigenvalues --   -0.25619  -0.24611  -0.22913  -0.22495  -0.20791
 Alpha  occ. eigenvalues --   -0.17656
 Alpha virt. eigenvalues --   -0.10526  -0.06030  -0.04467  -0.01821  -0.01602
 Alpha virt. eigenvalues --    0.00664   0.01870   0.02341   0.02707   0.03563
 Alpha virt. eigenvalues --    0.03920   0.04444   0.05123   0.05213   0.05770

 Mulliken charges:
               1
     1  O   -0.202812
     2  O   -0.237292
     3  O   -0.162800
     4  O   -0.201563
     5  O   -0.201262
     6  O   -0.234894
     7  N   -0.004503
     8  N   -0.154390
     9  N   -0.128162
    10  N   -0.358783
    11  C   -0.073062
    12  C    0.048109
    13  C   -0.200651
    14  C    0.031160
    15  C   -0.123208
    16  C    0.112277
    17  C   -0.073942
    18  C   -0.096223
    19  C    0.083835
    20  C    0.018071
    21  C    0.114682
    22  C    0.117476
    23  C   -0.011088
    24  C    0.169793
    25  C   -0.096101
    26  C    0.131239
    27  C    0.141754
    28  C    0.016490
    29  C   -0.101778
    30  C    0.008756
    31  C   -0.137360
    32  C   -0.047006
    33  C   -0.040940
    34  C    0.093279
    35  C   -0.057476
    36  C   -0.184942
    37  C    0.112619
    38  C   -0.059009
    39  C    0.154921
    40  C    0.096662
    41  C    0.157105
    42  C    0.006383
    43  C    0.056305
    44  H    0.120967
    45  H    0.016408
    46  H   -0.001536
    47  H    0.037163
    48  H    0.008079
    49  H    0.046687
    50  H   -0.026223
    51  H   -0.019180
    52  H    0.143968
    53  H    0.032239
    54  H    0.051511
    55  H    0.003033
    56  H    0.118524
    57  H    0.019949
    58  H    0.067379
    59  H    0.071244
    60  H    0.030944
    61  H    0.050118
    62  H    0.051742
    63  H    0.039468
    64  H   -0.024063
    65  H    0.025404
    66  H    0.068101
    67  H    0.034776
    68  H   -0.049016
    69  H    0.143994
    70  H   -0.009281
    71  H    0.027121
    72  H   -0.003429
    73  H    0.002244
    74  H    0.030763
    75  H    0.051388
    76  H    0.021009
    77  H   -0.006844
    78  H   -0.017263
    79  H    0.001071
    80  H    0.221379
    81  H    0.138494
 Sum of Mulliken charges =  -0.00000

 Dipole moment (field-independent basis, Debye):
    X=             -2.0299    Y=             -1.6429    Z=             -1.0962  Tot=              2.8322
 Quadrupole moment (field-independent basis, Debye-Ang):
   XX=           -241.9142   YY=           -247.2324   ZZ=           -251.2744
   XY=             12.8786   XZ=             11.8787   YZ=            -12.5749

 Normal termination of Gaussian 16 at Tue Jul  2 19:01:24 2019.
