 Gaussian 16, Revision A.03,
 Gaussian 16:  ES64L-G16RevA.03 25-Dec-2016

 --------------------------
 # td=(NStates=1) B3LYP/SVP
 --------------------------

 --
 TD
 --
 Symbolic Z-matrix:
 Charge =  0 Multiplicity = 1

                         Standard orientation:
 ---------------------------------------------------------------------
 Center     Atomic      Atomic             Coordinates (Angstroms)
 Number     Number       Type             X           Y           Z
 ---------------------------------------------------------------------
      1          8           0        4.548924   -4.896130   -1.594506
      2          8           0       -3.188213   -5.173697   -0.905180
      3          8           0       -7.022115   -1.498127   -1.899136
      4          8           0       -3.817457   -3.177770    0.019488
      5          8           0       -7.617544   -0.533886   -0.019261
      6          8           0        3.047765    2.316175    0.042569
      7          7           0        0.255235   -0.525290    0.552431
      8          7           0       -1.542354    1.838478    0.355037
      9          7           0        3.447610   -3.133143   -0.705205
     10          7           0        0.790154    2.967759    0.055034
     11          6           0       -0.612381   -2.440270    1.342377
     12          6           0       -0.865179   -1.115781    0.931328
     13          6           0        0.780670   -2.643055    1.040072
     14          6           0        1.294779   -1.370143    0.573912
     15          6           0       -3.831771    1.402320    0.309063
     16          6           0       -2.517957    0.838445    0.525356
     17          6           0       -2.154647   -0.511719    0.837639
     18          6           0       -3.597708    2.776073    0.014299
     19          6           0       -1.655523   -3.399063    1.939678
     20          6           0        5.728021   -2.780068   -1.239025
     21          6           0        3.676645   -1.792683   -0.332337
     22          6           0       -2.059492    3.010698    0.062906
     23          6           0        5.068948   -1.559674   -0.464474
     24          6           0       -5.098222    0.692824    0.400858
     25          6           0        2.737535   -1.004378    0.330352
     26          6           0        1.403855   -3.829551    1.590246
     27          6           0        4.515362   -3.792383   -1.208886
     28          6           0       -2.053863   -4.645868    1.072169
     29          6           0       -5.421921   -0.116154   -0.929716
     30          6           0       -4.537659    3.906354   -0.345109
     31          6           0       -1.375509    4.179096   -0.269389
     32          6           0        7.061396   -3.180739   -0.774763
     33          6           0        5.795019   -0.468436   -0.160633
     34          6           0        0.047268    4.088460   -0.192215
     35          6           0        0.952825    5.171083   -0.371260
     36          6           0        2.251825    4.703585   -0.305843
     37          6           0       -3.092771   -4.136038   -0.009588
     38          6           0        5.451532    0.620812    0.737560
     39          6           0       -6.807328   -0.658252   -0.871732
     40          6           0        3.559183    5.429607   -0.314037
     41          6           0        2.149982    3.261646   -0.108496
     42          6           0        0.492287    6.699714   -0.562802
     43          6           0        4.287161    5.474355    1.042076
     44          1           0        0.654273    0.428923    0.360050
     45          1           0       -3.043092   -1.207651    0.812527
     46          1           0       -2.556475   -2.809276    2.206444
     47          1           0       -1.202098   -3.734592    2.891963
     48          1           0        5.771993   -2.474576   -2.367821
     49          1           0       -5.075888   -0.072545    1.204820
     50          1           0       -5.821189    1.553199    0.600218
     51          1           0        2.904095    0.066270    0.319982
     52          1           0       -0.611879    1.742913    0.431622
     53          1           0        1.171955   -4.671757    0.798539
     54          1           0        2.417595   -3.663844    1.936150
     55          1           0        0.976249   -4.257352    2.673730
     56          1           0        2.627432   -3.601117   -0.871815
     57          1           0       -1.194433   -5.414583    0.731429
     58          1           0       -2.667516   -5.225379    1.946313
     59          1           0       -4.868928   -1.038067   -1.042082
     60          1           0       -5.199718    0.476267   -1.849932
     61          1           0       -4.686889    4.545265    0.646902
     62          1           0       -5.629545    3.427940   -0.575551
     63          1           0       -4.026791    4.628923   -1.287971
     64          1           0       -1.881595    5.177801   -0.340769
     65          1           0        7.815589   -2.476307   -0.714310
     66          1           0        7.191182   -4.115807   -1.142895
     67          1           0        6.851563   -3.311949    0.367982
     68          1           0        6.772340   -0.440775   -0.514517
     69          1           0        4.789253    1.522971    0.278150
     70          1           0        6.214590    1.280969    1.374023
     71          1           0        4.746935    0.013520    1.611120
     72          1           0        3.383965    6.484595   -0.747526
     73          1           0        4.245450    4.947349   -1.053326
     74          1           0       -0.334598    6.822027   -1.338568
     75          1           0        1.264233    7.389215   -0.940850
     76          1           0        0.073041    7.407127    0.378981
     77          1           0        3.680718    5.939790    1.783756
     78          1           0        5.265138    5.995806    1.109224
     79          1           0        4.186988    4.344465    1.308145
     80          1           0       -3.879094   -4.993882   -1.647343
     81          1           0       -8.024401   -1.877927   -2.027185
 ---------------------------------------------------------------------

 SCF Done:  E(RB3LYP) =  -1949.09763646     A.U. after   19 cycles

 Excitation energies and oscillator strengths:

 Excited State   1:      Singlet-A      1.7011 eV  728.84 nm  f=0.2556  <S**2>=0.000
     156 ->157         0.70396
     156 <-157        -0.11232
 This state for optimization and/or second-order correction.
 Total Energy, E(TD-HF/TD-DFT) =  -1949.03512192
 Copying the excited state density for this state as the 1-particle RhoCI density.

 The electronic state is 1-A.
 Alpha  occ. eigenvalues --  -19.19939 -19.17641 -19.16129 -19.12103 -19.10842
 Alpha  occ. eigenvalues --  -19.10417 -14.38447 -14.36703 -14.36366 -14.28217
 Alpha  occ. eigenvalues --  -10.34943 -10.31406 -10.28394 -10.26584 -10.24664
 Alpha  occ. eigenvalues --  -10.24553 -10.24549 -10.24049 -10.23973 -10.23546
 Alpha  occ. eigenvalues --  -10.23218 -10.22538 -10.22089 -10.21739 -10.21354
 Alpha  occ. eigenvalues --  -10.21344 -10.21228 -10.21072 -10.20990 -10.20878
 Alpha  occ. eigenvalues --  -10.20561 -10.20239 -10.20023 -10.19879 -10.19317
 Alpha  occ. eigenvalues --  -10.19255 -10.19216 -10.19202 -10.18953 -10.18899
 Alpha  occ. eigenvalues --  -10.18873 -10.17770 -10.17361  -1.10501  -1.09157
 Alpha  occ. eigenvalues --   -1.05804  -1.02690  -1.00761  -0.99854  -0.99238
 Alpha  occ. eigenvalues --   -0.97412  -0.96002  -0.90766  -0.82979  -0.82020
 Alpha  occ. eigenvalues --   -0.81762  -0.80614  -0.78882  -0.78123  -0.77346
 Alpha  occ. eigenvalues --   -0.77206  -0.76562  -0.74535  -0.73625  -0.72377
 Alpha  occ. eigenvalues --   -0.70763  -0.69861  -0.68800  -0.68296  -0.67972
 Alpha  occ. eigenvalues --   -0.67049  -0.65229  -0.63378  -0.62371  -0.61325
 Alpha  occ. eigenvalues --   -0.60837  -0.59691  -0.59438  -0.57473  -0.57217
 Alpha  occ. eigenvalues --   -0.56174  -0.55626  -0.55072  -0.53991  -0.53380
 Alpha  occ. eigenvalues --   -0.51873  -0.51643  -0.51020  -0.50424  -0.49922
 Alpha  occ. eigenvalues --   -0.49495  -0.48940  -0.48329  -0.47822  -0.47198
 Alpha  occ. eigenvalues --   -0.46812  -0.46459  -0.46247  -0.45798  -0.45394
 Alpha  occ. eigenvalues --   -0.44716  -0.44327  -0.44187  -0.44078  -0.43923
 Alpha  occ. eigenvalues --   -0.43206  -0.42668  -0.42320  -0.42203  -0.41980
 Alpha  occ. eigenvalues --   -0.41880  -0.41574  -0.41484  -0.40733  -0.40651
 Alpha  occ. eigenvalues --   -0.40525  -0.40042  -0.39908  -0.39508  -0.39403
 Alpha  occ. eigenvalues --   -0.39281  -0.39023  -0.38628  -0.38203  -0.37880
 Alpha  occ. eigenvalues --   -0.37651  -0.37505  -0.37234  -0.36786  -0.36722
 Alpha  occ. eigenvalues --   -0.35498  -0.35402  -0.35288  -0.35082  -0.34611
 Alpha  occ. eigenvalues --   -0.34504  -0.34280  -0.32930  -0.32640  -0.32098
 Alpha  occ. eigenvalues --   -0.32018  -0.31688  -0.31150  -0.30674  -0.29639
 Alpha  occ. eigenvalues --   -0.27945  -0.26545  -0.26255  -0.25699  -0.25124
 Alpha  occ. eigenvalues --   -0.25020  -0.24452  -0.24361  -0.22675  -0.21233
 Alpha  occ. eigenvalues --   -0.17930
 Alpha virt. eigenvalues --   -0.10992  -0.07025  -0.04314  -0.02873   0.01094
 Alpha virt. eigenvalues --    0.01218   0.01639   0.02146   0.02460   0.02778
 Alpha virt. eigenvalues --    0.03184   0.03868   0.04330   0.05002   0.06165

 Mulliken charges:
               1
     1  O   -0.165387
     2  O   -0.232456
     3  O   -0.263830
     4  O   -0.194634
     5  O   -0.194821
     6  O   -0.299773
     7  N   -0.012930
     8  N    0.043203
     9  N   -0.065650
    10  N   -0.339723
    11  C   -0.109506
    12  C    0.076402
    13  C   -0.139325
    14  C   -0.039721
    15  C   -0.064195
    16  C    0.041332
    17  C   -0.091910
    18  C   -0.146074
    19  C    0.101435
    20  C   -0.118052
    21  C    0.133540
    22  C    0.082093
    23  C   -0.047062
    24  C    0.096686
    25  C   -0.057135
    26  C   -0.015301
    27  C    0.063510
    28  C   -0.086388
    29  C   -0.015222
    30  C   -0.048554
    31  C   -0.122199
    32  C    0.142905
    33  C   -0.049676
    34  C    0.093595
    35  C   -0.056918
    36  C   -0.162426
    37  C    0.194698
    38  C   -0.108203
    39  C    0.125411
    40  C    0.065106
    41  C    0.199037
    42  C   -0.005869
    43  C   -0.006091
    44  H    0.185198
    45  H    0.032631
    46  H    0.016315
    47  H    0.010118
    48  H    0.044972
    49  H    0.025736
    50  H    0.034036
    51  H    0.019494
    52  H    0.050027
    53  H    0.041275
    54  H    0.031185
    55  H    0.031326
    56  H    0.098312
    57  H    0.078861
    58  H    0.073866
    59  H    0.042530
    60  H    0.045159
    61  H    0.058210
    62  H    0.046872
    63  H    0.069554
    64  H    0.010949
    65  H    0.006376
    66  H    0.002591
    67  H   -0.002706
    68  H   -0.035856
    69  H    0.119219
    70  H    0.028493
    71  H    0.042172
    72  H   -0.005787
    73  H    0.016923
    74  H    0.026596
    75  H    0.013149
    76  H    0.042502
    77  H   -0.006687
    78  H    0.026613
    79  H    0.038158
    80  H    0.209998
    81  H    0.231701
 Sum of Mulliken charges =  -0.00000

 Dipole moment (field-independent basis, Debye):
    X=             -4.4573    Y=             -0.0540    Z=             -0.8286  Tot=              4.5340
 Quadrupole moment (field-independent basis, Debye-Ang):
   XX=           -252.8300   YY=           -239.2064   ZZ=           -252.4087
   XY=             20.5381   XZ=             17.5289   YZ=             -7.0629

 Normal termination of Gaussian 16 at Wed Jun 26 21:03:20 2019.
