 Gaussian 16, Revision A.03,
 Gaussian 16:  ES64L-G16RevA.03 25-Dec-2016

 --------------------------
 # td=(NStates=1) B3LYP/SVP
 --------------------------

 --
 TD
 --
 Symbolic Z-matrix:
 Charge =  0 Multiplicity = 1

                         Standard orientation:
 ---------------------------------------------------------------------
 Center     Atomic      Atomic             Coordinates (Angstroms)
 Number     Number       Type             X           Y           Z
 ---------------------------------------------------------------------
      1          8           0        4.407784   -4.786843   -1.908968
      2          8           0       -3.057300   -4.782398   -1.083484
      3          8           0       -7.012788   -1.603810   -1.913287
      4          8           0       -3.703764   -2.981177    0.153730
      5          8           0       -7.459489   -0.865829    0.167214
      6          8           0        2.940223    2.361831    0.331786
      7          7           0        0.259917   -0.474516    0.601404
      8          7           0       -1.547043    1.783068    0.368315
      9          7           0        3.423124   -3.106724   -0.633376
     10          7           0        0.619293    2.868151    0.035550
     11          6           0       -0.564167   -2.335202    1.517797
     12          6           0       -0.905973   -1.083605    0.942855
     13          6           0        0.813699   -2.617059    1.262014
     14          6           0        1.404515   -1.451659    0.800513
     15          6           0       -3.757946    1.466619    0.259086
     16          6           0       -2.539173    0.834562    0.444901
     17          6           0       -2.186473   -0.457237    0.905564
     18          6           0       -3.644967    2.706202   -0.079378
     19          6           0       -1.504877   -3.436672    2.031957
     20          6           0        5.632087   -2.665922   -1.378136
     21          6           0        3.688222   -1.793619   -0.182550
     22          6           0       -2.144806    3.000472   -0.010344
     23          6           0        5.012981   -1.423409   -0.543138
     24          6           0       -5.144367    0.715377    0.190859
     25          6           0        2.710416   -1.070076    0.526436
     26          6           0        1.462417   -3.885565    1.659972
     27          6           0        4.445234   -3.701428   -1.317903
     28          6           0       -1.960546   -4.487107    0.964917
     29          6           0       -5.353956   -0.227127   -0.860357
     30          6           0       -4.721512    3.817190   -0.441178
     31          6           0       -1.381781    4.072815   -0.322170
     32          6           0        6.873317   -3.370979   -0.921195
     33          6           0        5.832858   -0.411235   -0.133505
     34          6           0        0.030309    4.059793   -0.203698
     35          6           0        0.969238    5.170752   -0.381420
     36          6           0        2.165251    4.656375   -0.207958
     37          6           0       -2.960728   -3.897950   -0.019378
     38          6           0        5.490999    0.676481    0.797852
     39          6           0       -6.737678   -0.829975   -0.797645
     40          6           0        3.543458    5.345962   -0.296486
     41          6           0        2.062117    3.229316    0.148313
     42          6           0        0.608700    6.519773   -0.905311
     43          6           0        4.197933    5.594735    1.086510
     44          1           0        0.504802    0.451718    0.074655
     45          1           0       -3.089435   -1.110611    1.212836
     46          1           0       -2.362052   -2.909263    2.419620
     47          1           0       -0.904101   -4.242977    2.788761
     48          1           0        5.677542   -2.409134   -2.531359
     49          1           0       -5.269422    0.325997    1.258688
     50          1           0       -5.959691    1.476061    0.232575
     51          1           0        2.944466    0.018351    0.938877
     52          1           0       -0.553124    1.953685    0.440644
     53          1           0        1.146039   -4.736605    0.930444
     54          1           0        2.644466   -3.638065    1.888752
     55          1           0        1.108640   -4.435718    2.552143
     56          1           0        2.449229   -3.473783   -0.739074
     57          1           0       -1.308356   -5.072459    0.181716
     58          1           0       -2.359085   -5.421604    1.397788
     59          1           0       -4.643745   -0.950041   -0.839563
     60          1           0       -5.354378    0.275107   -1.811014
     61          1           0       -4.614310    4.668706    0.067433
     62          1           0       -5.769331    3.392195   -0.138661
     63          1           0       -4.725577    4.135310   -1.499645
     64          1           0       -1.832940    5.072871   -0.717334
     65          1           0        7.886912   -2.711687   -1.203548
     66          1           0        6.859437   -4.272863   -1.538210
     67          1           0        6.857792   -3.706368    0.088678
     68          1           0        6.898390   -0.595485   -0.355281
     69          1           0        4.647539    1.535472    0.449032
     70          1           0        6.246197    1.288388    1.112332
     71          1           0        5.004494    0.081803    1.695702
     72          1           0        3.460235    6.230455   -0.876869
     73          1           0        4.315085    4.856564   -0.976853
     74          1           0        0.399237    6.396123   -2.031945
     75          1           0        1.395534    7.419535   -0.590682
     76          1           0       -0.309335    6.929035   -0.412259
     77          1           0        3.620504    6.402873    1.572740
     78          1           0        5.203116    6.022146    0.921523
     79          1           0        4.494140    4.849785    1.644224
     80          1           0       -3.647123   -4.428794   -1.616819
     81          1           0       -7.874963   -2.214351   -1.796010
 ---------------------------------------------------------------------

 SCF Done:  E(RB3LYP) =  -1949.09373079     A.U. after   16 cycles

 Excitation energies and oscillator strengths:

 Excited State   1:      Singlet-A      1.6235 eV  763.68 nm  f=0.2609  <S**2>=0.000
     156 ->157         0.70748
     156 <-157        -0.12389
 This state for optimization and/or second-order correction.
 Total Energy, E(TD-HF/TD-DFT) =  -1949.03406783
 Copying the excited state density for this state as the 1-particle RhoCI density.

 The electronic state is 1-A.
 Alpha  occ. eigenvalues --  -19.18352 -19.17702 -19.15334 -19.12642 -19.12121
 Alpha  occ. eigenvalues --  -19.10311 -14.36975 -14.36868 -14.34420 -14.29751
 Alpha  occ. eigenvalues --  -10.33566 -10.31803 -10.28466 -10.28151 -10.24444
 Alpha  occ. eigenvalues --  -10.23678 -10.23396 -10.23143 -10.23106 -10.23003
 Alpha  occ. eigenvalues --  -10.22561 -10.22292 -10.22181 -10.21445 -10.21063
 Alpha  occ. eigenvalues --  -10.21027 -10.20632 -10.20461 -10.20291 -10.19819
 Alpha  occ. eigenvalues --  -10.19792 -10.19740 -10.19659 -10.19560 -10.19557
 Alpha  occ. eigenvalues --  -10.19469 -10.19401 -10.19271 -10.19254 -10.19128
 Alpha  occ. eigenvalues --  -10.18992 -10.17694 -10.17422  -1.11943  -1.07665
 Alpha  occ. eigenvalues --   -1.03981  -1.01804  -1.01233  -0.99076  -0.97677
 Alpha  occ. eigenvalues --   -0.95110  -0.94227  -0.92035  -0.83225  -0.81371
 Alpha  occ. eigenvalues --   -0.81018  -0.80495  -0.80166  -0.78750  -0.78343
 Alpha  occ. eigenvalues --   -0.77052  -0.76046  -0.75497  -0.74072  -0.72186
 Alpha  occ. eigenvalues --   -0.71049  -0.70044  -0.69605  -0.68181  -0.67088
 Alpha  occ. eigenvalues --   -0.66943  -0.65037  -0.63505  -0.63099  -0.62044
 Alpha  occ. eigenvalues --   -0.60729  -0.59487  -0.58414  -0.57022  -0.56522
 Alpha  occ. eigenvalues --   -0.56289  -0.55205  -0.54211  -0.52926  -0.52664
 Alpha  occ. eigenvalues --   -0.52170  -0.52042  -0.51199  -0.50345  -0.50124
 Alpha  occ. eigenvalues --   -0.49252  -0.48645  -0.48226  -0.47339  -0.47051
 Alpha  occ. eigenvalues --   -0.46831  -0.46139  -0.45871  -0.45611  -0.45305
 Alpha  occ. eigenvalues --   -0.44684  -0.44306  -0.43988  -0.43867  -0.43606
 Alpha  occ. eigenvalues --   -0.43457  -0.42978  -0.42302  -0.42030  -0.41817
 Alpha  occ. eigenvalues --   -0.41548  -0.41414  -0.41316  -0.41164  -0.40795
 Alpha  occ. eigenvalues --   -0.40677  -0.40496  -0.40433  -0.40262  -0.39955
 Alpha  occ. eigenvalues --   -0.39558  -0.39062  -0.38784  -0.38346  -0.38295
 Alpha  occ. eigenvalues --   -0.37548  -0.37462  -0.37327  -0.36937  -0.35824
 Alpha  occ. eigenvalues --   -0.35393  -0.34900  -0.34812  -0.34613  -0.34545
 Alpha  occ. eigenvalues --   -0.34224  -0.33983  -0.33752  -0.33692  -0.32870
 Alpha  occ. eigenvalues --   -0.32577  -0.31860  -0.31826  -0.30145  -0.29595
 Alpha  occ. eigenvalues --   -0.29288  -0.27988  -0.27090  -0.26244  -0.25499
 Alpha  occ. eigenvalues --   -0.25213  -0.24559  -0.24504  -0.24026  -0.21234
 Alpha  occ. eigenvalues --   -0.17367
 Alpha virt. eigenvalues --   -0.10786  -0.06402  -0.04171  -0.02090  -0.00067
 Alpha virt. eigenvalues --    0.00361   0.02191   0.02559   0.03002   0.03487
 Alpha virt. eigenvalues --    0.04121   0.04889   0.05574   0.06078   0.06214

 Mulliken charges:
               1
     1  O   -0.243570
     2  O   -0.142577
     3  O   -0.275132
     4  O   -0.193789
     5  O   -0.213712
     6  O   -0.221119
     7  N   -0.189341
     8  N   -0.091693
     9  N   -0.110628
    10  N   -0.372213
    11  C   -0.118078
    12  C    0.108016
    13  C   -0.107741
    14  C    0.094654
    15  C   -0.072689
    16  C    0.070957
    17  C   -0.077297
    18  C   -0.096311
    19  C    0.085681
    20  C   -0.120716
    21  C    0.096094
    22  C    0.067536
    23  C    0.002986
    24  C    0.046771
    25  C   -0.175265
    26  C    0.007410
    27  C    0.111043
    28  C   -0.045357
    29  C    0.160573
    30  C    0.132022
    31  C   -0.130993
    32  C    0.042989
    33  C   -0.098511
    34  C    0.058145
    35  C   -0.060997
    36  C   -0.156466
    37  C    0.138435
    38  C   -0.016274
    39  C    0.129400
    40  C    0.077389
    41  C    0.220236
    42  C    0.017475
    43  C    0.070526
    44  H    0.184676
    45  H    0.041734
    46  H    0.024163
    47  H    0.035166
    48  H    0.059332
    49  H    0.021119
    50  H   -0.013167
    51  H    0.072219
    52  H    0.112328
    53  H    0.025950
    54  H    0.067175
    55  H    0.010391
    56  H    0.150402
    57  H    0.049390
    58  H    0.046115
    59  H    0.005772
    60  H    0.009470
    61  H   -0.011918
    62  H    0.024688
    63  H    0.025168
    64  H   -0.006451
    65  H    0.034605
    66  H    0.032884
    67  H    0.008527
    68  H   -0.005951
    69  H    0.117175
    70  H   -0.019767
    71  H    0.038679
    72  H   -0.027027
    73  H    0.011120
    74  H    0.059944
    75  H    0.049260
    76  H    0.027205
    77  H    0.013542
    78  H   -0.010032
    79  H   -0.013240
    80  H    0.117454
    81  H    0.224028
 Sum of Mulliken charges =  -0.00000

 Dipole moment (field-independent basis, Debye):
    X=             -2.5834    Y=              2.7779    Z=             -0.6632  Tot=              3.8510
 Quadrupole moment (field-independent basis, Debye-Ang):
   XX=           -254.0662   YY=           -230.6865   ZZ=           -257.2377
   XY=             20.7509   XZ=             18.5215   YZ=            -14.7243

 Normal termination of Gaussian 16 at Wed Jul  3 15:18:30 2019.
