 Gaussian 16, Revision A.03,
 Gaussian 16:  ES64L-G16RevA.03 25-Dec-2016

 --------------------------
 # td=(NStates=1) B3LYP/SVP
 --------------------------

 --
 TD
 --
 Symbolic Z-matrix:
 Charge =  0 Multiplicity = 1

                         Standard orientation:
 ---------------------------------------------------------------------
 Center     Atomic      Atomic             Coordinates (Angstroms)
 Number     Number       Type             X           Y           Z
 ---------------------------------------------------------------------
      1          8           0        4.245817   -4.752552   -1.872500
      2          8           0       -3.085750   -4.792570   -1.067889
      3          8           0       -6.728672   -1.684185   -2.009218
      4          8           0       -3.772052   -3.030499    0.080279
      5          8           0       -7.541230   -0.760136   -0.010267
      6          8           0        2.897906    2.245159    0.489398
      7          7           0        0.201136   -0.502059    0.644165
      8          7           0       -1.638777    1.934118    0.387313
      9          7           0        3.334613   -3.116947   -0.582504
     10          7           0        0.715167    2.860551    0.163736
     11          6           0       -0.703075   -2.352450    1.393410
     12          6           0       -1.058038   -1.009180    1.015026
     13          6           0        0.743405   -2.583766    1.267802
     14          6           0        1.321373   -1.401522    0.764962
     15          6           0       -3.803175    1.517410    0.223563
     16          6           0       -2.554541    0.945733    0.526505
     17          6           0       -2.300968   -0.411374    0.814726
     18          6           0       -3.536776    2.895455   -0.065951
     19          6           0       -1.644698   -3.357925    2.050266
     20          6           0        5.590965   -2.660781   -1.363699
     21          6           0        3.572203   -1.861074   -0.186655
     22          6           0       -2.187197    3.037862    0.014232
     23          6           0        4.960620   -1.535732   -0.489181
     24          6           0       -5.168191    0.816640    0.253564
     25          6           0        2.650425   -1.091235    0.534128
     26          6           0        1.488524   -3.727974    1.791588
     27          6           0        4.362997   -3.697968   -1.343980
     28          6           0       -2.052064   -4.394548    0.967847
     29          6           0       -5.326951   -0.142579   -0.836920
     30          6           0       -4.548708    3.963263   -0.451494
     31          6           0       -1.194447    4.121718   -0.201991
     32          6           0        6.884831   -3.311471   -0.968858
     33          6           0        5.765021   -0.552399   -0.068611
     34          6           0        0.099517    4.044129   -0.131545
     35          6           0        1.049627    5.122466   -0.419041
     36          6           0        2.264134    4.506285   -0.216704
     37          6           0       -3.053880   -3.979650    0.021696
     38          6           0        5.542074    0.618438    0.695055
     39          6           0       -6.674236   -0.775205   -0.917865
     40          6           0        3.617891    5.084387   -0.400923
     41          6           0        2.036484    3.124945    0.128944
     42          6           0        0.759610    6.546269   -0.766335
     43          6           0        4.441755    5.251323    0.824820
     44          1           0        0.438900    0.463985    0.278108
     45          1           0       -3.065966   -1.085590    1.063657
     46          1           0       -2.564655   -2.921651    2.439724
     47          1           0       -1.209329   -3.845924    2.944094
     48          1           0        5.471142   -2.193970   -2.410212
     49          1           0       -5.296708    0.054943    1.081598
     50          1           0       -5.945284    1.585122    0.384586
     51          1           0        2.843060   -0.007261    0.734865
     52          1           0       -0.562525    1.837981    0.682112
     53          1           0        1.686213   -4.463777    0.977543
     54          1           0        2.592622   -3.472758    2.224078
     55          1           0        1.085356   -4.249569    2.732996
     56          1           0        2.456974   -3.546031   -0.703768
     57          1           0       -1.245354   -4.778751    0.365973
     58          1           0       -2.500841   -5.355160    1.349176
     59          1           0       -4.418699   -0.826889   -0.762133
     60          1           0       -5.210296    0.303279   -1.812141
     61          1           0       -4.373910    4.947169    0.048299
     62          1           0       -5.616296    3.689548   -0.128772
     63          1           0       -4.910316    4.054655   -1.499830
     64          1           0       -1.506923    5.237540   -0.501013
     65          1           0        7.710743   -2.629379   -1.196449
     66          1           0        7.047359   -4.204460   -1.618979
     67          1           0        7.123968   -3.752915    0.142867
     68          1           0        6.903238   -0.551371   -0.494013
     69          1           0        4.792873    1.261550   -0.030440
     70          1           0        6.419526    1.085652    0.879372
     71          1           0        4.908922    0.366006    1.683743
     72          1           0        3.672404    6.010677   -0.842799
     73          1           0        4.038054    4.362827   -1.090282
     74          1           0        0.118422    6.436021   -1.734965
     75          1           0        1.722573    7.166993   -1.118695
     76          1           0       -0.020825    6.927227   -0.079349
     77          1           0        3.929284    5.978382    1.496101
     78          1           0        5.612729    5.478127    0.741619
     79          1           0        4.498992    4.461146    1.409018
     80          1           0       -3.544592   -4.353957   -1.690488
     81          1           0       -7.561027   -1.997741   -1.862889
 ---------------------------------------------------------------------

 SCF Done:  E(RB3LYP) =  -1949.13435563     A.U. after   23 cycles

 Excitation energies and oscillator strengths:

 Excited State   1:      Singlet-A      1.6189 eV  765.87 nm  f=0.2167  <S**2>=0.000
     156 ->157         0.69900
     156 <-157        -0.10496
 This state for optimization and/or second-order correction.
 Total Energy, E(TD-HF/TD-DFT) =  -1949.07486337
 Copying the excited state density for this state as the 1-particle RhoCI density.

 The electronic state is 1-A.
 Alpha  occ. eigenvalues --  -19.18231 -19.17890 -19.14455 -19.14061 -19.12893
 Alpha  occ. eigenvalues --  -19.07274 -14.37869 -14.37470 -14.35479 -14.26826
 Alpha  occ. eigenvalues --  -10.33192 -10.33036 -10.30262 -10.25816 -10.24391
 Alpha  occ. eigenvalues --  -10.24279 -10.23874 -10.23173 -10.22831 -10.22427
 Alpha  occ. eigenvalues --  -10.22399 -10.21902 -10.21807 -10.21764 -10.21416
 Alpha  occ. eigenvalues --  -10.20803 -10.20797 -10.20706 -10.20516 -10.20372
 Alpha  occ. eigenvalues --  -10.20274 -10.20213 -10.20138 -10.20087 -10.19921
 Alpha  occ. eigenvalues --  -10.19724 -10.18885 -10.18746 -10.18474 -10.18042
 Alpha  occ. eigenvalues --  -10.17354 -10.16677 -10.16106  -1.12570  -1.08752
 Alpha  occ. eigenvalues --   -1.06508  -1.03284  -1.00610  -1.00015  -0.97826
 Alpha  occ. eigenvalues --   -0.97060  -0.96046  -0.90264  -0.82995  -0.82675
 Alpha  occ. eigenvalues --   -0.82435  -0.81894  -0.79635  -0.79193  -0.78354
 Alpha  occ. eigenvalues --   -0.78013  -0.77023  -0.76017  -0.74868  -0.73296
 Alpha  occ. eigenvalues --   -0.71357  -0.70862  -0.69421  -0.68408  -0.68030
 Alpha  occ. eigenvalues --   -0.67689  -0.66664  -0.64794  -0.62882  -0.61851
 Alpha  occ. eigenvalues --   -0.60962  -0.58789  -0.58778  -0.58437  -0.57060
 Alpha  occ. eigenvalues --   -0.56580  -0.55538  -0.55128  -0.53731  -0.53514
 Alpha  occ. eigenvalues --   -0.52385  -0.51964  -0.51134  -0.50487  -0.50321
 Alpha  occ. eigenvalues --   -0.49967  -0.49317  -0.48912  -0.48550  -0.48331
 Alpha  occ. eigenvalues --   -0.47517  -0.46957  -0.46169  -0.45860  -0.45399
 Alpha  occ. eigenvalues --   -0.44885  -0.44802  -0.44732  -0.44263  -0.44023
 Alpha  occ. eigenvalues --   -0.43619  -0.43078  -0.42736  -0.42558  -0.42264
 Alpha  occ. eigenvalues --   -0.41785  -0.41737  -0.41564  -0.41510  -0.41199
 Alpha  occ. eigenvalues --   -0.40959  -0.40562  -0.40508  -0.40302  -0.39802
 Alpha  occ. eigenvalues --   -0.39539  -0.39203  -0.38952  -0.38790  -0.38070
 Alpha  occ. eigenvalues --   -0.37658  -0.37468  -0.37294  -0.36982  -0.36685
 Alpha  occ. eigenvalues --   -0.36673  -0.36370  -0.35744  -0.35122  -0.34654
 Alpha  occ. eigenvalues --   -0.34472  -0.34255  -0.33735  -0.33170  -0.32533
 Alpha  occ. eigenvalues --   -0.32328  -0.32251  -0.31735  -0.30191  -0.29944
 Alpha  occ. eigenvalues --   -0.28930  -0.27410  -0.26525  -0.26263  -0.25120
 Alpha  occ. eigenvalues --   -0.24742  -0.24647  -0.22702  -0.22377  -0.21056
 Alpha  occ. eigenvalues --   -0.18189
 Alpha virt. eigenvalues --   -0.11315  -0.05112  -0.04309  -0.02837  -0.00987
 Alpha virt. eigenvalues --   -0.00304   0.02191   0.03146   0.03928   0.04534
 Alpha virt. eigenvalues --    0.04996   0.05254   0.05652   0.06115   0.06308

 Mulliken charges:
               1
     1  O   -0.164453
     2  O   -0.144020
     3  O   -0.176575
     4  O   -0.205154
     5  O   -0.257674
     6  O   -0.307602
     7  N   -0.188158
     8  N   -0.043400
     9  N   -0.054621
    10  N   -0.302554
    11  C   -0.125062
    12  C    0.085460
    13  C   -0.127233
    14  C    0.115067
    15  C   -0.095516
    16  C    0.068358
    17  C   -0.001319
    18  C   -0.121305
    19  C    0.137846
    20  C   -0.066555
    21  C    0.108423
    22  C    0.085930
    23  C   -0.022796
    24  C    0.118326
    25  C   -0.150270
    26  C    0.002682
    27  C    0.083308
    28  C    0.027519
    29  C   -0.016158
    30  C    0.063125
    31  C   -0.169015
    32  C    0.035210
    33  C   -0.213766
    34  C    0.089990
    35  C   -0.091016
    36  C   -0.182186
    37  C    0.081046
    38  C    0.068957
    39  C    0.184580
    40  C    0.171629
    41  C    0.135909
    42  C    0.074706
    43  C    0.026729
    44  H    0.155453
    45  H   -0.013158
    46  H    0.012002
    47  H    0.013175
    48  H    0.060491
    49  H    0.020690
    50  H    0.010921
    51  H    0.038894
    52  H    0.192592
    53  H    0.019611
    54  H    0.046629
    55  H    0.032510
    56  H    0.122571
    57  H    0.025917
    58  H    0.045861
    59  H    0.073996
    60  H    0.008926
    61  H    0.033996
    62  H   -0.006363
    63  H    0.023194
    64  H   -0.023946
    65  H    0.017808
    66  H    0.033653
    67  H    0.047167
    68  H    0.015982
    69  H    0.110036
    70  H   -0.014563
    71  H    0.055354
    72  H   -0.045299
    73  H   -0.003357
    74  H    0.023879
    75  H    0.052863
    76  H    0.032217
    77  H   -0.004471
    78  H    0.008508
    79  H   -0.029620
    80  H    0.135137
    81  H    0.132353
 Sum of Mulliken charges =  -0.00000

 Dipole moment (field-independent basis, Debye):
    X=             -0.4913    Y=             -1.5650    Z=             -0.7875  Tot=              1.8195
 Quadrupole moment (field-independent basis, Debye-Ang):
   XX=           -250.6857   YY=           -245.1000   ZZ=           -253.1272
   XY=              2.6182   XZ=              9.1405   YZ=            -15.2988

 Normal termination of Gaussian 16 at Sun Jun 30 07:37:06 2019.
