 Gaussian 16, Revision A.03,
 Gaussian 16:  ES64L-G16RevA.03 25-Dec-2016

 --------------------------
 # td=(NStates=1) B3LYP/SVP
 --------------------------

 --
 TD
 --
 Symbolic Z-matrix:
 Charge =  0 Multiplicity = 1

                         Standard orientation:
 ---------------------------------------------------------------------
 Center     Atomic      Atomic             Coordinates (Angstroms)
 Number     Number       Type             X           Y           Z
 ---------------------------------------------------------------------
      1          8           0        4.187046   -4.832067   -1.798864
      2          8           0       -2.859468   -5.179916   -0.941299
      3          8           0       -6.831497   -1.545111   -1.925906
      4          8           0       -3.690303   -3.247649   -0.077803
      5          8           0       -7.510236   -0.706938    0.028056
      6          8           0        2.951812    2.252841    0.241448
      7          7           0        0.313945   -0.390334    0.613826
      8          7           0       -1.578768    1.843824    0.270271
      9          7           0        3.291702   -3.020985   -0.597745
     10          7           0        0.701926    2.958761    0.021845
     11          6           0       -0.685570   -2.356749    1.401001
     12          6           0       -0.949599   -1.003282    0.873411
     13          6           0        0.685913   -2.472542    1.226802
     14          6           0        1.270288   -1.299524    0.727929
     15          6           0       -3.819044    1.545060    0.203470
     16          6           0       -2.635990    0.961862    0.587310
     17          6           0       -2.255474   -0.384463    0.854537
     18          6           0       -3.626427    2.877023   -0.032350
     19          6           0       -1.502090   -3.286784    2.103454
     20          6           0        5.487591   -2.770610   -1.293663
     21          6           0        3.474277   -1.676599   -0.304378
     22          6           0       -2.190127    3.109129   -0.082949
     23          6           0        4.966076   -1.535376   -0.592999
     24          6           0       -5.046776    0.841287    0.403290
     25          6           0        2.511962   -0.897692    0.240689
     26          6           0        1.536859   -3.647156    1.701048
     27          6           0        4.323836   -3.691004   -1.275516
     28          6           0       -2.010293   -4.493194    1.236068
     29          6           0       -5.397212   -0.121685   -0.792498
     30          6           0       -4.539786    3.930848   -0.396476
     31          6           0       -1.338310    4.182621   -0.456833
     32          6           0        6.693201   -3.494780   -0.799585
     33          6           0        5.751958   -0.536019   -0.177586
     34          6           0        0.071062    4.071656   -0.326964
     35          6           0        1.178738    5.133215   -0.504760
     36          6           0        2.326418    4.596842   -0.304556
     37          6           0       -2.834771   -4.119503   -0.033575
     38          6           0        5.350686    0.578892    0.630650
     39          6           0       -6.658520   -0.789991   -0.782204
     40          6           0        3.711944    5.161612   -0.180697
     41          6           0        2.082212    3.135288    0.020012
     42          6           0        0.697557    6.550763   -0.646067
     43          6           0        4.456806    5.054670    1.215154
     44          1           0        0.534782    0.407565   -0.003022
     45          1           0       -3.127569   -0.938089    1.355319
     46          1           0       -2.386974   -2.744913    2.453815
     47          1           0       -1.029765   -3.824731    2.845340
     48          1           0        5.494892   -2.477609   -2.520965
     49          1           0       -4.922834    0.446622    1.555178
     50          1           0       -5.929264    1.471833    0.361997
     51          1           0        2.831200    0.164765    0.262094
     52          1           0       -0.520492    2.073077    0.434114
     53          1           0        1.135378   -4.482150    1.212491
     54          1           0        2.633927   -3.714841    1.485832
     55          1           0        1.142894   -3.799505    2.907129
     56          1           0        2.286638   -3.398722   -0.511462
     57          1           0       -1.113896   -5.017474    1.024958
     58          1           0       -2.657255   -5.258838    1.777152
     59          1           0       -4.762161   -0.996132   -1.041717
     60          1           0       -5.350244    0.466725   -1.638940
     61          1           0       -4.475854    4.815141    0.063228
     62          1           0       -5.544367    3.447957   -0.714047
     63          1           0       -4.308810    4.256532   -1.383851
     64          1           0       -1.918429    5.101960   -0.750516
     65          1           0        7.792083   -2.912013   -0.858460
     66          1           0        6.808046   -4.376714   -1.471313
     67          1           0        6.683154   -3.806401    0.284757
     68          1           0        6.982189   -0.552362   -0.469652
     69          1           0        4.886795    1.493140    0.023150
     70          1           0        6.333280    1.081287    1.019278
     71          1           0        4.656685    0.387660    1.484984
     72          1           0        3.758955    6.348108   -0.401894
     73          1           0        4.389969    4.843013   -1.123397
     74          1           0        0.040111    6.479270   -1.490082
     75          1           0        1.589023    7.165050   -0.882305
     76          1           0        0.079057    6.868045    0.296036
     77          1           0        3.966866    5.670751    2.047199
     78          1           0        5.206619    5.654586    1.103914
     79          1           0        4.530702    4.092305    1.872392
     80          1           0       -3.526529   -4.941647   -1.762192
     81          1           0       -7.793632   -2.084264   -1.855961
 ---------------------------------------------------------------------

 SCF Done:  E(RB3LYP) =  -1949.06108831     A.U. after   16 cycles

 Excitation energies and oscillator strengths:

 Excited State   1:      Singlet-A      1.7847 eV  694.72 nm  f=0.3409  <S**2>=0.000
     156 ->157         0.70865
     156 <-157        -0.12293
 This state for optimization and/or second-order correction.
 Total Energy, E(TD-HF/TD-DFT) =  -1948.99550333
 Copying the excited state density for this state as the 1-particle RhoCI density.

 The electronic state is 1-A.
 Alpha  occ. eigenvalues --  -19.19097 -19.17093 -19.14412 -19.11834 -19.10986
 Alpha  occ. eigenvalues --  -19.10951 -14.38081 -14.37505 -14.33562 -14.29565
 Alpha  occ. eigenvalues --  -10.33754 -10.30557 -10.29633 -10.27479 -10.24609
 Alpha  occ. eigenvalues --  -10.24580 -10.23274 -10.23242 -10.23192 -10.22689
 Alpha  occ. eigenvalues --  -10.22330 -10.22270 -10.22249 -10.21601 -10.21082
 Alpha  occ. eigenvalues --  -10.20972 -10.20932 -10.20888 -10.20702 -10.20674
 Alpha  occ. eigenvalues --  -10.20080 -10.19906 -10.19795 -10.19686 -10.19529
 Alpha  occ. eigenvalues --  -10.19500 -10.19338 -10.19112 -10.18701 -10.18228
 Alpha  occ. eigenvalues --  -10.18211 -10.18119 -10.18019  -1.08173  -1.08161
 Alpha  occ. eigenvalues --   -1.01466  -1.00317  -0.99738  -0.99307  -0.98898
 Alpha  occ. eigenvalues --   -0.95032  -0.94639  -0.92396  -0.84285  -0.82813
 Alpha  occ. eigenvalues --   -0.81857  -0.80773  -0.79964  -0.79310  -0.78232
 Alpha  occ. eigenvalues --   -0.77798  -0.76737  -0.75073  -0.74223  -0.73298
 Alpha  occ. eigenvalues --   -0.71769  -0.69730  -0.69266  -0.69004  -0.67909
 Alpha  occ. eigenvalues --   -0.67841  -0.65030  -0.63914  -0.62322  -0.61751
 Alpha  occ. eigenvalues --   -0.60556  -0.58807  -0.57616  -0.57345  -0.56768
 Alpha  occ. eigenvalues --   -0.55929  -0.55630  -0.54364  -0.52948  -0.52627
 Alpha  occ. eigenvalues --   -0.51933  -0.51465  -0.51247  -0.50402  -0.49473
 Alpha  occ. eigenvalues --   -0.48964  -0.48647  -0.47994  -0.47672  -0.47177
 Alpha  occ. eigenvalues --   -0.46992  -0.46749  -0.46647  -0.45944  -0.45180
 Alpha  occ. eigenvalues --   -0.45136  -0.44525  -0.44226  -0.43967  -0.43561
 Alpha  occ. eigenvalues --   -0.43253  -0.43158  -0.43035  -0.42807  -0.42384
 Alpha  occ. eigenvalues --   -0.41333  -0.41099  -0.40950  -0.40531  -0.40401
 Alpha  occ. eigenvalues --   -0.40365  -0.40284  -0.39841  -0.39582  -0.39443
 Alpha  occ. eigenvalues --   -0.39312  -0.39144  -0.38784  -0.38541  -0.38212
 Alpha  occ. eigenvalues --   -0.38035  -0.37753  -0.37589  -0.37396  -0.37060
 Alpha  occ. eigenvalues --   -0.36321  -0.35836  -0.35265  -0.34792  -0.34687
 Alpha  occ. eigenvalues --   -0.34323  -0.34224  -0.33425  -0.32897  -0.32853
 Alpha  occ. eigenvalues --   -0.32665  -0.31552  -0.30872  -0.29787  -0.29126
 Alpha  occ. eigenvalues --   -0.27437  -0.27337  -0.26588  -0.26130  -0.25934
 Alpha  occ. eigenvalues --   -0.25156  -0.24660  -0.24327  -0.24068  -0.21852
 Alpha  occ. eigenvalues --   -0.17665
 Alpha virt. eigenvalues --   -0.10510  -0.05915  -0.03782  -0.02818  -0.01185
 Alpha virt. eigenvalues --    0.00747   0.01631   0.01960   0.02580   0.02654
 Alpha virt. eigenvalues --    0.03851   0.04301   0.04710   0.04791   0.05115

 Mulliken charges:
               1
     1  O   -0.255508
     2  O   -0.273733
     3  O   -0.297619
     4  O   -0.226475
     5  O   -0.192082
     6  O   -0.253510
     7  N   -0.051509
     8  N   -0.223984
     9  N   -0.175773
    10  N   -0.302583
    11  C   -0.076009
    12  C    0.073264
    13  C   -0.226069
    14  C    0.129093
    15  C   -0.063362
    16  C    0.055165
    17  C   -0.043577
    18  C   -0.114838
    19  C    0.201496
    20  C   -0.035974
    21  C    0.079742
    22  C    0.034741
    23  C   -0.008866
    24  C    0.062168
    25  C   -0.130804
    26  C    0.049652
    27  C    0.132561
    28  C   -0.030680
    29  C    0.042988
    30  C    0.194255
    31  C   -0.094340
    32  C    0.005144
    33  C   -0.184483
    34  C    0.079297
    35  C   -0.107286
    36  C   -0.119356
    37  C    0.177772
    38  C   -0.012745
    39  C    0.113976
    40  C   -0.029299
    41  C    0.187301
    42  C    0.109148
    43  C    0.051691
    44  H    0.159025
    45  H    0.028128
    46  H    0.010233
    47  H   -0.024197
    48  H    0.076524
    49  H    0.059478
    50  H   -0.003909
    51  H    0.023842
    52  H    0.177176
    53  H   -0.001559
    54  H    0.058292
    55  H    0.046815
    56  H    0.155085
    57  H    0.011495
    58  H    0.064060
    59  H    0.053118
    60  H    0.005872
    61  H   -0.015516
    62  H    0.008405
    63  H   -0.011753
    64  H   -0.018195
    65  H    0.032271
    66  H    0.045024
    67  H    0.031133
    68  H    0.030836
    69  H    0.095984
    70  H    0.008083
    71  H    0.046521
    72  H    0.002473
    73  H    0.035189
    74  H    0.017030
    75  H    0.014785
    76  H    0.051884
    77  H   -0.009055
    78  H   -0.037323
    79  H    0.055951
    80  H    0.234963
    81  H    0.232843
 Sum of Mulliken charges =  -0.00000

 Dipole moment (field-independent basis, Debye):
    X=             -1.4938    Y=              1.2017    Z=              0.1268  Tot=              1.9214
 Quadrupole moment (field-independent basis, Debye-Ang):
   XX=           -253.8282   YY=           -240.6675   ZZ=           -252.4292
   XY=             16.2295   XZ=             15.2319   YZ=            -13.3689

 Normal termination of Gaussian 16 at Sun Jun 30 20:01:08 2019.
