 Gaussian 16, Revision A.03,
 Gaussian 16:  ES64L-G16RevA.03 25-Dec-2016

 --------------------------
 # td=(NStates=1) B3LYP/SVP
 --------------------------

 --
 TD
 --
 Symbolic Z-matrix:
 Charge =  0 Multiplicity = 1

                         Standard orientation:
 ---------------------------------------------------------------------
 Center     Atomic      Atomic             Coordinates (Angstroms)
 Number     Number       Type             X           Y           Z
 ---------------------------------------------------------------------
      1          8           0        4.029251   -4.919082   -1.810800
      2          8           0       -2.862065   -4.891696   -1.068773
      3          8           0       -6.995164   -1.431340   -1.913469
      4          8           0       -3.869201   -3.091916   -0.023561
      5          8           0       -7.537379   -0.548619    0.079659
      6          8           0        3.082860    2.313561    0.526271
      7          7           0        0.262284   -0.417121    0.557453
      8          7           0       -1.545597    1.839509    0.379448
      9          7           0        3.179241   -3.154413   -0.640022
     10          7           0        0.902860    2.851092    0.098865
     11          6           0       -0.725928   -2.296759    1.529199
     12          6           0       -0.959402   -0.982970    0.974686
     13          6           0        0.680321   -2.617287    1.210954
     14          6           0        1.228541   -1.391359    0.597657
     15          6           0       -3.737570    1.578097    0.306410
     16          6           0       -2.497417    0.943354    0.623552
     17          6           0       -2.187472   -0.383471    1.008369
     18          6           0       -3.545295    2.846617   -0.257729
     19          6           0       -1.682757   -3.245086    2.146064
     20          6           0        5.423751   -2.936552   -1.447004
     21          6           0        3.572647   -1.864049   -0.163740
     22          6           0       -2.071563    3.028329   -0.177735
     23          6           0        5.023250   -1.705633   -0.613157
     24          6           0       -5.060806    0.956781    0.309731
     25          6           0        2.609021   -0.968549    0.338880
     26          6           0        1.361188   -3.839497    1.684225
     27          6           0        4.234098   -3.822543   -1.277346
     28          6           0       -2.236360   -4.421315    1.253064
     29          6           0       -5.461005    0.054170   -0.883621
     30          6           0       -4.424187    3.862396   -0.617961
     31          6           0       -1.198132    4.043898   -0.328123
     32          6           0        6.745625   -3.527664   -0.919204
     33          6           0        5.764778   -0.719549   -0.137259
     34          6           0        0.242532    3.976588   -0.213484
     35          6           0        1.215059    5.120253   -0.546169
     36          6           0        2.423468    4.604450   -0.222390
     37          6           0       -3.006694   -3.968127    0.015744
     38          6           0        5.558529    0.508950    0.662377
     39          6           0       -6.790257   -0.692154   -0.795190
     40          6           0        3.836078    5.174106   -0.267302
     41          6           0        2.211845    3.156223    0.185717
     42          6           0        0.898753    6.546492   -0.838909
     43          6           0        4.296543    5.485614    1.157608
     44          1           0        0.246228    0.456482    0.005987
     45          1           0       -3.025873   -1.077204    1.175659
     46          1           0       -2.823544   -2.695303    2.442133
     47          1           0       -1.289355   -3.789525    3.072586
     48          1           0        5.615924   -2.705394   -2.531700
     49          1           0       -5.306725    0.153028    1.090816
     50          1           0       -5.878912    1.666150    0.625394
     51          1           0        3.052013    0.023167    0.333243
     52          1           0       -0.521820    2.047776    0.658364
     53          1           0        1.309223   -4.750656    0.816322
     54          1           0        2.424216   -3.716827    1.900063
     55          1           0        1.040012   -4.348710    2.454317
     56          1           0        2.269414   -3.397060   -0.820228
     57          1           0       -1.394617   -5.088556    0.907328
     58          1           0       -2.908705   -4.972920    1.952093
     59          1           0       -4.445410   -0.604118   -1.205395
     60          1           0       -5.584479    0.720407   -1.677308
     61          1           0       -4.408744    4.892424   -0.189111
     62          1           0       -5.398580    3.614365   -0.221737
     63          1           0       -4.513695    3.946007   -1.714446
     64          1           0       -1.738523    4.995249   -0.674919
     65          1           0        7.544796   -2.943043   -0.997556
     66          1           0        6.776712   -4.545692   -1.528713
     67          1           0        6.705665   -3.716634    0.228446
     68          1           0        6.854365   -0.923139   -0.441722
     69          1           0        4.946821    1.354518    0.107933
     70          1           0        6.423441    1.009293    0.971462
     71          1           0        4.976775    0.310020    1.620297
     72          1           0        3.742879    6.067028   -0.811887
     73          1           0        4.535892    4.579856   -0.702794
     74          1           0        0.070956    6.447817   -1.681666
     75          1           0        1.895193    6.977221   -0.981061
     76          1           0        0.458227    7.098856    0.178665
     77          1           0        3.551698    6.285808    1.568843
     78          1           0        5.258357    5.901379    1.139274
     79          1           0        4.082856    4.534481    1.762894
     80          1           0       -3.448682   -4.457651   -1.681606
     81          1           0       -7.919023   -1.652148   -2.022572
 ---------------------------------------------------------------------

 SCF Done:  E(RB3LYP) =  -1949.13381384     A.U. after   18 cycles

 Excitation energies and oscillator strengths:

 Excited State   1:      Singlet-A      1.7009 eV  728.93 nm  f=0.3409  <S**2>=0.000
     156 ->157         0.71239
     156 <-157        -0.14353
 This state for optimization and/or second-order correction.
 Total Energy, E(TD-HF/TD-DFT) =  -1949.07130636
 Copying the excited state density for this state as the 1-particle RhoCI density.

 The electronic state is 1-A.
 Alpha  occ. eigenvalues --  -19.18729 -19.17745 -19.15391 -19.13219 -19.10767
 Alpha  occ. eigenvalues --  -19.09719 -14.38062 -14.36146 -14.35080 -14.29318
 Alpha  occ. eigenvalues --  -10.34200 -10.31976 -10.29247 -10.26167 -10.25297
 Alpha  occ. eigenvalues --  -10.24516 -10.23750 -10.23730 -10.23263 -10.23045
 Alpha  occ. eigenvalues --  -10.22993 -10.22916 -10.21836 -10.21524 -10.21363
 Alpha  occ. eigenvalues --  -10.21289 -10.20812 -10.20574 -10.20354 -10.20350
 Alpha  occ. eigenvalues --  -10.20088 -10.20025 -10.19913 -10.19882 -10.19800
 Alpha  occ. eigenvalues --  -10.19645 -10.19232 -10.19208 -10.19111 -10.18648
 Alpha  occ. eigenvalues --  -10.18122 -10.18052 -10.17607  -1.10715  -1.09186
 Alpha  occ. eigenvalues --   -1.02731  -1.02517  -1.01137  -0.99771  -0.98108
 Alpha  occ. eigenvalues --   -0.96984  -0.93835  -0.91958  -0.82429  -0.82280
 Alpha  occ. eigenvalues --   -0.82173  -0.81342  -0.80137  -0.78825  -0.77555
 Alpha  occ. eigenvalues --   -0.77196  -0.76770  -0.75457  -0.74239  -0.72279
 Alpha  occ. eigenvalues --   -0.71896  -0.69834  -0.68715  -0.68140  -0.67392
 Alpha  occ. eigenvalues --   -0.67211  -0.66129  -0.64876  -0.62018  -0.61460
 Alpha  occ. eigenvalues --   -0.60225  -0.59738  -0.58872  -0.58124  -0.57257
 Alpha  occ. eigenvalues --   -0.55710  -0.54836  -0.54038  -0.53675  -0.52578
 Alpha  occ. eigenvalues --   -0.52424  -0.51741  -0.50850  -0.50340  -0.49759
 Alpha  occ. eigenvalues --   -0.49401  -0.48718  -0.48345  -0.48169  -0.47910
 Alpha  occ. eigenvalues --   -0.47340  -0.46905  -0.45996  -0.45779  -0.45155
 Alpha  occ. eigenvalues --   -0.45059  -0.44877  -0.44344  -0.43893  -0.43787
 Alpha  occ. eigenvalues --   -0.43459  -0.43368  -0.43095  -0.43018  -0.42475
 Alpha  occ. eigenvalues --   -0.42107  -0.41924  -0.41381  -0.41200  -0.41119
 Alpha  occ. eigenvalues --   -0.40770  -0.40120  -0.39770  -0.39558  -0.39267
 Alpha  occ. eigenvalues --   -0.39175  -0.39067  -0.38927  -0.38829  -0.38537
 Alpha  occ. eigenvalues --   -0.38016  -0.37784  -0.37281  -0.36948  -0.36651
 Alpha  occ. eigenvalues --   -0.36153  -0.35886  -0.35500  -0.34915  -0.34076
 Alpha  occ. eigenvalues --   -0.33786  -0.33557  -0.33529  -0.33427  -0.33386
 Alpha  occ. eigenvalues --   -0.32623  -0.31905  -0.31831  -0.30122  -0.29733
 Alpha  occ. eigenvalues --   -0.28693  -0.27756  -0.26378  -0.26079  -0.25527
 Alpha  occ. eigenvalues --   -0.25127  -0.24775  -0.24147  -0.23642  -0.21798
 Alpha  occ. eigenvalues --   -0.17237
 Alpha virt. eigenvalues --   -0.10635  -0.05959  -0.03970  -0.03639  -0.01374
 Alpha virt. eigenvalues --    0.01036   0.01791   0.02080   0.03028   0.04082
 Alpha virt. eigenvalues --    0.04274   0.04988   0.05281   0.05609   0.06223

 Mulliken charges:
               1
     1  O   -0.235197
     2  O   -0.209321
     3  O   -0.191922
     4  O   -0.233715
     5  O   -0.161784
     6  O   -0.257781
     7  N   -0.075392
     8  N   -0.152192
     9  N   -0.111179
    10  N   -0.254641
    11  C   -0.052140
    12  C    0.085177
    13  C   -0.127016
    14  C    0.086131
    15  C   -0.031550
    16  C    0.094626
    17  C   -0.079623
    18  C   -0.068106
    19  C   -0.041778
    20  C   -0.018165
    21  C    0.034364
    22  C    0.050846
    23  C   -0.040576
    24  C    0.001230
    25  C   -0.052733
    26  C    0.112199
    27  C    0.135699
    28  C    0.016902
    29  C   -0.030118
    30  C    0.090412
    31  C   -0.127830
    32  C    0.033270
    33  C   -0.158903
    34  C    0.070208
    35  C   -0.115336
    36  C   -0.206404
    37  C    0.170303
    38  C    0.073588
    39  C    0.135882
    40  C    0.181955
    41  C    0.150122
    42  C    0.037677
    43  C   -0.018867
    44  H    0.155585
    45  H    0.007051
    46  H    0.051024
    47  H    0.037827
    48  H    0.059171
    49  H    0.012312
    50  H    0.017723
    51  H   -0.001759
    52  H    0.175036
    53  H    0.028530
    54  H    0.026216
    55  H   -0.042082
    56  H    0.111033
    57  H    0.040302
    58  H    0.061872
    59  H    0.072296
    60  H    0.001445
    61  H    0.027707
    62  H   -0.014435
    63  H    0.025039
    64  H   -0.013998
    65  H   -0.004337
    66  H    0.053014
    67  H    0.022906
    68  H   -0.007982
    69  H    0.090294
    70  H   -0.012475
    71  H    0.039545
    72  H   -0.038107
    73  H   -0.017418
    74  H    0.056224
    75  H    0.022409
    76  H    0.056300
    77  H    0.003583
    78  H    0.006714
    79  H    0.045224
    80  H    0.166217
    81  H    0.171673
 Sum of Mulliken charges =  -0.00000

 Dipole moment (field-independent basis, Debye):
    X=             -1.9769    Y=              1.5247    Z=             -0.7700  Tot=              2.6126
 Quadrupole moment (field-independent basis, Debye-Ang):
   XX=           -239.0922   YY=           -247.5965   ZZ=           -252.9676
   XY=             10.5017   XZ=             13.1902   YZ=            -16.5567

 Normal termination of Gaussian 16 at Sun Jun 30 08:37:13 2019.
