 Gaussian 16, Revision A.03,
 Gaussian 16:  ES64L-G16RevA.03 25-Dec-2016

 --------------------------
 # td=(NStates=1) B3LYP/SVP
 --------------------------

 --
 TD
 --
 Symbolic Z-matrix:
 Charge =  0 Multiplicity = 1

                         Standard orientation:
 ---------------------------------------------------------------------
 Center     Atomic      Atomic             Coordinates (Angstroms)
 Number     Number       Type             X           Y           Z
 ---------------------------------------------------------------------
      1          8           0        4.307006   -4.854388   -2.040494
      2          8           0       -2.964264   -4.945096   -1.105479
      3          8           0       -6.996754   -1.604553   -1.748699
      4          8           0       -3.790259   -3.109281   -0.058475
      5          8           0       -7.460844   -0.601407    0.284098
      6          8           0        2.967396    2.425092    0.500643
      7          7           0        0.297965   -0.453748    0.558335
      8          7           0       -1.578606    1.845354    0.294250
      9          7           0        3.331124   -3.225157   -0.624863
     10          7           0        0.829534    2.953190    0.060178
     11          6           0       -0.696296   -2.352153    1.428408
     12          6           0       -0.946996   -1.027303    1.016659
     13          6           0        0.630668   -2.630125    1.220178
     14          6           0        1.239063   -1.440178    0.673529
     15          6           0       -3.785191    1.551826    0.292585
     16          6           0       -2.506691    0.899132    0.597151
     17          6           0       -2.297819   -0.452270    0.832028
     18          6           0       -3.426750    2.776667   -0.122412
     19          6           0       -1.708138   -3.241107    2.026590
     20          6           0        5.585153   -2.853877   -1.236872
     21          6           0        3.599415   -1.985187   -0.152737
     22          6           0       -2.061111    2.996552   -0.099714
     23          6           0        5.002190   -1.706001   -0.437987
     24          6           0       -5.133925    0.889190    0.238116
     25          6           0        2.496548   -1.106005    0.333246
     26          6           0        1.365338   -3.876652    1.668729
     27          6           0        4.350198   -3.896433   -1.285819
     28          6           0       -2.137306   -4.398017    1.052321
     29          6           0       -5.378203    0.007926   -0.965618
     30          6           0       -4.473351    3.866722   -0.496914
     31          6           0       -1.304729    4.194081   -0.365232
     32          6           0        6.950351   -3.530438   -0.742016
     33          6           0        5.735949   -0.655253    0.036096
     34          6           0        0.166832    4.059342   -0.336589
     35          6           0        1.114583    5.160185   -0.596250
     36          6           0        2.352891    4.578292   -0.252908
     37          6           0       -3.041868   -4.045397   -0.050471
     38          6           0        5.321939    0.566650    0.820865
     39          6           0       -6.742477   -0.724407   -0.732555
     40          6           0        3.669598    5.303639   -0.232297
     41          6           0        2.146632    3.211041    0.187501
     42          6           0        0.804743    6.482662   -1.059193
     43          6           0        4.325154    5.804168    1.111466
     44          1           0        0.491676    0.520983    0.030276
     45          1           0       -3.239802   -1.113463    1.147967
     46          1           0       -2.607748   -2.623197    2.195573
     47          1           0       -1.366890   -3.840472    2.958431
     48          1           0        5.621928   -2.495810   -2.494274
     49          1           0       -5.261932    0.401261    1.265999
     50          1           0       -5.939904    1.711471    0.419188
     51          1           0        2.887895    0.090003    0.377920
     52          1           0       -0.499966    1.963846    0.623370
     53          1           0        1.614694   -4.566746    0.783866
     54          1           0        2.410608   -3.513604    1.885683
     55          1           0        0.635636   -4.380149    2.380533
     56          1           0        2.434995   -3.527540   -0.903638
     57          1           0       -1.118184   -4.846957    0.593237
     58          1           0       -2.264516   -5.072367    1.938436
     59          1           0       -4.753618   -0.959669   -1.036907
     60          1           0       -5.463800    0.483508   -1.953745
     61          1           0       -4.354876    4.817185    0.056500
     62          1           0       -5.462227    3.559126   -0.186678
     63          1           0       -4.416718    3.830885   -1.531790
     64          1           0       -1.672635    5.122050   -0.438695
     65          1           0        7.826683   -2.666509   -0.567245
     66          1           0        7.138451   -4.309927   -1.515267
     67          1           0        6.673858   -4.053521    0.324211
     68          1           0        6.837709   -0.823937   -0.078389
     69          1           0        4.705036    1.090698    0.039366
     70          1           0        6.243764    1.223456    1.027082
     71          1           0        4.772886    0.237859    1.650156
     72          1           0        3.484010    6.266646   -0.904320
     73          1           0        4.340167    4.711458   -0.669724
     74          1           0        0.685299    6.510158   -2.154464
     75          1           0        1.693744    7.284977   -0.615025
     76          1           0       -0.231357    6.809920   -0.566917
     77          1           0        3.583391    6.638471    1.637015
     78          1           0        5.230844    6.257710    0.964569
     79          1           0        4.554886    5.023237    1.799260
     80          1           0       -3.419871   -4.491587   -1.750606
     81          1           0       -7.750840   -2.153513   -1.618307
 ---------------------------------------------------------------------

 SCF Done:  E(RB3LYP) =  -1949.07920182     A.U. after   19 cycles

 Excitation energies and oscillator strengths:

 Excited State   1:      Singlet-A      1.6648 eV  744.73 nm  f=0.3391  <S**2>=0.000
     156 ->157         0.71187
     156 <-157        -0.12686
 This state for optimization and/or second-order correction.
 Total Energy, E(TD-HF/TD-DFT) =  -1949.01802038
 Copying the excited state density for this state as the 1-particle RhoCI density.

 The electronic state is 1-A.
 Alpha  occ. eigenvalues --  -19.19012 -19.18330 -19.15605 -19.12636 -19.12466
 Alpha  occ. eigenvalues --  -19.09640 -14.38292 -14.37834 -14.35347 -14.27906
 Alpha  occ. eigenvalues --  -10.34404 -10.32613 -10.30329 -10.25789 -10.25021
 Alpha  occ. eigenvalues --  -10.23444 -10.23121 -10.22998 -10.22888 -10.22813
 Alpha  occ. eigenvalues --  -10.22672 -10.22466 -10.22417 -10.22383 -10.21975
 Alpha  occ. eigenvalues --  -10.21744 -10.21404 -10.21104 -10.20807 -10.20560
 Alpha  occ. eigenvalues --  -10.20408 -10.20343 -10.19475 -10.19428 -10.19311
 Alpha  occ. eigenvalues --  -10.19069 -10.18786 -10.18418 -10.18415 -10.18164
 Alpha  occ. eigenvalues --  -10.18089 -10.18005 -10.18001  -1.11913  -1.08454
 Alpha  occ. eigenvalues --   -1.04229  -1.03567  -1.03460  -0.99446  -0.99200
 Alpha  occ. eigenvalues --   -0.97502  -0.96535  -0.91997  -0.83327  -0.81557
 Alpha  occ. eigenvalues --   -0.81444  -0.80430  -0.79034  -0.78353  -0.77882
 Alpha  occ. eigenvalues --   -0.76893  -0.75589  -0.74862  -0.73747  -0.72222
 Alpha  occ. eigenvalues --   -0.70507  -0.70010  -0.68866  -0.68422  -0.67751
 Alpha  occ. eigenvalues --   -0.67083  -0.65476  -0.64605  -0.62714  -0.61933
 Alpha  occ. eigenvalues --   -0.60808  -0.60406  -0.58882  -0.57348  -0.56517
 Alpha  occ. eigenvalues --   -0.55380  -0.55050  -0.54896  -0.53658  -0.52886
 Alpha  occ. eigenvalues --   -0.52849  -0.52189  -0.50911  -0.50315  -0.49110
 Alpha  occ. eigenvalues --   -0.48745  -0.48524  -0.48299  -0.47493  -0.47131
 Alpha  occ. eigenvalues --   -0.46583  -0.46359  -0.46228  -0.45625  -0.45088
 Alpha  occ. eigenvalues --   -0.44657  -0.44352  -0.43855  -0.43756  -0.43552
 Alpha  occ. eigenvalues --   -0.43507  -0.43365  -0.43081  -0.42543  -0.42244
 Alpha  occ. eigenvalues --   -0.42086  -0.41717  -0.41565  -0.41066  -0.40690
 Alpha  occ. eigenvalues --   -0.40632  -0.40609  -0.40132  -0.39860  -0.39782
 Alpha  occ. eigenvalues --   -0.39628  -0.39412  -0.38997  -0.38512  -0.38277
 Alpha  occ. eigenvalues --   -0.37604  -0.37467  -0.37251  -0.36577  -0.36234
 Alpha  occ. eigenvalues --   -0.35886  -0.35486  -0.35221  -0.35042  -0.34974
 Alpha  occ. eigenvalues --   -0.34445  -0.34331  -0.33759  -0.33047  -0.32957
 Alpha  occ. eigenvalues --   -0.32774  -0.32715  -0.31939  -0.30943  -0.30119
 Alpha  occ. eigenvalues --   -0.27747  -0.27138  -0.27103  -0.26254  -0.25490
 Alpha  occ. eigenvalues --   -0.25184  -0.24812  -0.23723  -0.22367  -0.21087
 Alpha  occ. eigenvalues --   -0.17040
 Alpha virt. eigenvalues --   -0.10378  -0.06497  -0.04476  -0.03397  -0.01927
 Alpha virt. eigenvalues --   -0.00141   0.01960   0.02780   0.03691   0.04421
 Alpha virt. eigenvalues --    0.04652   0.05156   0.05562   0.05936   0.06154

 Mulliken charges:
               1
     1  O   -0.210851
     2  O   -0.159681
     3  O   -0.188644
     4  O   -0.201343
     5  O   -0.259920
     6  O   -0.171595
     7  N   -0.179317
     8  N   -0.083143
     9  N   -0.076156
    10  N   -0.309480
    11  C   -0.075158
    12  C    0.071060
    13  C   -0.172155
    14  C    0.160782
    15  C   -0.066342
    16  C    0.045865
    17  C   -0.102148
    18  C   -0.182943
    19  C    0.040488
    20  C   -0.154941
    21  C    0.019010
    22  C    0.076246
    23  C   -0.008068
    24  C    0.061220
    25  C   -0.231281
    26  C    0.094869
    27  C    0.135309
    28  C   -0.062198
    29  C    0.007438
    30  C    0.159347
    31  C   -0.049935
    32  C   -0.027560
    33  C   -0.188134
    34  C    0.058156
    35  C   -0.073501
    36  C   -0.185873
    37  C    0.189340
    38  C    0.099454
    39  C    0.151946
    40  C    0.088167
    41  C    0.116936
    42  C   -0.008651
    43  C    0.017114
    44  H    0.198162
    45  H    0.070263
    46  H    0.014768
    47  H    0.028068
    48  H    0.074162
    49  H    0.028768
    50  H    0.023555
    51  H    0.090965
    52  H    0.194498
    53  H    0.014892
    54  H    0.034496
    55  H    0.025491
    56  H    0.127229
    57  H    0.054237
    58  H    0.058440
    59  H    0.072320
    60  H    0.041812
    61  H    0.026664
    62  H   -0.016790
    63  H    0.004937
    64  H   -0.082160
    65  H    0.061728
    66  H    0.055960
    67  H    0.043688
    68  H   -0.004196
    69  H    0.083060
    70  H    0.022627
    71  H    0.034580
    72  H    0.001455
    73  H   -0.029781
    74  H    0.047176
    75  H    0.054282
    76  H    0.041781
    77  H    0.018488
    78  H   -0.008932
    79  H    0.014544
    80  H    0.144029
    81  H    0.171005
 Sum of Mulliken charges =  -0.00000

 Dipole moment (field-independent basis, Debye):
    X=             -1.2182    Y=             -0.3203    Z=             -0.6301  Tot=              1.4084
 Quadrupole moment (field-independent basis, Debye-Ang):
   XX=           -250.2585   YY=           -247.0622   ZZ=           -255.4450
   XY=             14.8520   XZ=             15.7439   YZ=            -13.9907

 Normal termination of Gaussian 16 at Sun Jun 30 16:06:05 2019.
