 Gaussian 16, Revision A.03,
 Gaussian 16:  ES64L-G16RevA.03 25-Dec-2016

 --------------------------
 # td=(NStates=1) B3LYP/SVP
 --------------------------

 --
 TD
 --
 Symbolic Z-matrix:
 Charge =  0 Multiplicity = 1

                         Standard orientation:
 ---------------------------------------------------------------------
 Center     Atomic      Atomic             Coordinates (Angstroms)
 Number     Number       Type             X           Y           Z
 ---------------------------------------------------------------------
      1          8           0        4.096542   -4.996081   -1.803888
      2          8           0       -2.975196   -5.034931   -0.989076
      3          8           0       -7.028946   -1.498556   -1.787397
      4          8           0       -3.720317   -3.126749    0.101219
      5          8           0       -7.658400   -0.423376    0.126046
      6          8           0        3.044435    2.313248    0.497332
      7          7           0        0.223460   -0.447875    0.604527
      8          7           0       -1.500959    1.936481    0.461121
      9          7           0        3.231854   -3.009833   -0.779971
     10          7           0        0.847600    2.863161    0.116439
     11          6           0       -0.654071   -2.326676    1.524371
     12          6           0       -1.037218   -1.129287    0.859134
     13          6           0        0.742689   -2.511538    1.230965
     14          6           0        1.234410   -1.344048    0.665787
     15          6           0       -3.766930    1.612509    0.321705
     16          6           0       -2.494042    0.960376    0.520577
     17          6           0       -2.368307   -0.408753    0.650645
     18          6           0       -3.505005    2.913068   -0.099075
     19          6           0       -1.636470   -3.382051    2.041157
     20          6           0        5.409275   -2.890390   -1.275032
     21          6           0        3.571756   -1.737609   -0.314104
     22          6           0       -2.042266    3.092288    0.061652
     23          6           0        4.946226   -1.708653   -0.489830
     24          6           0       -5.108621    1.026412    0.139304
     25          6           0        2.605457   -0.978591    0.350018
     26          6           0        1.550249   -3.670308    1.809514
     27          6           0        4.210989   -3.887620   -1.242417
     28          6           0       -2.064764   -4.581923    1.063410
     29          6           0       -5.431439   -0.082540   -0.868809
     30          6           0       -4.513260    3.951454   -0.471514
     31          6           0       -1.239406    4.074933   -0.361033
     32          6           0        6.690063   -3.529432   -0.772146
     33          6           0        5.802448   -0.618833   -0.244977
     34          6           0        0.194119    4.006994   -0.327203
     35          6           0        1.172652    5.077684   -0.428604
     36          6           0        2.396782    4.524049   -0.224357
     37          6           0       -2.945235   -4.055534    0.027870
     38          6           0        5.371338    0.631229    0.574406
     39          6           0       -6.883171   -0.655020   -0.762095
     40          6           0        3.834059    5.107280   -0.275944
     41          6           0        2.139134    3.065581    0.136444
     42          6           0        0.972320    6.480459   -0.929432
     43          6           0        4.447925    5.417047    1.173787
     44          1           0        0.259570    0.433964    0.053897
     45          1           0       -3.169561   -1.274678    0.459936
     46          1           0       -2.507099   -2.713323    2.280028
     47          1           0       -1.228998   -3.741537    2.884812
     48          1           0        5.607434   -2.636522   -2.320712
     49          1           0       -5.498267    0.664027    1.240627
     50          1           0       -5.930300    1.746478   -0.132789
     51          1           0        2.869470   -0.087892    0.634305
     52          1           0       -0.374068    1.972515    0.609675
     53          1           0        1.295078   -4.259790    0.979567
     54          1           0        2.713071   -3.573222    1.910431
     55          1           0        1.155942   -3.690812    2.946063
     56          1           0        2.238561   -3.407460   -1.002951
     57          1           0       -1.131062   -5.185199    0.625087
     58          1           0       -2.430710   -5.307098    1.824592
     59          1           0       -4.861234   -1.025220   -0.743960
     60          1           0       -4.904347    0.166969   -2.034954
     61          1           0       -4.837121    4.656738    0.587466
     62          1           0       -5.503559    3.464367   -0.904312
     63          1           0       -3.973502    4.848791   -1.210300
     64          1           0       -1.630674    4.985017   -0.730290
     65          1           0        7.572686   -2.830703   -0.602414
     66          1           0        6.824868   -4.346316   -1.637410
     67          1           0        6.593644   -4.090857    0.091963
     68          1           0        6.828816   -0.629826   -0.536621
     69          1           0        4.857766    1.258953   -0.132290
     70          1           0        6.131190    1.284098    0.952753
     71          1           0        4.766077    0.341915    1.458862
     72          1           0        3.806374    6.053289   -0.643718
     73          1           0        4.389032    4.363522   -0.809066
     74          1           0        0.180603    6.595163   -1.659139
     75          1           0        1.962582    7.020414   -1.145332
     76          1           0        0.502139    7.155905   -0.138351
     77          1           0        3.695953    6.065361    1.372249
     78          1           0        5.472898    5.789583    0.989853
     79          1           0        4.508518    4.360783    1.704000
     80          1           0       -3.555114   -4.611864   -1.865226
     81          1           0       -7.985407   -1.732863   -1.710088
 ---------------------------------------------------------------------

 SCF Done:  E(RB3LYP) =  -1949.03521446     A.U. after   17 cycles

 Excitation energies and oscillator strengths:

 Excited State   1:      Singlet-A      1.5844 eV  782.52 nm  f=0.2068  <S**2>=0.000
     156 ->157         0.70620
 This state for optimization and/or second-order correction.
 Total Energy, E(TD-HF/TD-DFT) =  -1948.97698767
 Copying the excited state density for this state as the 1-particle RhoCI density.

 The electronic state is 1-A.
 Alpha  occ. eigenvalues --  -19.19986 -19.19870 -19.16281 -19.14150 -19.11207
 Alpha  occ. eigenvalues --  -19.09637 -14.36963 -14.36820 -14.35793 -14.29590
 Alpha  occ. eigenvalues --  -10.34680 -10.33256 -10.29027 -10.25812 -10.24271
 Alpha  occ. eigenvalues --  -10.24138 -10.24102 -10.24077 -10.23748 -10.23177
 Alpha  occ. eigenvalues --  -10.23081 -10.22632 -10.22368 -10.22317 -10.21498
 Alpha  occ. eigenvalues --  -10.20973 -10.20918 -10.20444 -10.20217 -10.20126
 Alpha  occ. eigenvalues --  -10.20102 -10.19767 -10.19660 -10.19633 -10.19303
 Alpha  occ. eigenvalues --  -10.19077 -10.18803 -10.18580 -10.18409 -10.18265
 Alpha  occ. eigenvalues --  -10.18092 -10.17481 -10.16721  -1.11410  -1.09390
 Alpha  occ. eigenvalues --   -1.02632  -1.01489  -1.01055  -1.00986  -0.98487
 Alpha  occ. eigenvalues --   -0.96428  -0.94894  -0.92771  -0.82648  -0.81460
 Alpha  occ. eigenvalues --   -0.80703  -0.80633  -0.79633  -0.78618  -0.77450
 Alpha  occ. eigenvalues --   -0.76816  -0.76182  -0.75126  -0.73600  -0.72161
 Alpha  occ. eigenvalues --   -0.70090  -0.69579  -0.68903  -0.68181  -0.67496
 Alpha  occ. eigenvalues --   -0.66847  -0.65747  -0.63451  -0.62460  -0.61513
 Alpha  occ. eigenvalues --   -0.59919  -0.59457  -0.58369  -0.57085  -0.56171
 Alpha  occ. eigenvalues --   -0.55216  -0.54688  -0.53958  -0.53256  -0.53104
 Alpha  occ. eigenvalues --   -0.52910  -0.52098  -0.50805  -0.50561  -0.50010
 Alpha  occ. eigenvalues --   -0.49811  -0.49063  -0.48358  -0.48073  -0.47755
 Alpha  occ. eigenvalues --   -0.46998  -0.46657  -0.46328  -0.45870  -0.45655
 Alpha  occ. eigenvalues --   -0.45160  -0.44540  -0.44152  -0.43917  -0.43731
 Alpha  occ. eigenvalues --   -0.43438  -0.43173  -0.42861  -0.42522  -0.42081
 Alpha  occ. eigenvalues --   -0.41958  -0.41732  -0.41094  -0.40854  -0.40711
 Alpha  occ. eigenvalues --   -0.40291  -0.39972  -0.39855  -0.39523  -0.39115
 Alpha  occ. eigenvalues --   -0.38734  -0.38657  -0.38416  -0.38264  -0.38059
 Alpha  occ. eigenvalues --   -0.37403  -0.37052  -0.36664  -0.36578  -0.36311
 Alpha  occ. eigenvalues --   -0.36001  -0.35756  -0.34897  -0.34722  -0.34554
 Alpha  occ. eigenvalues --   -0.34010  -0.33889  -0.33636  -0.33164  -0.32923
 Alpha  occ. eigenvalues --   -0.32761  -0.32301  -0.32160  -0.31172  -0.29686
 Alpha  occ. eigenvalues --   -0.29272  -0.28216  -0.26025  -0.25441  -0.25232
 Alpha  occ. eigenvalues --   -0.24787  -0.24219  -0.23712  -0.23225  -0.21588
 Alpha  occ. eigenvalues --   -0.17837
 Alpha virt. eigenvalues --   -0.11038  -0.06034  -0.04727  -0.04369  -0.00629
 Alpha virt. eigenvalues --   -0.00421  -0.00217   0.01382   0.02614   0.03139
 Alpha virt. eigenvalues --    0.03197   0.04156   0.04788   0.05044   0.05752

 Mulliken charges:
               1
     1  O   -0.247342
     2  O   -0.296198
     3  O   -0.166262
     4  O   -0.213484
     5  O   -0.205991
     6  O   -0.230627
     7  N   -0.111164
     8  N   -0.139792
     9  N   -0.193826
    10  N   -0.278276
    11  C   -0.139575
    12  C   -0.017267
    13  C   -0.205958
    14  C    0.112860
    15  C    0.001351
    16  C    0.173474
    17  C   -0.143505
    18  C   -0.107951
    19  C    0.137892
    20  C   -0.092324
    21  C    0.140633
    22  C    0.144989
    23  C   -0.010012
    24  C    0.023980
    25  C   -0.016148
    26  C    0.032219
    27  C    0.172042
    28  C   -0.033746
    29  C   -0.105383
    30  C   -0.070756
    31  C   -0.093491
    32  C    0.034877
    33  C   -0.129445
    34  C    0.075415
    35  C   -0.081780
    36  C   -0.218404
    37  C    0.227028
    38  C    0.079762
    39  C    0.147214
    40  C    0.145308
    41  C    0.124633
    42  C    0.081024
    43  C   -0.021410
    44  H    0.140222
    45  H    0.096091
    46  H    0.025661
    47  H   -0.042988
    48  H    0.045076
    49  H    0.044859
    50  H    0.018261
    51  H   -0.092119
    52  H    0.202262
    53  H    0.020791
    54  H    0.046831
    55  H    0.061995
    56  H    0.151997
    57  H    0.065450
    58  H    0.070579
    59  H    0.045968
    60  H    0.053044
    61  H    0.060082
    62  H    0.062220
    63  H    0.051521
    64  H   -0.055004
    65  H    0.027562
    66  H    0.034515
    67  H   -0.011038
    68  H   -0.014864
    69  H    0.051580
    70  H   -0.012100
    71  H    0.041947
    72  H   -0.049571
    73  H    0.012545
    74  H    0.010107
    75  H    0.032417
    76  H    0.008438
    77  H    0.004585
    78  H    0.025922
    79  H    0.057551
    80  H    0.244460
    81  H    0.178562
 Sum of Mulliken charges =  -0.00000

 Dipole moment (field-independent basis, Debye):
    X=             -3.6974    Y=              1.7134    Z=             -1.6659  Tot=              4.4025
 Quadrupole moment (field-independent basis, Debye-Ang):
   XX=           -248.3486   YY=           -246.6811   ZZ=           -254.3950
   XY=             21.5439   XZ=             16.9690   YZ=            -14.1400

 Normal termination of Gaussian 16 at Tue Jul  2 18:15:11 2019.
