 Gaussian 16, Revision A.03,
 Gaussian 16:  ES64L-G16RevA.03 25-Dec-2016

 --------------------------
 # td=(NStates=1) B3LYP/SVP
 --------------------------

 --
 TD
 --
 Symbolic Z-matrix:
 Charge =  0 Multiplicity = 1

                         Standard orientation:
 ---------------------------------------------------------------------
 Center     Atomic      Atomic             Coordinates (Angstroms)
 Number     Number       Type             X           Y           Z
 ---------------------------------------------------------------------
      1          8           0        4.302659   -4.887967   -1.827199
      2          8           0       -2.990148   -5.084605   -0.911306
      3          8           0       -6.801698   -1.689055   -1.962165
      4          8           0       -3.798539   -3.245980    0.207562
      5          8           0       -7.545629   -0.581419   -0.077398
      6          8           0        2.904396    2.493690    0.504435
      7          7           0        0.245042   -0.544385    0.518378
      8          7           0       -1.569652    1.870907    0.369789
      9          7           0        3.339954   -3.119192   -0.702457
     10          7           0        0.672691    2.933277   -0.047148
     11          6           0       -0.631983   -2.308613    1.408860
     12          6           0       -0.912856   -1.042583    0.903716
     13          6           0        0.768047   -2.571302    1.216788
     14          6           0        1.317086   -1.375547    0.681362
     15          6           0       -3.732269    1.451448    0.317871
     16          6           0       -2.515764    0.931165    0.642035
     17          6           0       -2.206246   -0.418649    0.882846
     18          6           0       -3.568576    2.832550   -0.041839
     19          6           0       -1.577923   -3.275785    2.104763
     20          6           0        5.445170   -2.812083   -1.405874
     21          6           0        3.623881   -1.809206   -0.343185
     22          6           0       -2.164156    3.021622   -0.000381
     23          6           0        5.035238   -1.547285   -0.582758
     24          6           0       -5.085359    0.696629    0.297819
     25          6           0        2.603723   -0.962236    0.178294
     26          6           0        1.586277   -3.769598    1.798877
     27          6           0        4.348136   -3.757323   -1.343054
     28          6           0       -1.980336   -4.524323    1.324099
     29          6           0       -5.360914   -0.056878   -0.978142
     30          6           0       -4.429653    3.931444   -0.477336
     31          6           0       -1.333531    4.115090   -0.346300
     32          6           0        6.772473   -3.386042   -1.010570
     33          6           0        5.879963   -0.547756   -0.166963
     34          6           0        0.016213    4.099753   -0.268822
     35          6           0        0.965322    5.216917   -0.506998
     36          6           0        2.269639    4.682921   -0.159193
     37          6           0       -2.967064   -4.161422    0.093116
     38          6           0        5.413589    0.590239    0.679591
     39          6           0       -6.699367   -0.869617   -0.923799
     40          6           0        3.603481    5.416217   -0.129611
     41          6           0        1.998193    3.344133    0.066474
     42          6           0        0.609931    6.530523   -0.908662
     43          6           0        4.266438    5.347473    1.279699
     44          1           0        0.448951    0.349392    0.363020
     45          1           0       -3.022854   -1.022048    0.955665
     46          1           0       -2.627406   -2.698413    2.589327
     47          1           0       -1.004886   -3.576699    3.111356
     48          1           0        5.404490   -2.491841   -2.456046
     49          1           0       -5.015393   -0.110780    1.012957
     50          1           0       -5.925782    1.398675    0.428377
     51          1           0        2.830337    0.064786    0.206962
     52          1           0       -0.566439    1.865208    0.375199
     53          1           0        1.734868   -4.600301    1.045549
     54          1           0        2.494855   -3.495973    2.209756
     55          1           0        1.226564   -4.076500    2.612703
     56          1           0        2.390682   -3.427965   -0.421211
     57          1           0       -1.219263   -5.225466    0.881499
     58          1           0       -2.673586   -5.217045    1.939640
     59          1           0       -4.532366   -0.684496   -1.353704
     60          1           0       -5.207503    0.727890   -1.728208
     61          1           0       -4.701692    4.758615    0.338190
     62          1           0       -5.459057    3.552317   -0.522393
     63          1           0       -3.994153    4.277264   -1.638574
     64          1           0       -1.892061    4.995273   -0.536072
     65          1           0        7.688535   -2.772337   -1.359525
     66          1           0        6.710093   -4.476256   -1.411747
     67          1           0        6.685134   -3.589397    0.127015
     68          1           0        6.941825   -0.846813   -0.456227
     69          1           0        4.505322    1.161115    0.372079
     70          1           0        6.344665    1.284475    0.904529
     71          1           0        5.101833    0.271479    1.573298
     72          1           0        3.537167    6.539830   -0.541229
     73          1           0        4.400551    4.943269   -0.751940
     74          1           0        0.350271    6.706675   -2.016158
     75          1           0        1.463015    7.288692   -0.868302
     76          1           0       -0.098913    6.848711   -0.256815
     77          1           0        3.930112    6.074425    1.869037
     78          1           0        5.321694    5.660110    1.159903
     79          1           0        4.187402    4.153214    1.711278
     80          1           0       -3.554449   -4.585228   -1.582395
     81          1           0       -7.727962   -2.116661   -2.024485
 ---------------------------------------------------------------------

 SCF Done:  E(RB3LYP) =  -1949.09681747     A.U. after   23 cycles

 Excitation energies and oscillator strengths:

 Excited State   1:      Singlet-A      1.6703 eV  742.28 nm  f=0.2943  <S**2>=0.000
     156 ->157         0.70496
     156 <-157        -0.12281
 This state for optimization and/or second-order correction.
 Total Energy, E(TD-HF/TD-DFT) =  -1949.03543467
 Copying the excited state density for this state as the 1-particle RhoCI density.

 The electronic state is 1-A.
 Alpha  occ. eigenvalues --  -19.20830 -19.20358 -19.14668 -19.13055 -19.10611
 Alpha  occ. eigenvalues --  -19.08197 -14.37565 -14.37221 -14.34907 -14.27971
 Alpha  occ. eigenvalues --  -10.34281 -10.33101 -10.28887 -10.24923 -10.24917
 Alpha  occ. eigenvalues --  -10.24089 -10.23899 -10.23576 -10.23464 -10.22928
 Alpha  occ. eigenvalues --  -10.22875 -10.22105 -10.21758 -10.21690 -10.20888
 Alpha  occ. eigenvalues --  -10.20719 -10.20694 -10.20593 -10.20373 -10.20168
 Alpha  occ. eigenvalues --  -10.20163 -10.20040 -10.20037 -10.19980 -10.19872
 Alpha  occ. eigenvalues --  -10.19826 -10.19061 -10.18996 -10.18953 -10.18800
 Alpha  occ. eigenvalues --  -10.17946 -10.17212 -10.17088  -1.10401  -1.10002
 Alpha  occ. eigenvalues --   -1.03281  -1.01241  -1.01126  -1.00745  -0.99307
 Alpha  occ. eigenvalues --   -0.96578  -0.96055  -0.90094  -0.82758  -0.82150
 Alpha  occ. eigenvalues --   -0.81856  -0.81529  -0.79561  -0.79196  -0.77547
 Alpha  occ. eigenvalues --   -0.77423  -0.77037  -0.75560  -0.74411  -0.73499
 Alpha  occ. eigenvalues --   -0.72193  -0.70308  -0.69475  -0.68494  -0.67879
 Alpha  occ. eigenvalues --   -0.67599  -0.66329  -0.65214  -0.62522  -0.61588
 Alpha  occ. eigenvalues --   -0.60736  -0.60387  -0.59406  -0.58532  -0.57876
 Alpha  occ. eigenvalues --   -0.56494  -0.55826  -0.55513  -0.54483  -0.53498
 Alpha  occ. eigenvalues --   -0.52692  -0.51356  -0.50692  -0.50530  -0.50038
 Alpha  occ. eigenvalues --   -0.49593  -0.49170  -0.48658  -0.48485  -0.48215
 Alpha  occ. eigenvalues --   -0.47153  -0.46523  -0.46253  -0.46150  -0.45442
 Alpha  occ. eigenvalues --   -0.45263  -0.44990  -0.44659  -0.44308  -0.43944
 Alpha  occ. eigenvalues --   -0.43430  -0.43184  -0.42660  -0.42547  -0.42357
 Alpha  occ. eigenvalues --   -0.42123  -0.42027  -0.41856  -0.41419  -0.41121
 Alpha  occ. eigenvalues --   -0.40961  -0.40608  -0.40563  -0.39948  -0.39547
 Alpha  occ. eigenvalues --   -0.39378  -0.38889  -0.38584  -0.38406  -0.38204
 Alpha  occ. eigenvalues --   -0.38015  -0.37268  -0.36859  -0.36510  -0.36258
 Alpha  occ. eigenvalues --   -0.36122  -0.35307  -0.34938  -0.34684  -0.34536
 Alpha  occ. eigenvalues --   -0.34158  -0.33962  -0.33517  -0.33144  -0.32928
 Alpha  occ. eigenvalues --   -0.32555  -0.31882  -0.31657  -0.29493  -0.29354
 Alpha  occ. eigenvalues --   -0.28452  -0.27555  -0.26541  -0.26152  -0.25884
 Alpha  occ. eigenvalues --   -0.25236  -0.24722  -0.22948  -0.22446  -0.21026
 Alpha  occ. eigenvalues --   -0.18030
 Alpha virt. eigenvalues --   -0.11232  -0.06805  -0.05114  -0.02665  -0.00892
 Alpha virt. eigenvalues --    0.00317   0.02248   0.02489   0.02950   0.03359
 Alpha virt. eigenvalues --    0.03758   0.04051   0.04586   0.05109   0.05441

 Mulliken charges:
               1
     1  O   -0.229748
     2  O   -0.189193
     3  O   -0.184481
     4  O   -0.259163
     5  O   -0.243459
     6  O   -0.331139
     7  N    0.063930
     8  N   -0.029607
     9  N   -0.081293
    10  N   -0.310676
    11  C   -0.083781
    12  C    0.051226
    13  C   -0.211717
    14  C    0.040606
    15  C   -0.131468
    16  C    0.097140
    17  C   -0.014353
    18  C   -0.107950
    19  C   -0.011684
    20  C   -0.043369
    21  C    0.025241
    22  C    0.031987
    23  C   -0.041433
    24  C    0.146762
    25  C   -0.022927
    26  C    0.202363
    27  C    0.108888
    28  C    0.012624
    29  C   -0.037431
    30  C    0.016505
    31  C   -0.114766
    32  C   -0.010327
    33  C   -0.095817
    34  C    0.145131
    35  C   -0.109403
    36  C   -0.058337
    37  C    0.142518
    38  C    0.056093
    39  C    0.193923
    40  C    0.030641
    41  C    0.156561
    42  C    0.095231
    43  C   -0.017551
    44  H    0.073149
    45  H   -0.051429
    46  H    0.057036
    47  H    0.043518
    48  H    0.047009
    49  H    0.006725
    50  H    0.023243
    51  H   -0.029166
    52  H    0.112530
    53  H    0.036993
    54  H   -0.000139
    55  H   -0.073058
    56  H    0.134888
    57  H    0.040264
    58  H    0.058978
    59  H    0.014490
    60  H    0.019203
    61  H    0.050418
    62  H   -0.001275
    63  H    0.068277
    64  H   -0.051861
    65  H    0.052687
    66  H    0.046486
    67  H    0.023442
    68  H    0.003117
    69  H    0.097815
    70  H    0.018932
    71  H   -0.008099
    72  H    0.009752
    73  H    0.018994
    74  H    0.038271
    75  H    0.003750
    76  H    0.006366
    77  H   -0.024787
    78  H   -0.006859
    79  H    0.082269
    80  H    0.200606
    81  H    0.211171
 Sum of Mulliken charges =  -0.00000

 Dipole moment (field-independent basis, Debye):
    X=             -3.2891    Y=              0.0221    Z=             -0.7177  Tot=              3.3665
 Quadrupole moment (field-independent basis, Debye-Ang):
   XX=           -249.9319   YY=           -242.5308   ZZ=           -251.1840
   XY=             15.1798   XZ=             18.7269   YZ=            -15.0878

 Normal termination of Gaussian 16 at Wed Jul  3 02:54:24 2019.
