 Gaussian 16, Revision A.03,
 Gaussian 16:  ES64L-G16RevA.03 25-Dec-2016

 --------------------------
 # td=(NStates=1) B3LYP/SVP
 --------------------------

 --
 TD
 --
 Symbolic Z-matrix:
 Charge =  0 Multiplicity = 1

                         Standard orientation:
 ---------------------------------------------------------------------
 Center     Atomic      Atomic             Coordinates (Angstroms)
 Number     Number       Type             X           Y           Z
 ---------------------------------------------------------------------
      1          8           0        4.072744   -4.973608   -1.854190
      2          8           0       -2.801950   -4.784743   -1.122329
      3          8           0       -6.746075   -1.751761   -1.965789
      4          8           0       -3.676873   -3.103133    0.160035
      5          8           0       -7.615526   -0.656266   -0.156767
      6          8           0        3.075450    2.405253    0.248260
      7          7           0        0.325823   -0.454967    0.606986
      8          7           0       -1.595727    1.899591    0.402907
      9          7           0        3.185586   -3.025099   -0.653838
     10          7           0        0.824821    2.967561   -0.002361
     11          6           0       -0.618525   -2.391728    1.478228
     12          6           0       -0.960027   -1.078243    0.993663
     13          6           0        0.726682   -2.585627    1.262328
     14          6           0        1.328606   -1.412655    0.795381
     15          6           0       -3.854654    1.480834    0.274401
     16          6           0       -2.518242    0.845146    0.582282
     17          6           0       -2.204425   -0.454314    0.966546
     18          6           0       -3.544500    2.728958   -0.053431
     19          6           0       -1.627752   -3.300362    2.143537
     20          6           0        5.411292   -2.815309   -1.358455
     21          6           0        3.577813   -1.805432   -0.268067
     22          6           0       -2.232125    2.984145   -0.080403
     23          6           0        4.996570   -1.682775   -0.648363
     24          6           0       -5.166605    0.783142    0.325807
     25          6           0        2.669558   -1.060927    0.443035
     26          6           0        1.565264   -3.611560    1.828999
     27          6           0        4.246603   -3.806856   -1.349453
     28          6           0       -1.878303   -4.439783    1.187947
     29          6           0       -5.303002   -0.280354   -0.829537
     30          6           0       -4.589807    3.834644   -0.425863
     31          6           0       -1.391959    4.098105   -0.491523
     32          6           0        6.755798   -3.461069   -0.852524
     33          6           0        5.725028   -0.602571   -0.261939
     34          6           0        0.040137    4.108873   -0.248638
     35          6           0        1.073559    5.277712   -0.347527
     36          6           0        2.244435    4.742554   -0.165638
     37          6           0       -2.950756   -4.103323    0.090563
     38          6           0        5.504274    0.645895    0.478833
     39          6           0       -6.677824   -0.919602   -0.845709
     40          6           0        3.573020    5.438792   -0.189840
     41          6           0        2.136004    3.271072    0.073786
     42          6           0        0.558426    6.654797   -0.972127
     43          6           0        4.282652    5.440826    1.241361
     44          1           0        0.404460    0.558221    0.434702
     45          1           0       -3.156898   -1.059898    1.255526
     46          1           0       -2.708323   -2.920114    2.560918
     47          1           0       -1.250034   -3.738372    2.980629
     48          1           0        5.645821   -2.642178   -2.372679
     49          1           0       -5.102810    0.202569    1.160584
     50          1           0       -5.846825    1.539322    0.289249
     51          1           0        2.800431   -0.024364    0.429120
     52          1           0       -0.553835    2.008868    0.308858
     53          1           0        1.531445   -4.608735    1.275686
     54          1           0        2.633760   -3.383342    1.938261
     55          1           0        1.089374   -4.172015    2.720185
     56          1           0        2.167281   -3.159734   -0.723614
     57          1           0       -0.903255   -4.843719    0.712662
     58          1           0       -2.298649   -5.328243    1.657453
     59          1           0       -4.487959   -0.956851   -0.656466
     60          1           0       -4.938223    0.097959   -1.730081
     61          1           0       -4.363788    4.744472    0.113806
     62          1           0       -5.664067    3.687203    0.053195
     63          1           0       -4.455634    3.932360   -1.500354
     64          1           0       -1.857170    5.190893   -0.585617
     65          1           0        7.697259   -2.847620   -0.936561
     66          1           0        7.034002   -4.519275   -1.369400
     67          1           0        6.826306   -3.866741    0.184576
     68          1           0        6.696635   -0.620900   -0.679498
     69          1           0        5.122829    1.547054    0.013173
     70          1           0        6.428981    0.995731    0.936586
     71          1           0        4.891684    0.229293    1.204980
     72          1           0        3.453744    6.524310   -0.545475
     73          1           0        4.345981    4.783275   -0.811532
     74          1           0        0.030372    6.499860   -2.011229
     75          1           0        1.660070    7.164819   -1.115639
     76          1           0       -0.051463    7.299871   -0.280590
     77          1           0        3.728971    5.893398    2.167657
     78          1           0        5.450166    5.680495    1.432125
     79          1           0        4.168276    4.397826    1.617955
     80          1           0       -3.557630   -4.498259   -1.651612
     81          1           0       -7.640240   -1.721002   -2.093121
 ---------------------------------------------------------------------

 SCF Done:  E(RB3LYP) =  -1949.09113364     A.U. after   19 cycles

 Excitation energies and oscillator strengths:

 Excited State   1:      Singlet-A      1.8011 eV  688.36 nm  f=0.3590  <S**2>=0.000
     156 ->157         0.70909
     156 <-157        -0.11734
 This state for optimization and/or second-order correction.
 Total Energy, E(TD-HF/TD-DFT) =  -1949.02494264
 Copying the excited state density for this state as the 1-particle RhoCI density.

 The electronic state is 1-A.
 Alpha  occ. eigenvalues --  -19.19560 -19.17322 -19.15142 -19.14391 -19.13358
 Alpha  occ. eigenvalues --  -19.09139 -14.37545 -14.37532 -14.35454 -14.28755
 Alpha  occ. eigenvalues --  -10.34524 -10.32809 -10.31987 -10.25943 -10.24356
 Alpha  occ. eigenvalues --  -10.24348 -10.23689 -10.23578 -10.23514 -10.23212
 Alpha  occ. eigenvalues --  -10.23130 -10.22295 -10.22168 -10.22001 -10.21706
 Alpha  occ. eigenvalues --  -10.21213 -10.21207 -10.20596 -10.20428 -10.20361
 Alpha  occ. eigenvalues --  -10.20339 -10.20175 -10.20126 -10.20026 -10.19925
 Alpha  occ. eigenvalues --  -10.19840 -10.19601 -10.18988 -10.18682 -10.18608
 Alpha  occ. eigenvalues --  -10.18333 -10.17809 -10.16732  -1.10474  -1.09614
 Alpha  occ. eigenvalues --   -1.02418  -1.01452  -1.01231  -0.98410  -0.97443
 Alpha  occ. eigenvalues --   -0.96574  -0.95677  -0.89889  -0.83976  -0.83543
 Alpha  occ. eigenvalues --   -0.82891  -0.81400  -0.79187  -0.78864  -0.78559
 Alpha  occ. eigenvalues --   -0.77755  -0.76398  -0.74528  -0.72843  -0.71885
 Alpha  occ. eigenvalues --   -0.70907  -0.70391  -0.68930  -0.68470  -0.67900
 Alpha  occ. eigenvalues --   -0.67090  -0.66011  -0.64764  -0.62442  -0.60782
 Alpha  occ. eigenvalues --   -0.60447  -0.59800  -0.59374  -0.58699  -0.57593
 Alpha  occ. eigenvalues --   -0.56576  -0.56075  -0.54864  -0.53911  -0.53097
 Alpha  occ. eigenvalues --   -0.52624  -0.51705  -0.51219  -0.50921  -0.50544
 Alpha  occ. eigenvalues --   -0.49616  -0.49209  -0.49105  -0.48874  -0.48301
 Alpha  occ. eigenvalues --   -0.47403  -0.46677  -0.45975  -0.45798  -0.45602
 Alpha  occ. eigenvalues --   -0.45355  -0.44731  -0.44198  -0.43982  -0.43590
 Alpha  occ. eigenvalues --   -0.43146  -0.42929  -0.42730  -0.42314  -0.42169
 Alpha  occ. eigenvalues --   -0.41873  -0.41739  -0.41372  -0.41062  -0.40799
 Alpha  occ. eigenvalues --   -0.40286  -0.39972  -0.39912  -0.39567  -0.39338
 Alpha  occ. eigenvalues --   -0.39276  -0.38945  -0.38738  -0.38508  -0.38348
 Alpha  occ. eigenvalues --   -0.38186  -0.37536  -0.36864  -0.36713  -0.36590
 Alpha  occ. eigenvalues --   -0.36418  -0.36223  -0.36087  -0.35638  -0.35009
 Alpha  occ. eigenvalues --   -0.34871  -0.34590  -0.33721  -0.33263  -0.32666
 Alpha  occ. eigenvalues --   -0.32435  -0.31924  -0.31245  -0.30034  -0.29764
 Alpha  occ. eigenvalues --   -0.29678  -0.27703  -0.26479  -0.26203  -0.25805
 Alpha  occ. eigenvalues --   -0.25520  -0.25062  -0.23879  -0.23556  -0.21545
 Alpha  occ. eigenvalues --   -0.17901
 Alpha virt. eigenvalues --   -0.10638  -0.06018  -0.04399  -0.03455  -0.03139
 Alpha virt. eigenvalues --   -0.00858   0.01193   0.03284   0.03635   0.04358
 Alpha virt. eigenvalues --    0.04693   0.05166   0.05409   0.05625   0.05986

 Mulliken charges:
               1
     1  O   -0.245898
     2  O   -0.201037
     3  O   -0.180206
     4  O   -0.241700
     5  O   -0.192256
     6  O   -0.294659
     7  N   -0.156337
     8  N   -0.103755
     9  N   -0.157262
    10  N   -0.329396
    11  C   -0.065505
    12  C    0.089451
    13  C   -0.149059
    14  C    0.073015
    15  C   -0.139709
    16  C    0.036965
    17  C   -0.069546
    18  C   -0.148900
    19  C    0.161717
    20  C    0.036588
    21  C    0.050387
    22  C    0.043062
    23  C    0.008575
    24  C    0.290183
    25  C   -0.063810
    26  C    0.071063
    27  C    0.213056
    28  C   -0.043469
    29  C   -0.003857
    30  C    0.076090
    31  C   -0.078324
    32  C   -0.044546
    33  C   -0.155272
    34  C    0.022310
    35  C   -0.070613
    36  C   -0.157549
    37  C    0.165491
    38  C    0.160499
    39  C    0.177572
    40  C    0.060531
    41  C    0.191491
    42  C    0.000078
    43  C   -0.090949
    44  H    0.143946
    45  H    0.044943
    46  H    0.049975
    47  H   -0.032508
    48  H    0.037944
    49  H   -0.021577
    50  H   -0.031084
    51  H   -0.010920
    52  H    0.150314
    53  H    0.000291
    54  H    0.044420
    55  H    0.004198
    56  H    0.150079
    57  H    0.059050
    58  H    0.030221
    59  H    0.022564
    60  H    0.009076
    61  H    0.011826
    62  H    0.035887
    63  H    0.036824
    64  H    0.018041
    65  H    0.035472
    66  H    0.040298
    67  H    0.018409
    68  H   -0.031960
    69  H    0.071295
    70  H   -0.009256
    71  H    0.007117
    72  H    0.018036
    73  H    0.037802
    74  H    0.062416
    75  H    0.031973
    76  H    0.043239
    77  H    0.008765
    78  H    0.032235
    79  H    0.020391
    80  H    0.185021
    81  H    0.130725
 Sum of Mulliken charges =  -0.00000

 Dipole moment (field-independent basis, Debye):
    X=             -1.8180    Y=             -1.0865    Z=              0.0991  Tot=              2.1203
 Quadrupole moment (field-independent basis, Debye-Ang):
   XX=           -244.2036   YY=           -249.5560   ZZ=           -252.6134
   XY=              4.2094   XZ=              9.2072   YZ=            -15.3563

 Normal termination of Gaussian 16 at Thu Jun 27 19:28:38 2019.
