 Gaussian 16, Revision A.03,
 Gaussian 16:  ES64L-G16RevA.03 25-Dec-2016

 --------------------------
 # td=(NStates=1) B3LYP/SVP
 --------------------------

 --
 TD
 --
 Symbolic Z-matrix:
 Charge =  0 Multiplicity = 1

                         Standard orientation:
 ---------------------------------------------------------------------
 Center     Atomic      Atomic             Coordinates (Angstroms)
 Number     Number       Type             X           Y           Z
 ---------------------------------------------------------------------
      1          8           0        4.261137   -4.827742   -1.869460
      2          8           0       -2.986762   -4.939106   -0.993263
      3          8           0       -7.137256   -1.563074   -1.817302
      4          8           0       -3.785575   -3.160902    0.137629
      5          8           0       -7.484446   -0.679301    0.273533
      6          8           0        3.007195    2.434843    0.361545
      7          7           0        0.294492   -0.518067    0.654794
      8          7           0       -1.544139    1.825644    0.252045
      9          7           0        3.300114   -3.072476   -0.689885
     10          7           0        0.780219    2.906004    0.061018
     11          6           0       -0.579038   -2.333573    1.456404
     12          6           0       -0.870569   -1.009226    0.961684
     13          6           0        0.805265   -2.558609    1.216998
     14          6           0        1.323013   -1.409907    0.690083
     15          6           0       -3.729148    1.481154    0.112055
     16          6           0       -2.488446    0.871567    0.428476
     17          6           0       -2.250440   -0.406531    0.867183
     18          6           0       -3.548469    2.776707   -0.113764
     19          6           0       -1.533014   -3.315909    2.014769
     20          6           0        5.569911   -2.792945   -1.270789
     21          6           0        3.611320   -1.807835   -0.114274
     22          6           0       -2.139512    3.004500   -0.173628
     23          6           0        5.072382   -1.575136   -0.443691
     24          6           0       -5.106291    0.718142    0.265628
     25          6           0        2.694573   -0.944482    0.343843
     26          6           0        1.616606   -3.738661    1.813054
     27          6           0        4.335012   -3.714255   -1.362449
     28          6           0       -1.958503   -4.427014    1.067596
     29          6           0       -5.437350   -0.165716   -0.872714
     30          6           0       -4.610785    3.764693   -0.616657
     31          6           0       -1.348629    4.153876   -0.291836
     32          6           0        6.864455   -3.427399   -0.926552
     33          6           0        5.834638   -0.567182   -0.170031
     34          6           0        0.093742    4.014189   -0.298033
     35          6           0        1.021617    5.169801   -0.360144
     36          6           0        2.277985    4.689871   -0.149865
     37          6           0       -2.989835   -4.129556   -0.042218
     38          6           0        5.456764    0.623351    0.500917
     39          6           0       -6.806309   -0.853437   -0.764322
     40          6           0        3.553008    5.394260   -0.214615
     41          6           0        2.139212    3.226223    0.029155
     42          6           0        0.542016    6.456818   -0.845525
     43          6           0        4.110114    5.559589    1.243217
     44          1           0        0.487604    0.446666    0.288740
     45          1           0       -2.996528   -0.983761    0.911635
     46          1           0       -2.401563   -2.755652    2.506297
     47          1           0       -1.239510   -4.019788    2.867746
     48          1           0        5.541488   -2.406072   -2.361543
     49          1           0       -5.128962    0.195203    1.198637
     50          1           0       -6.073733    1.361409    0.302519
     51          1           0        2.846075   -0.064609    0.370461
     52          1           0       -0.445181    1.743468    0.540906
     53          1           0        1.749081   -4.493271    0.968761
     54          1           0        2.686843   -3.480353    2.056786
     55          1           0        0.857839   -4.095464    2.702559
     56          1           0        2.225208   -3.447704   -0.769144
     57          1           0       -1.091864   -4.888455    0.665381
     58          1           0       -2.475540   -5.158227    1.670667
     59          1           0       -4.752392   -1.002302   -0.846547
     60          1           0       -5.233317    0.289218   -1.743330
     61          1           0       -4.447852    4.597092   -0.099942
     62          1           0       -5.574361    3.372347   -0.551352
     63          1           0       -4.321219    4.351947   -1.548721
     64          1           0       -1.645875    5.053506   -0.545424
     65          1           0        7.702481   -2.749140   -1.185121
     66          1           0        7.160079   -4.322274   -1.477206
     67          1           0        6.977818   -3.813007    0.057643
     68          1           0        6.933144   -0.656556   -0.437604
     69          1           0        5.055850    1.410146   -0.021316
     70          1           0        6.290722    1.144660    0.969671
     71          1           0        4.864609    0.504146    1.429171
     72          1           0        3.552458    6.271784   -0.764187
     73          1           0        4.360310    4.479711   -0.621148
     74          1           0        0.404467    6.451792   -1.812316
     75          1           0        1.380710    7.148308   -0.594607
     76          1           0       -0.470747    6.837612   -0.418454
     77          1           0        3.566835    6.423701    1.636501
     78          1           0        5.186712    5.759495    1.287731
     79          1           0        4.037357    4.638342    2.076047
     80          1           0       -3.642574   -4.647999   -1.672803
     81          1           0       -7.887380   -1.965600   -1.604083
 ---------------------------------------------------------------------

 SCF Done:  E(RB3LYP) =  -1949.06734789     A.U. after   16 cycles

 Excitation energies and oscillator strengths:

 Excited State   1:      Singlet-A      1.7740 eV  698.90 nm  f=0.2857  <S**2>=0.000
     156 ->157         0.70670
     156 <-157        -0.10835
 This state for optimization and/or second-order correction.
 Total Energy, E(TD-HF/TD-DFT) =  -1949.00215484
 Copying the excited state density for this state as the 1-particle RhoCI density.

 The electronic state is 1-A.
 Alpha  occ. eigenvalues --  -19.22389 -19.19833 -19.12616 -19.12420 -19.10824
 Alpha  occ. eigenvalues --  -19.10202 -14.37647 -14.37103 -14.35708 -14.29262
 Alpha  occ. eigenvalues --  -10.33255 -10.32568 -10.28606 -10.26627 -10.24353
 Alpha  occ. eigenvalues --  -10.23883 -10.23075 -10.22951 -10.22413 -10.22133
 Alpha  occ. eigenvalues --  -10.20830 -10.20720 -10.20712 -10.20518 -10.20363
 Alpha  occ. eigenvalues --  -10.20320 -10.19954 -10.19818 -10.19717 -10.19547
 Alpha  occ. eigenvalues --  -10.19229 -10.19183 -10.19163 -10.18923 -10.18852
 Alpha  occ. eigenvalues --  -10.18824 -10.18574 -10.18543 -10.18458 -10.18325
 Alpha  occ. eigenvalues --  -10.18054 -10.17046 -10.15573  -1.15086  -1.13180
 Alpha  occ. eigenvalues --   -1.01964  -1.01848  -1.00154  -1.00020  -0.99612
 Alpha  occ. eigenvalues --   -0.98198  -0.93190  -0.91896  -0.82069  -0.81657
 Alpha  occ. eigenvalues --   -0.81425  -0.81415  -0.80528  -0.79387  -0.78132
 Alpha  occ. eigenvalues --   -0.77419  -0.76944  -0.75991  -0.74786  -0.72488
 Alpha  occ. eigenvalues --   -0.71598  -0.69884  -0.69487  -0.68874  -0.68605
 Alpha  occ. eigenvalues --   -0.68171  -0.65908  -0.64792  -0.63401  -0.62382
 Alpha  occ. eigenvalues --   -0.61523  -0.60826  -0.60125  -0.57640  -0.57163
 Alpha  occ. eigenvalues --   -0.55997  -0.55839  -0.55443  -0.53723  -0.52907
 Alpha  occ. eigenvalues --   -0.52145  -0.51556  -0.51052  -0.50754  -0.50332
 Alpha  occ. eigenvalues --   -0.50174  -0.49679  -0.49301  -0.49102  -0.47942
 Alpha  occ. eigenvalues --   -0.47647  -0.46951  -0.46677  -0.46553  -0.45499
 Alpha  occ. eigenvalues --   -0.45231  -0.44966  -0.44591  -0.44437  -0.44102
 Alpha  occ. eigenvalues --   -0.43909  -0.43628  -0.43165  -0.42845  -0.42634
 Alpha  occ. eigenvalues --   -0.42471  -0.41834  -0.41525  -0.41441  -0.41077
 Alpha  occ. eigenvalues --   -0.40996  -0.40558  -0.40126  -0.39827  -0.39788
 Alpha  occ. eigenvalues --   -0.39560  -0.39356  -0.39248  -0.39020  -0.38691
 Alpha  occ. eigenvalues --   -0.38051  -0.37495  -0.37379  -0.37160  -0.36918
 Alpha  occ. eigenvalues --   -0.36230  -0.35541  -0.35374  -0.34623  -0.33971
 Alpha  occ. eigenvalues --   -0.33739  -0.33462  -0.33163  -0.33040  -0.32618
 Alpha  occ. eigenvalues --   -0.32442  -0.32282  -0.31824  -0.29699  -0.28095
 Alpha  occ. eigenvalues --   -0.27840  -0.27582  -0.26114  -0.25985  -0.25835
 Alpha  occ. eigenvalues --   -0.24961  -0.24775  -0.24393  -0.23153  -0.21742
 Alpha  occ. eigenvalues --   -0.17855
 Alpha virt. eigenvalues --   -0.10659  -0.05607  -0.03078  -0.00642   0.00255
 Alpha virt. eigenvalues --    0.01190   0.02298   0.02871   0.03173   0.03663
 Alpha virt. eigenvalues --    0.04292   0.05590   0.05761   0.06083   0.06562

 Mulliken charges:
               1
     1  O   -0.223457
     2  O   -0.067779
     3  O   -0.070119
     4  O   -0.295681
     5  O   -0.273113
     6  O   -0.200794
     7  N   -0.005189
     8  N   -0.158659
     9  N   -0.215483
    10  N   -0.324925
    11  C   -0.089707
    12  C    0.000857
    13  C   -0.205553
    14  C    0.021599
    15  C   -0.058789
    16  C    0.073732
    17  C    0.089981
    18  C   -0.150581
    19  C    0.047846
    20  C   -0.058644
    21  C    0.162049
    22  C    0.146590
    23  C    0.025361
    24  C    0.078051
    25  C    0.131856
    26  C    0.050517
    27  C    0.119223
    28  C    0.051849
    29  C    0.052689
    30  C    0.206992
    31  C   -0.034940
    32  C    0.093454
    33  C   -0.194633
    34  C    0.060241
    35  C   -0.121248
    36  C   -0.130650
    37  C    0.092061
    38  C    0.139178
    39  C    0.131326
    40  C    0.036526
    41  C    0.163021
    42  C    0.127668
    43  C   -0.043655
    44  H    0.140018
    45  H   -0.123078
    46  H    0.021937
    47  H    0.008456
    48  H    0.050855
    49  H    0.014286
    50  H    0.020958
    51  H   -0.221580
    52  H    0.201511
    53  H    0.016735
    54  H    0.041776
    55  H    0.048310
    56  H    0.184498
    57  H    0.006584
    58  H    0.025287
    59  H    0.024157
    60  H   -0.016269
    61  H   -0.037160
    62  H    0.007714
    63  H    0.008527
    64  H   -0.107016
    65  H    0.010035
    66  H    0.011114
    67  H    0.004677
    68  H   -0.004119
    69  H    0.018808
    70  H   -0.029997
    71  H    0.020802
    72  H   -0.007278
    73  H    0.042915
    74  H   -0.011618
    75  H    0.015077
    76  H    0.034676
    77  H    0.006802
    78  H    0.014308
    79  H    0.053182
    80  H    0.199156
    81  H    0.125888
 Sum of Mulliken charges =  -0.00000

 Dipole moment (field-independent basis, Debye):
    X=             -2.8024    Y=              1.4974    Z=             -2.1780  Tot=              3.8522
 Quadrupole moment (field-independent basis, Debye-Ang):
   XX=           -249.1805   YY=           -233.2330   ZZ=           -254.4866
   XY=             21.9588   XZ=             20.5130   YZ=            -10.8548

 Normal termination of Gaussian 16 at Sat Jun 29 00:24:01 2019.
