 Gaussian 16, Revision A.03,
 Gaussian 16:  ES64L-G16RevA.03 25-Dec-2016

 --------------------------
 # td=(NStates=1) B3LYP/SVP
 --------------------------

 --
 TD
 --
 Symbolic Z-matrix:
 Charge =  0 Multiplicity = 1

                         Standard orientation:
 ---------------------------------------------------------------------
 Center     Atomic      Atomic             Coordinates (Angstroms)
 Number     Number       Type             X           Y           Z
 ---------------------------------------------------------------------
      1          8           0        4.043134   -4.945608   -1.760476
      2          8           0       -3.099318   -4.917031   -1.050443
      3          8           0       -7.127403   -1.278906   -1.870527
      4          8           0       -4.010678   -3.107735    0.021415
      5          8           0       -7.555438   -0.266968    0.158892
      6          8           0        3.119462    2.282408    0.538782
      7          7           0        0.307448   -0.541028    0.571387
      8          7           0       -1.479366    1.956685    0.388867
      9          7           0        3.140757   -3.200072   -0.687847
     10          7           0        0.956350    2.921980    0.105338
     11          6           0       -0.834952   -2.384985    1.331199
     12          6           0       -0.963583   -1.014061    0.919702
     13          6           0        0.621078   -2.598597    1.262787
     14          6           0        1.219175   -1.507578    0.675832
     15          6           0       -3.698362    1.729475    0.217124
     16          6           0       -2.461225    0.955855    0.488576
     17          6           0       -2.245353   -0.353893    0.875826
     18          6           0       -3.353207    2.942596   -0.225192
     19          6           0       -1.769335   -3.268565    2.061730
     20          6           0        5.492536   -3.002503   -1.338719
     21          6           0        3.495389   -1.920037   -0.223278
     22          6           0       -1.963389    3.125575   -0.105671
     23          6           0        5.009042   -1.742451   -0.602618
     24          6           0       -5.003759    0.978373    0.253181
     25          6           0        2.573420   -1.215324    0.319471
     26          6           0        1.340810   -3.850856    1.717670
     27          6           0        4.148369   -3.832161   -1.357673
     28          6           0       -2.305422   -4.442153    1.130118
     29          6           0       -5.347888   -0.104078   -0.754434
     30          6           0       -4.342763    4.000441   -0.638146
     31          6           0       -1.098169    4.300055   -0.258592
     32          6           0        6.612764   -3.783334   -0.657080
     33          6           0        5.730019   -0.667459   -0.289466
     34          6           0        0.318258    4.048549   -0.245444
     35          6           0        1.302946    5.149313   -0.402435
     36          6           0        2.472398    4.586241   -0.192497
     37          6           0       -3.192951   -4.056642    0.038911
     38          6           0        5.416311    0.602888    0.469992
     39          6           0       -6.756349   -0.452541   -0.727911
     40          6           0        3.908130    5.193327   -0.133437
     41          6           0        2.258076    3.091339    0.179200
     42          6           0        0.936969    6.378673   -0.952402
     43          6           0        4.481714    5.343607    1.226501
     44          1           0        0.350220    0.288418    0.057496
     45          1           0       -3.129251   -1.061583    1.112782
     46          1           0       -2.762186   -2.717575    2.523115
     47          1           0       -1.235755   -3.827074    2.670401
     48          1           0        5.667291   -2.858883   -2.298568
     49          1           0       -5.089314    0.485975    1.274438
     50          1           0       -5.908620    1.700727    0.384649
     51          1           0        2.763391   -0.105596    0.478773
     52          1           0       -0.518141    1.853097    0.638435
     53          1           0        1.241796   -4.744229    1.183149
     54          1           0        2.465643   -3.655166    1.859818
     55          1           0        1.058823   -4.082743    2.664674
     56          1           0        2.304045   -3.716736   -0.947825
     57          1           0       -1.605115   -4.899367    0.601250
     58          1           0       -2.820254   -5.167568    1.626230
     59          1           0       -4.821147   -0.976585   -0.388154
     60          1           0       -4.918826    0.160496   -2.033047
     61          1           0       -4.014982    4.995491   -0.179573
     62          1           0       -5.377385    4.039553   -0.041237
     63          1           0       -4.395166    4.178302   -1.807578
     64          1           0       -1.639296    5.137712   -0.489496
     65          1           0        7.498066   -3.128266   -0.590531
     66          1           0        7.078241   -4.506081   -1.578663
     67          1           0        6.373439   -4.197238    0.264000
     68          1           0        6.629000   -0.597017   -0.965834
     69          1           0        4.942130    1.377018   -0.028399
     70          1           0        6.308036    1.077409    0.696730
     71          1           0        5.011012    0.241267    1.455716
     72          1           0        3.773643    6.283479   -0.589103
     73          1           0        4.542188    4.776159   -0.786229
     74          1           0        0.517426    6.385373   -2.085601
     75          1           0        1.706312    7.086263   -0.973813
     76          1           0        0.118367    6.866825   -0.272571
     77          1           0        3.896187    5.897599    1.828322
     78          1           0        5.552952    5.770569    1.438862
     79          1           0        4.619742    4.182635    1.581428
     80          1           0       -3.570970   -4.518124   -1.680719
     81          1           0       -8.050100   -1.491301   -1.925626
 ---------------------------------------------------------------------

 SCF Done:  E(RB3LYP) =  -1949.06128011     A.U. after   16 cycles

 Excitation energies and oscillator strengths:

 Excited State   1:      Singlet-A      1.9322 eV  641.67 nm  f=0.3278  <S**2>=0.000
     156 ->157         0.70438
     156 <-157        -0.10229
 This state for optimization and/or second-order correction.
 Total Energy, E(TD-HF/TD-DFT) =  -1948.99027220
 Copying the excited state density for this state as the 1-particle RhoCI density.

 The electronic state is 1-A.
 Alpha  occ. eigenvalues --  -19.19112 -19.15623 -19.14815 -19.13650 -19.10259
 Alpha  occ. eigenvalues --  -19.09818 -14.38112 -14.36723 -14.35988 -14.28261
 Alpha  occ. eigenvalues --  -10.34177 -10.32572 -10.27795 -10.25778 -10.24939
 Alpha  occ. eigenvalues --  -10.24135 -10.24034 -10.23968 -10.23479 -10.23454
 Alpha  occ. eigenvalues --  -10.23275 -10.22648 -10.22526 -10.21948 -10.21333
 Alpha  occ. eigenvalues --  -10.21199 -10.21049 -10.20768 -10.20589 -10.20330
 Alpha  occ. eigenvalues --  -10.19823 -10.19755 -10.19702 -10.19614 -10.19572
 Alpha  occ. eigenvalues --  -10.19427 -10.18770 -10.18310 -10.18200 -10.18050
 Alpha  occ. eigenvalues --  -10.17898 -10.17557 -10.16211  -1.11142  -1.07020
 Alpha  occ. eigenvalues --   -1.04628  -1.01287  -1.00610  -0.99897  -0.99094
 Alpha  occ. eigenvalues --   -0.98727  -0.94637  -0.92691  -0.83978  -0.82787
 Alpha  occ. eigenvalues --   -0.81946  -0.81361  -0.80161  -0.79994  -0.79431
 Alpha  occ. eigenvalues --   -0.78352  -0.76866  -0.75702  -0.74942  -0.73436
 Alpha  occ. eigenvalues --   -0.71606  -0.71016  -0.69880  -0.68849  -0.68228
 Alpha  occ. eigenvalues --   -0.67952  -0.65694  -0.64828  -0.62844  -0.62048
 Alpha  occ. eigenvalues --   -0.60943  -0.59733  -0.59067  -0.58239  -0.57471
 Alpha  occ. eigenvalues --   -0.56856  -0.56181  -0.55257  -0.54384  -0.53077
 Alpha  occ. eigenvalues --   -0.52690  -0.52419  -0.52045  -0.50913  -0.50675
 Alpha  occ. eigenvalues --   -0.49857  -0.49052  -0.48444  -0.47689  -0.47539
 Alpha  occ. eigenvalues --   -0.46998  -0.46696  -0.46584  -0.45904  -0.45324
 Alpha  occ. eigenvalues --   -0.44890  -0.44668  -0.44577  -0.44175  -0.43854
 Alpha  occ. eigenvalues --   -0.43710  -0.43435  -0.42953  -0.42825  -0.42668
 Alpha  occ. eigenvalues --   -0.42188  -0.42083  -0.41424  -0.41155  -0.40935
 Alpha  occ. eigenvalues --   -0.40900  -0.40707  -0.40388  -0.40151  -0.39950
 Alpha  occ. eigenvalues --   -0.39631  -0.39335  -0.39143  -0.39095  -0.38838
 Alpha  occ. eigenvalues --   -0.38516  -0.38355  -0.38080  -0.37614  -0.37338
 Alpha  occ. eigenvalues --   -0.36104  -0.35885  -0.35572  -0.35339  -0.34823
 Alpha  occ. eigenvalues --   -0.33943  -0.33763  -0.33681  -0.33189  -0.32672
 Alpha  occ. eigenvalues --   -0.31614  -0.31435  -0.30745  -0.30117  -0.29883
 Alpha  occ. eigenvalues --   -0.28497  -0.27095  -0.26445  -0.26163  -0.25653
 Alpha  occ. eigenvalues --   -0.25513  -0.25098  -0.23950  -0.23147  -0.22255
 Alpha  occ. eigenvalues --   -0.18807
 Alpha virt. eigenvalues --   -0.10956  -0.05534  -0.03374  -0.02946  -0.01430
 Alpha virt. eigenvalues --    0.00899   0.01449   0.03565   0.03926   0.04272
 Alpha virt. eigenvalues --    0.04858   0.05009   0.05337   0.05595   0.06132

 Mulliken charges:
               1
     1  O   -0.197225
     2  O   -0.147007
     3  O   -0.269191
     4  O   -0.258251
     5  O   -0.202834
     6  O   -0.233323
     7  N   -0.003802
     8  N   -0.072218
     9  N   -0.124750
    10  N   -0.238647
    11  C   -0.128305
    12  C    0.005044
    13  C   -0.180589
    14  C    0.096582
    15  C   -0.015358
    16  C    0.059737
    17  C   -0.054244
    18  C   -0.114524
    19  C    0.188110
    20  C    0.053615
    21  C    0.194407
    22  C    0.065006
    23  C    0.003609
    24  C    0.019500
    25  C   -0.239583
    26  C    0.131721
    27  C    0.021445
    28  C    0.120391
    29  C   -0.000123
    30  C   -0.006673
    31  C   -0.050476
    32  C    0.070831
    33  C   -0.223480
    34  C    0.100955
    35  C   -0.065964
    36  C   -0.193071
    37  C    0.109320
    38  C    0.183657
    39  C    0.162020
    40  C    0.129141
    41  C    0.130472
    42  C    0.061191
    43  C   -0.025272
    44  H    0.109846
    45  H    0.045659
    46  H    0.060071
    47  H   -0.047913
    48  H   -0.023678
    49  H    0.020480
    50  H    0.020064
    51  H    0.043483
    52  H    0.110470
    53  H    0.010398
    54  H    0.026441
    55  H   -0.020583
    56  H    0.134514
    57  H   -0.018400
    58  H    0.017953
    59  H    0.061192
    60  H    0.072704
    61  H    0.020046
    62  H    0.046579
    63  H    0.055903
    64  H   -0.060162
    65  H    0.009865
    66  H    0.034518
    67  H    0.015237
    68  H    0.001379
    69  H    0.035945
    70  H   -0.034300
    71  H    0.030587
    72  H   -0.019641
    73  H   -0.026991
    74  H    0.046307
    75  H   -0.014950
    76  H    0.023787
    77  H   -0.012249
    78  H    0.015918
    79  H    0.043900
    80  H    0.134453
    81  H    0.169323
 Sum of Mulliken charges =  -0.00000

 Dipole moment (field-independent basis, Debye):
    X=             -2.3121    Y=              0.3964    Z=             -0.5617  Tot=              2.4122
 Quadrupole moment (field-independent basis, Debye-Ang):
   XX=           -257.5893   YY=           -245.5925   ZZ=           -251.5012
   XY=              9.1714   XZ=              7.1060   YZ=            -16.3682

 Normal termination of Gaussian 16 at Thu Jun 27 17:23:04 2019.
