 Gaussian 16, Revision A.03,
 Gaussian 16:  ES64L-G16RevA.03 25-Dec-2016

 --------------------------
 # td=(NStates=1) B3LYP/SVP
 --------------------------

 --
 TD
 --
 Symbolic Z-matrix:
 Charge =  0 Multiplicity = 1

                         Standard orientation:
 ---------------------------------------------------------------------
 Center     Atomic      Atomic             Coordinates (Angstroms)
 Number     Number       Type             X           Y           Z
 ---------------------------------------------------------------------
      1          8           0       -3.926200   -4.965017    1.953424
      2          8           0        3.270005   -4.374804    1.281298
      3          8           0        7.053961   -1.093440    1.978884
      4          8           0        4.066407   -2.821522   -0.128372
      5          8           0        7.389288   -0.347559   -0.193900
      6          8           0       -3.148668    2.141008   -0.476599
      7          7           0       -0.206422   -0.536074   -0.676592
      8          7           0        1.433134    1.822491   -0.401948
      9          7           0       -3.099139   -3.281944    0.700308
     10          7           0       -0.946696    2.802600   -0.252477
     11          6           0        0.775325   -2.397636   -1.499206
     12          6           0        0.995511   -1.032497   -1.196619
     13          6           0       -0.584165   -2.664803   -1.283164
     14          6           0       -1.216801   -1.495220   -0.880771
     15          6           0        3.667478    1.692787   -0.201429
     16          6           0        2.418769    0.915390   -0.653335
     17          6           0        2.274834   -0.390285   -1.085387
     18          6           0        3.277532    2.841358    0.274940
     19          6           0        1.872253   -3.316879   -1.971599
     20          6           0       -5.288667   -2.971031    1.406380
     21          6           0       -3.439666   -1.906255    0.156604
     22          6           0        1.858684    3.002170    0.074402
     23          6           0       -4.828620   -1.773973    0.542816
     24          6           0        5.062481    1.079862   -0.332804
     25          6           0       -2.592451   -1.128799   -0.511580
     26          6           0       -1.183857   -3.870971   -1.790574
     27          6           0       -4.052225   -3.842061    1.475152
     28          6           0        2.391363   -4.264008   -0.948398
     29          6           0        5.290000    0.092307    0.814471
     30          6           0        4.109468    4.080428    0.755182
     31          6           0        1.034259    4.167955    0.249229
     32          6           0       -6.577213   -3.682212    1.177954
     33          6           0       -5.682420   -0.792282    0.050042
     34          6           0       -0.384458    3.974885    0.249373
     35          6           0       -1.362354    5.031946    0.461350
     36          6           0       -2.571620    4.498475    0.259467
     37          6           0        3.371774   -3.673324    0.124203
     38          6           0       -5.556421    0.372028   -0.991116
     39          6           0        6.644079   -0.456775    0.725872
     40          6           0       -3.942090    4.974508    0.276264
     41          6           0       -2.350113    3.057511   -0.164318
     42          6           0       -1.056196    6.331646    0.943604
     43          6           0       -4.662167    5.198839   -1.031983
     44          1           0       -0.364254    0.469473   -0.258090
     45          1           0        3.186504   -0.758580   -1.679807
     46          1           0        2.744269   -2.853092   -2.478286
     47          1           0        1.504660   -3.799401   -2.905379
     48          1           0       -5.247175   -2.510449    2.650546
     49          1           0        5.291405    0.803158   -1.478801
     50          1           0        6.107574    1.816857   -0.010732
     51          1           0       -2.947852   -0.112575   -0.785306
     52          1           0        0.352846    1.877637   -0.506141
     53          1           0       -0.663018   -4.925718   -1.077409
     54          1           0       -2.335472   -3.877798   -1.697859
     55          1           0       -0.917408   -4.361282   -2.842572
     56          1           0       -2.049932   -3.746595    0.553953
     57          1           0        1.600437   -4.967940   -0.209535
     58          1           0        2.993433   -4.979318   -1.527769
     59          1           0        4.496468   -0.765650    1.058874
     60          1           0        5.076386    0.462187    1.902172
     61          1           0        3.638958    5.076384    0.426068
     62          1           0        5.190912    3.824948    0.084142
     63          1           0        4.440584    3.996583    2.008560
     64          1           0        1.540127    5.173538    0.582685
     65          1           0       -7.450238   -3.078319    1.161845
     66          1           0       -6.545282   -4.495779    1.878840
     67          1           0       -6.527269   -4.064500    0.116392
     68          1           0       -6.748036   -0.801411    0.453465
     69          1           0       -5.202237    1.172442   -0.544660
     70          1           0       -6.582324    0.468164   -1.260074
     71          1           0       -4.994954    0.107063   -1.674923
     72          1           0       -4.114912    5.972316    0.787880
     73          1           0       -4.639223    4.425856    0.915315
     74          1           0       -0.238316    6.431088    1.793584
     75          1           0       -1.758021    7.144143    1.238538
     76          1           0       -0.416522    6.907170    0.139221
     77          1           0       -4.231188    6.043000   -1.547267
     78          1           0       -5.655601    5.358990   -0.771212
     79          1           0       -4.495311    4.174593   -1.696598
     80          1           0        3.933385   -4.184716    1.908216
     81          1           0        7.848273   -1.299808    1.539065
 ---------------------------------------------------------------------

 SCF Done:  E(RB3LYP) =  -1948.99498202     A.U. after   16 cycles

 Excitation energies and oscillator strengths:

 Excited State   1:      Singlet-A      1.8696 eV  663.17 nm  f=0.2865  <S**2>=0.000
     156 ->157         0.70283
     156 <-157        -0.10131
 This state for optimization and/or second-order correction.
 Total Energy, E(TD-HF/TD-DFT) =  -1948.92627674
 Copying the excited state density for this state as the 1-particle RhoCI density.

 The electronic state is 1-A.
 Alpha  occ. eigenvalues --  -19.18722 -19.16782 -19.14962 -19.14713 -19.11062
 Alpha  occ. eigenvalues --  -19.08788 -14.37978 -14.36586 -14.36301 -14.30302
 Alpha  occ. eigenvalues --  -10.32873 -10.32601 -10.27604 -10.27552 -10.24576
 Alpha  occ. eigenvalues --  -10.24403 -10.24062 -10.24027 -10.24024 -10.23997
 Alpha  occ. eigenvalues --  -10.23973 -10.23273 -10.22658 -10.22346 -10.22337
 Alpha  occ. eigenvalues --  -10.22216 -10.21838 -10.21377 -10.21294 -10.21156
 Alpha  occ. eigenvalues --  -10.20995 -10.20758 -10.20465 -10.20249 -10.20223
 Alpha  occ. eigenvalues --  -10.19909 -10.19828 -10.19324 -10.19058 -10.18940
 Alpha  occ. eigenvalues --  -10.18321 -10.18202 -10.15252  -1.13082  -1.09949
 Alpha  occ. eigenvalues --   -1.05134  -1.01427  -1.01245  -1.00453  -0.99519
 Alpha  occ. eigenvalues --   -0.96898  -0.91641  -0.91547  -0.82695  -0.82233
 Alpha  occ. eigenvalues --   -0.81759  -0.81066  -0.80020  -0.79014  -0.77936
 Alpha  occ. eigenvalues --   -0.77624  -0.77414  -0.76027  -0.74771  -0.72378
 Alpha  occ. eigenvalues --   -0.70372  -0.69989  -0.69369  -0.68351  -0.67333
 Alpha  occ. eigenvalues --   -0.66549  -0.65451  -0.64163  -0.62581  -0.61971
 Alpha  occ. eigenvalues --   -0.60976  -0.59253  -0.57568  -0.56786  -0.55572
 Alpha  occ. eigenvalues --   -0.55020  -0.54958  -0.54809  -0.53907  -0.52829
 Alpha  occ. eigenvalues --   -0.51564  -0.51401  -0.50611  -0.50272  -0.50142
 Alpha  occ. eigenvalues --   -0.49696  -0.49375  -0.48836  -0.48432  -0.48286
 Alpha  occ. eigenvalues --   -0.47047  -0.46783  -0.46123  -0.45718  -0.45517
 Alpha  occ. eigenvalues --   -0.45274  -0.44740  -0.44312  -0.44116  -0.43891
 Alpha  occ. eigenvalues --   -0.43465  -0.43244  -0.42940  -0.42634  -0.42277
 Alpha  occ. eigenvalues --   -0.41999  -0.41757  -0.41408  -0.41189  -0.40966
 Alpha  occ. eigenvalues --   -0.40827  -0.40198  -0.39988  -0.39655  -0.39525
 Alpha  occ. eigenvalues --   -0.39091  -0.38817  -0.38621  -0.38483  -0.38072
 Alpha  occ. eigenvalues --   -0.37884  -0.37608  -0.37259  -0.37022  -0.36554
 Alpha  occ. eigenvalues --   -0.36149  -0.36072  -0.35447  -0.35075  -0.34794
 Alpha  occ. eigenvalues --   -0.34519  -0.33934  -0.33481  -0.33137  -0.33047
 Alpha  occ. eigenvalues --   -0.32206  -0.31942  -0.31208  -0.30335  -0.29896
 Alpha  occ. eigenvalues --   -0.29227  -0.28853  -0.26866  -0.25945  -0.24980
 Alpha  occ. eigenvalues --   -0.24943  -0.24594  -0.24304  -0.23777  -0.21928
 Alpha  occ. eigenvalues --   -0.18683
 Alpha virt. eigenvalues --   -0.11058  -0.06372  -0.04138  -0.01488   0.00657
 Alpha virt. eigenvalues --    0.00896   0.01394   0.01809   0.01988   0.03439
 Alpha virt. eigenvalues --    0.03611   0.04084   0.04185   0.04877   0.05455

 Mulliken charges:
               1
     1  O   -0.240971
     2  O   -0.172466
     3  O   -0.231301
     4  O   -0.125037
     5  O   -0.198421
     6  O   -0.234892
     7  N   -0.169005
     8  N   -0.093384
     9  N   -0.235551
    10  N   -0.363733
    11  C   -0.085560
    12  C    0.071242
    13  C   -0.085355
    14  C    0.106146
    15  C   -0.040900
    16  C    0.048246
    17  C   -0.041368
    18  C   -0.081771
    19  C    0.118042
    20  C   -0.119873
    21  C    0.170137
    22  C    0.038600
    23  C    0.007681
    24  C   -0.040074
    25  C   -0.129716
    26  C   -0.106620
    27  C    0.118396
    28  C   -0.061529
    29  C   -0.037973
    30  C   -0.063558
    31  C   -0.112340
    32  C    0.114300
    33  C   -0.252373
    34  C    0.098383
    35  C   -0.002113
    36  C   -0.118372
    37  C    0.103334
    38  C    0.287819
    39  C    0.175278
    40  C    0.037785
    41  C    0.188258
    42  C   -0.002449
    43  C    0.001187
    44  H    0.168817
    45  H    0.049814
    46  H    0.001628
    47  H    0.001630
    48  H    0.051466
    49  H    0.078664
    50  H    0.049432
    51  H    0.026775
    52  H    0.172184
    53  H    0.019572
    54  H    0.059439
    55  H    0.053465
    56  H    0.188150
    57  H    0.067124
    58  H    0.035155
    59  H    0.068098
    60  H    0.049517
    61  H    0.059924
    62  H    0.050796
    63  H    0.064787
    64  H    0.013716
    65  H    0.008615
    66  H    0.034930
    67  H    0.011371
    68  H    0.005356
    69  H    0.007934
    70  H   -0.006093
    71  H   -0.048413
    72  H   -0.021532
    73  H    0.006217
    74  H    0.031513
    75  H    0.027785
    76  H    0.022550
    77  H    0.009854
    78  H    0.001360
    79  H    0.046538
    80  H    0.162747
    81  H    0.130987
 Sum of Mulliken charges =  -0.00000

 Dipole moment (field-independent basis, Debye):
    X=              2.5366    Y=              3.6460    Z=             -0.4019  Tot=              4.4597
 Quadrupole moment (field-independent basis, Debye-Ang):
   XX=           -253.5974   YY=           -244.7943   ZZ=           -257.0350
   XY=            -22.0603   XZ=              8.3955   YZ=             19.4552

 Normal termination of Gaussian 16 at Fri Jun 28 05:33:46 2019.
