 Gaussian 16, Revision A.03,
 Gaussian 16:  ES64L-G16RevA.03 25-Dec-2016

 --------------------------
 # td=(NStates=1) B3LYP/SVP
 --------------------------

 --
 TD
 --
 Symbolic Z-matrix:
 Charge =  0 Multiplicity = 1

                         Standard orientation:
 ---------------------------------------------------------------------
 Center     Atomic      Atomic             Coordinates (Angstroms)
 Number     Number       Type             X           Y           Z
 ---------------------------------------------------------------------
      1          8           0       -4.355165   -4.700288    2.004562
      2          8           0        2.857929   -4.876206    1.208381
      3          8           0        6.971942   -1.633675    1.793427
      4          8           0        3.807528   -3.179270   -0.082426
      5          8           0        7.562173   -0.470968   -0.072812
      6          8           0       -3.065289    2.391402   -0.382403
      7          7           0       -0.211616   -0.484092   -0.694832
      8          7           0        1.573562    1.780041   -0.351721
      9          7           0       -3.327985   -3.011795    0.768785
     10          7           0       -0.822401    2.792024    0.037150
     11          6           0        0.641144   -2.434944   -1.429152
     12          6           0        1.007486   -1.100842   -0.998827
     13          6           0       -0.748541   -2.703661   -1.211523
     14          6           0       -1.239499   -1.409877   -0.674403
     15          6           0        3.819521    1.453255   -0.353919
     16          6           0        2.481355    0.813070   -0.532157
     17          6           0        2.291773   -0.436821   -0.900396
     18          6           0        3.655725    2.734798    0.150218
     19          6           0        1.624487   -3.359429   -1.986691
     20          6           0       -5.565223   -2.660783    1.251658
     21          6           0       -3.588874   -1.748153    0.166633
     22          6           0        2.209336    2.926782    0.147475
     23          6           0       -5.092093   -1.534789    0.415664
     24          6           0        5.116511    0.851275   -0.429425
     25          6           0       -2.653069   -0.964697   -0.360668
     26          6           0       -1.616363   -3.852061   -1.675007
     27          6           0       -4.408335   -3.667929    1.417113
     28          6           0        2.018364   -4.426716   -1.027966
     29          6           0        5.354563   -0.204572    0.749777
     30          6           0        4.523558    3.823632    0.388010
     31          6           0        1.329954    4.047133    0.361033
     32          6           0       -6.800093   -3.346479    0.754071
     33          6           0       -5.898420   -0.593128   -0.059514
     34          6           0       -0.149483    3.947852    0.335421
     35          6           0       -0.998735    5.154197    0.490470
     36          6           0       -2.194323    4.654952    0.209301
     37          6           0        2.893780   -4.082489    0.049161
     38          6           0       -5.489430    0.673625   -0.887450
     39          6           0        6.782937   -0.784707    0.775272
     40          6           0       -3.615001    5.392773    0.229494
     41          6           0       -2.158949    3.133522   -0.016113
     42          6           0       -0.437644    6.494860    0.919851
     43          6           0       -4.170679    5.600373   -1.087462
     44          1           0       -0.287746    0.409089   -0.253421
     45          1           0        3.047398   -1.075101   -1.271483
     46          1           0        2.590562   -2.936825   -2.307465
     47          1           0        1.112863   -3.895863   -2.780042
     48          1           0       -5.829206   -2.217311    2.463386
     49          1           0        5.311358    0.329378   -1.526408
     50          1           0        6.055840    1.554954   -0.094910
     51          1           0       -2.898908    0.057542   -0.586077
     52          1           0        0.740585    1.710232   -0.852758
     53          1           0       -1.562340   -4.685814   -1.082139
     54          1           0       -2.723784   -3.657657   -1.861284
     55          1           0       -1.026125   -4.351549   -2.470885
     56          1           0       -2.244337   -3.188680    0.986622
     57          1           0        1.055236   -5.200614   -0.533542
     58          1           0        2.674215   -5.365918   -1.416347
     59          1           0        4.574351   -1.099220    0.921463
     60          1           0        5.167206    0.393852    1.628015
     61          1           0        4.459758    4.673744   -0.268496
     62          1           0        5.574051    3.278012    0.428042
     63          1           0        4.669318    4.105466    1.468719
     64          1           0        1.869904    4.967250    0.689835
     65          1           0       -7.735288   -2.598528    0.754031
     66          1           0       -7.203631   -4.127711    1.557484
     67          1           0       -6.804553   -3.770270   -0.308193
     68          1           0       -6.971725   -0.516416    0.338891
     69          1           0       -5.351539    1.563375   -0.132719
     70          1           0       -6.439943    0.946144   -1.375274
     71          1           0       -4.858209    0.583838   -1.633331
     72          1           0       -3.733562    6.381478    0.996623
     73          1           0       -4.354192    4.648278    0.943271
     74          1           0        0.084546    6.293257    1.964518
     75          1           0       -1.353792    7.147016    0.979172
     76          1           0        0.084071    7.045743    0.191621
     77          1           0       -3.547415    6.245386   -1.838668
     78          1           0       -5.281023    5.960468   -0.976531
     79          1           0       -4.267630    4.596187   -1.527713
     80          1           0        3.261455   -4.234506    1.934897
     81          1           0        7.873943   -2.090045    1.705895
 ---------------------------------------------------------------------

 SCF Done:  E(RB3LYP) =  -1949.06766637     A.U. after   16 cycles

 Excitation energies and oscillator strengths:

 Excited State   1:      Singlet-A      1.7911 eV  692.23 nm  f=0.2927  <S**2>=0.000
     156 ->157         0.70789
     156 <-157        -0.10935
 This state for optimization and/or second-order correction.
 Total Energy, E(TD-HF/TD-DFT) =  -1949.00184548
 Copying the excited state density for this state as the 1-particle RhoCI density.

 The electronic state is 1-A.
 Alpha  occ. eigenvalues --  -19.19535 -19.19210 -19.13799 -19.12688 -19.11521
 Alpha  occ. eigenvalues --  -19.10753 -14.37679 -14.36464 -14.36390 -14.28898
 Alpha  occ. eigenvalues --  -10.33879 -10.32080 -10.29306 -10.26722 -10.25004
 Alpha  occ. eigenvalues --  -10.24388 -10.24340 -10.23860 -10.23748 -10.23201
 Alpha  occ. eigenvalues --  -10.23032 -10.22234 -10.21785 -10.21395 -10.21219
 Alpha  occ. eigenvalues --  -10.21126 -10.20968 -10.20795 -10.20678 -10.20588
 Alpha  occ. eigenvalues --  -10.20573 -10.20537 -10.20423 -10.20306 -10.19970
 Alpha  occ. eigenvalues --  -10.19833 -10.19748 -10.19717 -10.19601 -10.19415
 Alpha  occ. eigenvalues --  -10.18407 -10.18379 -10.17253  -1.09819  -1.07211
 Alpha  occ. eigenvalues --   -1.04327  -1.01639  -1.01254  -0.99378  -0.98228
 Alpha  occ. eigenvalues --   -0.97024  -0.93318  -0.91408  -0.83778  -0.83556
 Alpha  occ. eigenvalues --   -0.81639  -0.80850  -0.79051  -0.78663  -0.77768
 Alpha  occ. eigenvalues --   -0.76708  -0.75824  -0.74811  -0.73527  -0.72610
 Alpha  occ. eigenvalues --   -0.72471  -0.69619  -0.69267  -0.68727  -0.68161
 Alpha  occ. eigenvalues --   -0.67262  -0.64712  -0.63935  -0.61482  -0.60747
 Alpha  occ. eigenvalues --   -0.59151  -0.58779  -0.58149  -0.57710  -0.56384
 Alpha  occ. eigenvalues --   -0.55608  -0.54732  -0.54210  -0.53746  -0.52135
 Alpha  occ. eigenvalues --   -0.51878  -0.51496  -0.50699  -0.50236  -0.49655
 Alpha  occ. eigenvalues --   -0.49058  -0.48318  -0.48132  -0.47852  -0.47142
 Alpha  occ. eigenvalues --   -0.46953  -0.46430  -0.46113  -0.45691  -0.45236
 Alpha  occ. eigenvalues --   -0.44990  -0.44591  -0.44482  -0.44202  -0.43467
 Alpha  occ. eigenvalues --   -0.43379  -0.43294  -0.43018  -0.42562  -0.42459
 Alpha  occ. eigenvalues --   -0.41799  -0.41660  -0.41549  -0.41202  -0.40692
 Alpha  occ. eigenvalues --   -0.40259  -0.40243  -0.40071  -0.39856  -0.39472
 Alpha  occ. eigenvalues --   -0.39074  -0.38855  -0.38426  -0.38263  -0.38189
 Alpha  occ. eigenvalues --   -0.38074  -0.37102  -0.36732  -0.36599  -0.36469
 Alpha  occ. eigenvalues --   -0.36030  -0.35351  -0.34553  -0.34234  -0.34017
 Alpha  occ. eigenvalues --   -0.33744  -0.33467  -0.33019  -0.32832  -0.32491
 Alpha  occ. eigenvalues --   -0.32019  -0.31704  -0.30282  -0.29913  -0.28709
 Alpha  occ. eigenvalues --   -0.28242  -0.27795  -0.26648  -0.26214  -0.25726
 Alpha  occ. eigenvalues --   -0.25248  -0.24915  -0.24119  -0.23709  -0.21731
 Alpha  occ. eigenvalues --   -0.17849
 Alpha virt. eigenvalues --   -0.10580  -0.05645  -0.03982  -0.03315  -0.00864
 Alpha virt. eigenvalues --    0.00841   0.01186   0.01866   0.02683   0.02958
 Alpha virt. eigenvalues --    0.03308   0.03743   0.04265   0.04477   0.05647

 Mulliken charges:
               1
     1  O   -0.166756
     2  O   -0.252327
     3  O   -0.197852
     4  O   -0.304407
     5  O   -0.209528
     6  O   -0.210525
     7  N   -0.084239
     8  N   -0.051494
     9  N   -0.235321
    10  N   -0.286608
    11  C   -0.124037
    12  C   -0.011860
    13  C   -0.163691
    14  C   -0.002725
    15  C   -0.030734
    16  C    0.143961
    17  C   -0.036599
    18  C   -0.096485
    19  C    0.203269
    20  C   -0.146821
    21  C    0.126801
    22  C    0.098226
    23  C    0.076028
    24  C   -0.032962
    25  C   -0.081062
    26  C    0.182595
    27  C    0.179455
    28  C   -0.104345
    29  C   -0.076646
    30  C    0.091595
    31  C   -0.141311
    32  C   -0.017027
    33  C   -0.224659
    34  C    0.063229
    35  C   -0.094970
    36  C   -0.176717
    37  C    0.174971
    38  C    0.115742
    39  C    0.155447
    40  C   -0.067639
    41  C    0.176448
    42  C    0.123298
    43  C    0.004753
    44  H    0.124999
    45  H   -0.025261
    46  H    0.027252
    47  H   -0.001153
    48  H    0.067866
    49  H    0.054857
    50  H    0.057188
    51  H    0.010500
    52  H    0.128564
    53  H   -0.025048
    54  H    0.058494
    55  H   -0.020842
    56  H    0.170640
    57  H    0.060045
    58  H    0.079157
    59  H    0.075954
    60  H    0.015313
    61  H    0.050169
    62  H   -0.006953
    63  H    0.019482
    64  H   -0.013651
    65  H    0.019296
    66  H    0.040820
    67  H    0.035194
    68  H    0.013977
    69  H    0.070369
    70  H   -0.014358
    71  H   -0.002974
    72  H    0.019654
    73  H    0.029853
    74  H    0.058311
    75  H    0.011340
    76  H    0.016189
    77  H    0.028885
    78  H    0.019729
    79  H    0.025466
    80  H    0.230252
    81  H    0.203958
 Sum of Mulliken charges =  -0.00000

 Dipole moment (field-independent basis, Debye):
    X=              3.2590    Y=              1.1236    Z=              0.3927  Tot=              3.4696
 Quadrupole moment (field-independent basis, Debye-Ang):
   XX=           -252.9251   YY=           -243.5352   ZZ=           -253.5142
   XY=            -12.1117   XZ=             16.3793   YZ=             13.8209

 Normal termination of Gaussian 16 at Thu Jun 27 19:59:07 2019.
