 Gaussian 16, Revision A.03,
 Gaussian 16:  ES64L-G16RevA.03 25-Dec-2016

 --------------------------
 # td=(NStates=1) B3LYP/SVP
 --------------------------

 --
 TD
 --
 Symbolic Z-matrix:
 Charge =  0 Multiplicity = 1

                         Standard orientation:
 ---------------------------------------------------------------------
 Center     Atomic      Atomic             Coordinates (Angstroms)
 Number     Number       Type             X           Y           Z
 ---------------------------------------------------------------------
      1          8           0        4.294186   -4.752597   -1.723098
      2          8           0       -2.815431   -4.815744   -1.214183
      3          8           0       -7.139844   -1.630648   -1.878009
      4          8           0       -3.606169   -3.058901    0.091055
      5          8           0       -7.505989   -0.838209    0.297735
      6          8           0        2.969981    2.370213    0.313369
      7          7           0        0.266312   -0.598738    0.371725
      8          7           0       -1.550519    1.783540    0.231903
      9          7           0        3.358969   -3.044014   -0.673696
     10          7           0        0.680935    2.913478    0.154521
     11          6           0       -0.553670   -2.302188    1.436261
     12          6           0       -0.918081   -1.116898    0.877735
     13          6           0        0.849135   -2.543386    1.369081
     14          6           0        1.343389   -1.385374    0.661002
     15          6           0       -3.842477    1.396530    0.192800
     16          6           0       -2.517538    0.784770    0.485182
     17          6           0       -2.232850   -0.508563    0.831110
     18          6           0       -3.591793    2.804959   -0.055305
     19          6           0       -1.491172   -3.319161    1.948177
     20          6           0        5.547176   -2.668138   -1.350173
     21          6           0        3.611642   -1.828449   -0.184818
     22          6           0       -2.194694    2.957724   -0.079438
     23          6           0        5.097806   -1.523405   -0.469100
     24          6           0       -5.082919    0.674440    0.289152
     25          6           0        2.705631   -0.974941    0.355762
     26          6           0        1.601284   -3.836852    1.921664
     27          6           0        4.398122   -3.648802   -1.285503
     28          6           0       -1.933019   -4.527133    1.033211
     29          6           0       -5.429051   -0.144703   -0.943067
     30          6           0       -4.654739    3.763891   -0.454688
     31          6           0       -1.404165    4.033283   -0.344767
     32          6           0        6.837928   -3.295599   -0.970746
     33          6           0        5.778369   -0.408928   -0.119270
     34          6           0        0.054982    4.058692   -0.138918
     35          6           0        0.878934    5.209522   -0.319645
     36          6           0        2.212529    4.663612   -0.259441
     37          6           0       -2.951869   -4.068166   -0.074819
     38          6           0        5.432208    0.748801    0.651134
     39          6           0       -6.762636   -0.859264   -0.722268
     40          6           0        3.568202    5.357799   -0.345081
     41          6           0        2.114506    3.244584    0.102104
     42          6           0        0.342788    6.459648   -0.722595
     43          6           0        4.373793    5.564219    1.071582
     44          1           0        0.417237    0.441624    0.074409
     45          1           0       -2.993887   -1.148261    1.544695
     46          1           0       -2.280912   -2.789748    2.631828
     47          1           0       -0.860029   -3.911548    2.803034
     48          1           0        5.590367   -2.376241   -2.496912
     49          1           0       -5.109248    0.078173    1.244827
     50          1           0       -5.964402    1.367742    0.603478
     51          1           0        3.025729    0.042467    0.372974
     52          1           0       -0.773531    1.826636    0.714318
     53          1           0        1.941024   -4.706901    1.136264
     54          1           0        2.653888   -3.345552    2.331303
     55          1           0        0.951199   -4.085979    2.857024
     56          1           0        2.493179   -3.684660   -0.755401
     57          1           0       -0.999667   -4.797119    0.592249
     58          1           0       -2.331681   -5.413125    1.552880
     59          1           0       -4.713597   -1.026781   -0.779324
     60          1           0       -5.228332    0.345397   -1.914990
     61          1           0       -4.527817    4.847284   -0.072088
     62          1           0       -5.581515    3.311339   -0.172073
     63          1           0       -4.305115    4.063346   -1.713682
     64          1           0       -1.880833    5.198350   -0.421213
     65          1           0        7.820669   -2.798271   -1.277500
     66          1           0        6.897291   -4.363186   -1.441110
     67          1           0        6.936073   -3.674154    0.047744
     68          1           0        6.789897   -0.198921   -0.467100
     69          1           0        4.689051    1.517670    0.014452
     70          1           0        6.302500    1.296845    1.048599
     71          1           0        5.020209    0.290231    1.590859
     72          1           0        3.277068    6.372541   -0.799833
     73          1           0        4.078579    4.698263   -1.046940
     74          1           0       -0.331486    6.396401   -1.585082
     75          1           0        1.188974    7.307204   -0.962274
     76          1           0       -0.397491    7.058470   -0.151474
     77          1           0        3.721422    6.175941    1.761086
     78          1           0        5.415323    5.663379    0.910885
     79          1           0        4.518972    4.517137    1.649161
     80          1           0       -3.505231   -4.426578   -1.858426
     81          1           0       -7.934157   -2.217321   -1.570684
 ---------------------------------------------------------------------

 SCF Done:  E(RB3LYP) =  -1949.06776630     A.U. after   17 cycles

 Excitation energies and oscillator strengths:

 Excited State   1:      Singlet-A      1.5658 eV  791.85 nm  f=0.2101  <S**2>=0.000
     156 ->157         0.70452
     156 <-157        -0.12092
 This state for optimization and/or second-order correction.
 Total Energy, E(TD-HF/TD-DFT) =  -1949.01022563
 Copying the excited state density for this state as the 1-particle RhoCI density.

 The electronic state is 1-A.
 Alpha  occ. eigenvalues --  -19.20555 -19.17937 -19.14865 -19.13814 -19.11791
 Alpha  occ. eigenvalues --  -19.10791 -14.37194 -14.37131 -14.34738 -14.28368
 Alpha  occ. eigenvalues --  -10.33804 -10.33422 -10.28271 -10.27265 -10.23905
 Alpha  occ. eigenvalues --  -10.23357 -10.23272 -10.23255 -10.22924 -10.22509
 Alpha  occ. eigenvalues --  -10.22150 -10.22144 -10.22102 -10.22097 -10.21730
 Alpha  occ. eigenvalues --  -10.21620 -10.21340 -10.21063 -10.21048 -10.20924
 Alpha  occ. eigenvalues --  -10.20755 -10.20704 -10.20436 -10.20383 -10.20018
 Alpha  occ. eigenvalues --  -10.19929 -10.19795 -10.19597 -10.19117 -10.18907
 Alpha  occ. eigenvalues --  -10.18682 -10.17626 -10.17349  -1.09993  -1.05654
 Alpha  occ. eigenvalues --   -1.05441  -1.02353  -1.01222  -0.98175  -0.97990
 Alpha  occ. eigenvalues --   -0.97229  -0.96376  -0.91071  -0.82978  -0.81510
 Alpha  occ. eigenvalues --   -0.81397  -0.80674  -0.79352  -0.78756  -0.77620
 Alpha  occ. eigenvalues --   -0.76572  -0.75895  -0.75626  -0.74078  -0.71640
 Alpha  occ. eigenvalues --   -0.70334  -0.69328  -0.68596  -0.67858  -0.66861
 Alpha  occ. eigenvalues --   -0.66797  -0.65041  -0.63906  -0.62868  -0.61764
 Alpha  occ. eigenvalues --   -0.60279  -0.58775  -0.58292  -0.57087  -0.56301
 Alpha  occ. eigenvalues --   -0.55958  -0.54982  -0.53370  -0.53337  -0.52998
 Alpha  occ. eigenvalues --   -0.51822  -0.51270  -0.50641  -0.50089  -0.49845
 Alpha  occ. eigenvalues --   -0.49496  -0.48738  -0.48370  -0.47826  -0.47495
 Alpha  occ. eigenvalues --   -0.47184  -0.46409  -0.46251  -0.45700  -0.45326
 Alpha  occ. eigenvalues --   -0.44681  -0.44304  -0.44159  -0.43905  -0.43657
 Alpha  occ. eigenvalues --   -0.43478  -0.42638  -0.42371  -0.41793  -0.41481
 Alpha  occ. eigenvalues --   -0.41413  -0.41152  -0.40958  -0.40822  -0.40681
 Alpha  occ. eigenvalues --   -0.40051  -0.39806  -0.39605  -0.39531  -0.39414
 Alpha  occ. eigenvalues --   -0.39306  -0.38725  -0.38382  -0.38106  -0.37961
 Alpha  occ. eigenvalues --   -0.37495  -0.37413  -0.36915  -0.36667  -0.36431
 Alpha  occ. eigenvalues --   -0.36400  -0.36291  -0.35252  -0.34879  -0.34814
 Alpha  occ. eigenvalues --   -0.34359  -0.33446  -0.33198  -0.32677  -0.32663
 Alpha  occ. eigenvalues --   -0.32173  -0.31642  -0.30377  -0.29936  -0.29294
 Alpha  occ. eigenvalues --   -0.28509  -0.28051  -0.26535  -0.25922  -0.25018
 Alpha  occ. eigenvalues --   -0.24947  -0.24446  -0.24089  -0.22517  -0.21112
 Alpha  occ. eigenvalues --   -0.17578
 Alpha virt. eigenvalues --   -0.11106  -0.07086  -0.03309  -0.01940  -0.01398
 Alpha virt. eigenvalues --    0.00115   0.01726   0.01920   0.02206   0.02799
 Alpha virt. eigenvalues --    0.03656   0.04406   0.04773   0.04985   0.05564

 Mulliken charges:
               1
     1  O   -0.191592
     2  O   -0.206457
     3  O   -0.282908
     4  O   -0.216312
     5  O   -0.261218
     6  O   -0.209529
     7  N   -0.106020
     8  N   -0.033787
     9  N   -0.071411
    10  N   -0.336894
    11  C   -0.094655
    12  C    0.015068
    13  C   -0.135794
    14  C    0.051018
    15  C   -0.063365
    16  C    0.076276
    17  C   -0.070291
    18  C   -0.102480
    19  C   -0.009175
    20  C   -0.028353
    21  C    0.078008
    22  C    0.137809
    23  C    0.042199
    24  C    0.005340
    25  C   -0.098846
    26  C   -0.029802
    27  C    0.042864
    28  C    0.066862
    29  C    0.003848
    30  C    0.035452
    31  C   -0.162049
    32  C    0.015596
    33  C   -0.198572
    34  C    0.024259
    35  C   -0.010747
    36  C   -0.211523
    37  C    0.154020
    38  C    0.013808
    39  C    0.197646
    40  C    0.063517
    41  C    0.199689
    42  C    0.016162
    43  C   -0.018457
    44  H    0.172355
    45  H    0.064826
    46  H    0.027584
    47  H    0.003862
    48  H    0.062021
    49  H    0.028526
    50  H    0.024384
    51  H   -0.015942
    52  H    0.099087
    53  H    0.064703
    54  H    0.051771
    55  H    0.046393
    56  H    0.164616
    57  H    0.018668
    58  H    0.046102
    59  H    0.078376
    60  H    0.058060
    61  H    0.034270
    62  H    0.026291
    63  H    0.045403
    64  H    0.005912
    65  H    0.029737
    66  H    0.023151
    67  H    0.001407
    68  H   -0.011755
    69  H    0.126075
    70  H   -0.004829
    71  H    0.026244
    72  H    0.011146
    73  H    0.018804
    74  H    0.027425
    75  H    0.035052
    76  H    0.021981
    77  H    0.042211
    78  H    0.014513
    79  H    0.027287
    80  H    0.205369
    81  H    0.209714
 Sum of Mulliken charges =  -0.00000

 Dipole moment (field-independent basis, Debye):
    X=             -1.8578    Y=              1.4699    Z=             -0.5559  Tot=              2.4333
 Quadrupole moment (field-independent basis, Debye-Ang):
   XX=           -254.4844   YY=           -235.9077   ZZ=           -256.3376
   XY=             16.1545   XZ=             11.3782   YZ=             -9.4995

 Normal termination of Gaussian 16 at Thu Jun 27 12:59:10 2019.
