 Gaussian 16, Revision A.03,
 Gaussian 16:  ES64L-G16RevA.03 25-Dec-2016

 --------------------------
 # td=(NStates=1) B3LYP/SVP
 --------------------------

 --
 TD
 --
 Symbolic Z-matrix:
 Charge =  0 Multiplicity = 1

                         Standard orientation:
 ---------------------------------------------------------------------
 Center     Atomic      Atomic             Coordinates (Angstroms)
 Number     Number       Type             X           Y           Z
 ---------------------------------------------------------------------
      1          8           0       -4.185085   -4.806385    2.052119
      2          8           0        3.386376   -4.661365    1.094918
      3          8           0        6.816581   -1.465788    1.930104
      4          8           0        3.953590   -2.920773   -0.177637
      5          8           0        7.542447   -0.692586    0.056412
      6          8           0       -3.123484    2.411033   -0.431825
      7          7           0       -0.289077   -0.554487   -0.492216
      8          7           0        1.458492    1.866250   -0.431890
      9          7           0       -3.273685   -3.255199    0.596104
     10          7           0       -0.858973    2.975296   -0.115682
     11          6           0        0.650812   -2.385111   -1.400714
     12          6           0        0.913030   -1.067571   -0.898527
     13          6           0       -0.703076   -2.619560   -1.351888
     14          6           0       -1.351585   -1.514562   -0.758324
     15          6           0        3.806088    1.548919   -0.316865
     16          6           0        2.441983    0.899172   -0.716680
     17          6           0        2.150563   -0.473943   -0.948676
     18          6           0        3.446156    2.837202    0.134787
     19          6           0        1.714469   -3.208387   -1.913289
     20          6           0       -5.483586   -2.819395    1.477231
     21          6           0       -3.521701   -1.982169    0.119270
     22          6           0        2.078359    3.069335   -0.014411
     23          6           0       -4.953961   -1.770840    0.460691
     24          6           0        5.038591    0.748313   -0.432135
     25          6           0       -2.647732   -1.143745   -0.436746
     26          6           0       -1.446666   -3.756356   -1.904903
     27          6           0       -4.273793   -3.789526    1.465240
     28          6           0        2.226292   -4.311912   -1.040696
     29          6           0        5.290241   -0.016860    0.886540
     30          6           0        4.550825    3.810357    0.483385
     31          6           0        1.275676    4.131573    0.338631
     32          6           0       -6.770429   -3.622046    1.050696
     33          6           0       -5.828262   -0.774833   -0.035788
     34          6           0       -0.252670    4.033581    0.249159
     35          6           0       -1.098301    5.129008    0.585383
     36          6           0       -2.418747    4.687470    0.212743
     37          6           0        3.184481   -3.820440    0.041379
     38          6           0       -5.349807    0.296042   -0.946395
     39          6           0        6.613713   -0.654388    0.828624
     40          6           0       -3.791512    5.254465    0.257941
     41          6           0       -2.157141    3.254927   -0.169050
     42          6           0       -0.707659    6.496667    1.068683
     43          6           0       -4.387428    5.618789   -1.009525
     44          1           0       -0.327085    0.256869    0.125148
     45          1           0        3.170336   -0.933139   -0.965037
     46          1           0        2.658371   -2.463786   -2.026229
     47          1           0        1.465141   -3.542982   -2.917811
     48          1           0       -5.613683   -2.417664    2.472007
     49          1           0        4.780678    0.077950   -1.099506
     50          1           0        6.012921    1.398762   -0.830758
     51          1           0       -2.794451   -0.116780   -0.587982
     52          1           0        0.524297    2.024577   -0.439359
     53          1           0       -1.565555   -4.721140   -1.447006
     54          1           0       -2.443213   -3.496167   -1.795887
     55          1           0       -1.284400   -4.031287   -3.056879
     56          1           0       -2.441985   -3.643010    0.672948
     57          1           0        1.454147   -5.035759   -0.625194
     58          1           0        2.827074   -5.035708   -1.725263
     59          1           0        4.488456   -0.778013    0.973988
     60          1           0        5.143037    0.532230    1.733889
     61          1           0        4.519356    4.530292   -0.283150
     62          1           0        5.590339    3.230279    0.451442
     63          1           0        4.293464    4.420008    1.557508
     64          1           0        1.511003    5.002755    0.678362
     65          1           0       -7.649153   -2.936552    1.336124
     66          1           0       -6.883267   -4.490995    1.669901
     67          1           0       -6.837055   -3.965890    0.052620
     68          1           0       -6.894303   -0.679236    0.129728
     69          1           0       -4.656851    0.958283   -0.480668
     70          1           0       -6.230502    0.913542   -1.318770
     71          1           0       -4.914095    0.056223   -1.971756
     72          1           0       -3.718809    6.207732    0.965922
     73          1           0       -4.339649    4.510320    0.713823
     74          1           0       -0.103808    6.477751    1.935029
     75          1           0       -1.542858    7.142735    1.193902
     76          1           0       -0.116987    6.818912    0.160896
     77          1           0       -3.950598    6.629627   -1.393517
     78          1           0       -5.380483    5.849430   -0.898981
     79          1           0       -4.085575    4.813442   -1.682021
     80          1           0        3.912178   -4.189574    1.697542
     81          1           0        7.619532   -2.015212    1.743442
 ---------------------------------------------------------------------

 SCF Done:  E(RB3LYP) =  -1949.10741561     A.U. after   18 cycles

 Excitation energies and oscillator strengths:

 Excited State   1:      Singlet-A      1.6584 eV  747.63 nm  f=0.3192  <S**2>=0.000
     156 ->157         0.71519
     156 <-157        -0.15173
 This state for optimization and/or second-order correction.
 Total Energy, E(TD-HF/TD-DFT) =  -1949.04647218
 Copying the excited state density for this state as the 1-particle RhoCI density.

 The electronic state is 1-A.
 Alpha  occ. eigenvalues --  -19.19449 -19.16109 -19.14848 -19.12795 -19.12271
 Alpha  occ. eigenvalues --  -19.10058 -14.37369 -14.36455 -14.34873 -14.28775
 Alpha  occ. eigenvalues --  -10.34042 -10.32039 -10.29619 -10.26361 -10.24797
 Alpha  occ. eigenvalues --  -10.24360 -10.23713 -10.23612 -10.23106 -10.22725
 Alpha  occ. eigenvalues --  -10.22655 -10.21843 -10.21573 -10.21136 -10.21121
 Alpha  occ. eigenvalues --  -10.21079 -10.21062 -10.20712 -10.20448 -10.20366
 Alpha  occ. eigenvalues --  -10.20347 -10.19973 -10.19498 -10.19315 -10.19162
 Alpha  occ. eigenvalues --  -10.19144 -10.19141 -10.18960 -10.18552 -10.18217
 Alpha  occ. eigenvalues --  -10.17996 -10.16939 -10.16795  -1.11983  -1.08945
 Alpha  occ. eigenvalues --   -1.06098  -1.03003  -0.99218  -0.98517  -0.97344
 Alpha  occ. eigenvalues --   -0.96409  -0.96012  -0.92979  -0.83549  -0.83049
 Alpha  occ. eigenvalues --   -0.82036  -0.80956  -0.80309  -0.79747  -0.78445
 Alpha  occ. eigenvalues --   -0.78170  -0.77137  -0.75827  -0.74642  -0.72780
 Alpha  occ. eigenvalues --   -0.71675  -0.70285  -0.69648  -0.68864  -0.68332
 Alpha  occ. eigenvalues --   -0.67615  -0.66071  -0.64013  -0.63010  -0.61943
 Alpha  occ. eigenvalues --   -0.61584  -0.59903  -0.59091  -0.58719  -0.57682
 Alpha  occ. eigenvalues --   -0.57433  -0.55911  -0.54712  -0.54258  -0.53275
 Alpha  occ. eigenvalues --   -0.52645  -0.52132  -0.52041  -0.50878  -0.50692
 Alpha  occ. eigenvalues --   -0.49692  -0.49276  -0.48749  -0.48234  -0.47657
 Alpha  occ. eigenvalues --   -0.47374  -0.47105  -0.46369  -0.46355  -0.45431
 Alpha  occ. eigenvalues --   -0.44981  -0.44774  -0.44742  -0.44364  -0.44119
 Alpha  occ. eigenvalues --   -0.44036  -0.43674  -0.43466  -0.43442  -0.42778
 Alpha  occ. eigenvalues --   -0.42427  -0.41797  -0.41608  -0.41464  -0.41060
 Alpha  occ. eigenvalues --   -0.40979  -0.40672  -0.40583  -0.40227  -0.39758
 Alpha  occ. eigenvalues --   -0.39643  -0.39497  -0.39037  -0.38866  -0.38672
 Alpha  occ. eigenvalues --   -0.38530  -0.38039  -0.37516  -0.37053  -0.36966
 Alpha  occ. eigenvalues --   -0.36662  -0.36535  -0.35935  -0.35664  -0.34875
 Alpha  occ. eigenvalues --   -0.34285  -0.34186  -0.34012  -0.33632  -0.33217
 Alpha  occ. eigenvalues --   -0.32517  -0.31766  -0.31352  -0.30230  -0.29711
 Alpha  occ. eigenvalues --   -0.28037  -0.27696  -0.26948  -0.26499  -0.25560
 Alpha  occ. eigenvalues --   -0.25168  -0.24701  -0.23972  -0.22830  -0.22076
 Alpha  occ. eigenvalues --   -0.17431
 Alpha virt. eigenvalues --   -0.11090  -0.06802  -0.04277  -0.03089  -0.00552
 Alpha virt. eigenvalues --   -0.00412   0.01184   0.03443   0.03819   0.04127
 Alpha virt. eigenvalues --    0.04789   0.04926   0.05604   0.06443   0.06730

 Mulliken charges:
               1
     1  O   -0.159127
     2  O   -0.152933
     3  O   -0.243410
     4  O   -0.225791
     5  O   -0.219532
     6  O   -0.296174
     7  N   -0.110553
     8  N   -0.072093
     9  N   -0.091728
    10  N   -0.155314
    11  C   -0.070661
    12  C    0.135076
    13  C   -0.119980
    14  C    0.104312
    15  C   -0.114923
    16  C    0.028869
    17  C   -0.102215
    18  C   -0.137879
    19  C    0.052184
    20  C   -0.057252
    21  C    0.174101
    22  C    0.167873
    23  C   -0.045983
    24  C    0.118626
    25  C   -0.117635
    26  C    0.083708
    27  C    0.102235
    28  C    0.015388
    29  C    0.064795
    30  C    0.036666
    31  C   -0.014190
    32  C    0.061578
    33  C   -0.100636
    34  C   -0.028369
    35  C   -0.169879
    36  C   -0.183712
    37  C    0.132774
    38  C    0.012418
    39  C    0.149936
    40  C    0.100182
    41  C    0.134667
    42  C    0.150521
    43  C    0.058261
    44  H    0.139869
    45  H    0.037088
    46  H    0.034566
    47  H    0.000119
    48  H    0.037965
    49  H   -0.026618
    50  H    0.063741
    51  H   -0.010005
    52  H    0.055198
    53  H    0.005699
    54  H   -0.020140
    55  H    0.033208
    56  H    0.073753
    57  H    0.031375
    58  H    0.060322
    59  H    0.042687
    60  H    0.008869
    61  H    0.024554
    62  H    0.043721
    63  H    0.041030
    64  H   -0.129635
    65  H    0.024161
    66  H    0.020357
    67  H    0.010957
    68  H    0.000958
    69  H    0.071247
    70  H   -0.007697
    71  H    0.031295
    72  H   -0.004156
    73  H   -0.007414
    74  H    0.016486
    75  H    0.003262
    76  H    0.036096
    77  H   -0.002139
    78  H   -0.008820
    79  H    0.026796
    80  H    0.162701
    81  H    0.184347
 Sum of Mulliken charges =  -0.00000

 Dipole moment (field-independent basis, Debye):
    X=              0.9547    Y=              0.2978    Z=              1.0817  Tot=              1.4732
 Quadrupole moment (field-independent basis, Debye-Ang):
   XX=           -257.5048   YY=           -239.5618   ZZ=           -255.2156
   XY=             -6.9255   XZ=              8.7256   YZ=             14.0714

 Normal termination of Gaussian 16 at Sat Jun 29 04:25:56 2019.
