 Gaussian 16, Revision A.03,
 Gaussian 16:  ES64L-G16RevA.03 25-Dec-2016

 --------------------------
 # td=(NStates=1) B3LYP/SVP
 --------------------------

 --
 TD
 --
 Symbolic Z-matrix:
 Charge =  0 Multiplicity = 1

                         Standard orientation:
 ---------------------------------------------------------------------
 Center     Atomic      Atomic             Coordinates (Angstroms)
 Number     Number       Type             X           Y           Z
 ---------------------------------------------------------------------
      1          8           0        4.056935   -4.926218   -1.894974
      2          8           0       -3.231166   -4.802688   -0.970374
      3          8           0       -7.007374   -1.409239   -1.816299
      4          8           0       -3.930897   -3.018611    0.138953
      5          8           0       -7.688239   -0.365005   -0.006247
      6          8           0        3.080451    2.323131    0.368473
      7          7           0        0.210581   -0.469647    0.631271
      8          7           0       -1.452009    1.844481    0.228586
      9          7           0        3.220345   -3.189988   -0.610098
     10          7           0        0.916258    2.904326   -0.038099
     11          6           0       -0.677155   -2.341933    1.418469
     12          6           0       -0.982260   -1.036895    0.941359
     13          6           0        0.740546   -2.527371    1.282740
     14          6           0        1.379573   -1.291400    0.814736
     15          6           0       -3.685383    1.435612    0.226483
     16          6           0       -2.411123    0.933920    0.421519
     17          6           0       -2.195529   -0.362565    0.877409
     18          6           0       -3.511199    2.831428   -0.102791
     19          6           0       -1.630089   -3.379998    2.067595
     20          6           0        5.411014   -3.068303   -1.283865
     21          6           0        3.635715   -1.848599   -0.174476
     22          6           0       -1.976288    3.070394   -0.120570
     23          6           0        5.018528   -1.686039   -0.646608
     24          6           0       -5.003248    0.878655    0.338689
     25          6           0        2.718709   -1.011294    0.435892
     26          6           0        1.349307   -3.842528    1.850733
     27          6           0        4.200710   -3.858849   -1.360732
     28          6           0       -2.193731   -4.406236    1.048731
     29          6           0       -5.440028   -0.061737   -0.830745
     30          6           0       -4.493760    3.907313   -0.440856
     31          6           0       -1.174111    4.157399   -0.349810
     32          6           0        6.727425   -3.764008   -0.797043
     33          6           0        5.832093   -0.643960   -0.310565
     34          6           0        0.191729    4.060439   -0.254706
     35          6           0        1.175568    5.091514   -0.516374
     36          6           0        2.431311    4.561407   -0.262681
     37          6           0       -3.190917   -3.967178    0.058402
     38          6           0        5.582541    0.497514    0.441392
     39          6           0       -6.833448   -0.594947   -0.834153
     40          6           0        3.792560    5.200716   -0.208034
     41          6           0        2.212062    3.163318    0.078976
     42          6           0        0.802969    6.507929   -0.635326
     43          6           0        4.422188    5.510933    1.198133
     44          1           0        0.660464    0.194905    0.051636
     45          1           0       -3.131764   -0.977426    1.114200
     46          1           0       -2.533926   -2.806099    2.220093
     47          1           0       -1.171201   -3.904305    2.959884
     48          1           0        5.673007   -2.884192   -2.384141
     49          1           0       -5.007931    0.280121    1.347943
     50          1           0       -5.658703    1.613355    0.356491
     51          1           0        2.893266    0.008097    0.539743
     52          1           0       -0.490860    1.793370    0.385145
     53          1           0        1.493149   -4.749708    1.121678
     54          1           0        2.425265   -3.652278    2.187403
     55          1           0        0.738983   -3.933361    2.775144
     56          1           0        2.208615   -3.541179   -0.583257
     57          1           0       -1.451542   -4.869696    0.478485
     58          1           0       -2.799541   -5.361735    1.609399
     59          1           0       -4.569915   -0.665792   -0.928269
     60          1           0       -5.400212    0.462317   -1.739698
     61          1           0       -4.580050    4.777305    0.172353
     62          1           0       -5.731126    3.508392   -0.448881
     63          1           0       -4.384222    4.230339   -1.508882
     64          1           0       -1.560496    5.122087   -0.571985
     65          1           0        7.474784   -3.083268   -0.703346
     66          1           0        6.754299   -4.608961   -1.434906
     67          1           0        6.500183   -3.957305    0.334220
     68          1           0        6.892527   -0.809918   -0.818519
     69          1           0        5.201096    1.315532   -0.313991
     70          1           0        6.624044    0.970346    1.060935
     71          1           0        4.728603    0.422788    1.146165
     72          1           0        3.921137    5.952917   -1.104050
     73          1           0        4.524797    4.526315   -0.730592
     74          1           0        0.002695    6.795354   -1.430486
     75          1           0        1.726268    7.332779   -0.785926
     76          1           0        0.467930    6.992009    0.425298
     77          1           0        3.863851    6.350472    1.601448
     78          1           0        5.561687    5.953349    1.249844
     79          1           0        4.541672    4.561238    1.762358
     80          1           0       -4.100595   -4.555161   -1.526193
     81          1           0       -8.167822   -1.526077   -2.156147
 ---------------------------------------------------------------------

 SCF Done:  E(RB3LYP) =  -1949.06094100     A.U. after   20 cycles

 Excitation energies and oscillator strengths:

 Excited State   1:      Singlet-A      1.6906 eV  733.37 nm  f=0.3005  <S**2>=0.000
     156 ->157         0.70677
     156 <-157        -0.12961
 This state for optimization and/or second-order correction.
 Total Energy, E(TD-HF/TD-DFT) =  -1948.99881250
 Copying the excited state density for this state as the 1-particle RhoCI density.

 The electronic state is 1-A.
 Alpha  occ. eigenvalues --  -19.19864 -19.19296 -19.13650 -19.11312 -19.10809
 Alpha  occ. eigenvalues --  -19.08774 -14.37462 -14.36945 -14.35946 -14.26909
 Alpha  occ. eigenvalues --  -10.32864 -10.31345 -10.28782 -10.25623 -10.24630
 Alpha  occ. eigenvalues --  -10.24465 -10.24370 -10.23943 -10.22989 -10.22337
 Alpha  occ. eigenvalues --  -10.22012 -10.21965 -10.21657 -10.21488 -10.21389
 Alpha  occ. eigenvalues --  -10.21340 -10.21219 -10.21002 -10.20905 -10.20788
 Alpha  occ. eigenvalues --  -10.20653 -10.20334 -10.20220 -10.19995 -10.19371
 Alpha  occ. eigenvalues --  -10.19356 -10.19245 -10.19236 -10.19234 -10.19070
 Alpha  occ. eigenvalues --  -10.19029 -10.18709 -10.18194  -1.11191  -1.09506
 Alpha  occ. eigenvalues --   -1.03799  -1.01472  -0.99652  -0.99139  -0.99120
 Alpha  occ. eigenvalues --   -0.97722  -0.93386  -0.91217  -0.83500  -0.82252
 Alpha  occ. eigenvalues --   -0.81642  -0.81342  -0.79528  -0.78063  -0.77975
 Alpha  occ. eigenvalues --   -0.77622  -0.77072  -0.75969  -0.73967  -0.72598
 Alpha  occ. eigenvalues --   -0.71000  -0.70039  -0.69184  -0.68669  -0.67834
 Alpha  occ. eigenvalues --   -0.67151  -0.65875  -0.64585  -0.62289  -0.60689
 Alpha  occ. eigenvalues --   -0.60262  -0.59664  -0.58940  -0.57267  -0.57100
 Alpha  occ. eigenvalues --   -0.56393  -0.56062  -0.55158  -0.53054  -0.52581
 Alpha  occ. eigenvalues --   -0.52121  -0.51753  -0.51162  -0.50999  -0.50168
 Alpha  occ. eigenvalues --   -0.49619  -0.49014  -0.48794  -0.47941  -0.47607
 Alpha  occ. eigenvalues --   -0.47083  -0.46815  -0.46050  -0.45722  -0.45044
 Alpha  occ. eigenvalues --   -0.44736  -0.44416  -0.44246  -0.43920  -0.43535
 Alpha  occ. eigenvalues --   -0.43492  -0.43158  -0.42847  -0.42366  -0.42187
 Alpha  occ. eigenvalues --   -0.42094  -0.41807  -0.41562  -0.41467  -0.40897
 Alpha  occ. eigenvalues --   -0.40651  -0.40351  -0.40069  -0.39485  -0.39311
 Alpha  occ. eigenvalues --   -0.39210  -0.38824  -0.38744  -0.38243  -0.38176
 Alpha  occ. eigenvalues --   -0.37939  -0.37410  -0.37203  -0.36532  -0.36205
 Alpha  occ. eigenvalues --   -0.35563  -0.35103  -0.34798  -0.34658  -0.34469
 Alpha  occ. eigenvalues --   -0.33799  -0.33668  -0.33456  -0.32874  -0.32803
 Alpha  occ. eigenvalues --   -0.32287  -0.31499  -0.31139  -0.29763  -0.29326
 Alpha  occ. eigenvalues --   -0.27302  -0.26483  -0.26367  -0.25553  -0.25322
 Alpha  occ. eigenvalues --   -0.25238  -0.24712  -0.23264  -0.22739  -0.21453
 Alpha  occ. eigenvalues --   -0.17875
 Alpha virt. eigenvalues --   -0.11091  -0.06502  -0.04721  -0.03689  -0.01312
 Alpha virt. eigenvalues --    0.00039   0.01655   0.02324   0.02480   0.03042
 Alpha virt. eigenvalues --    0.03368   0.03898   0.04255   0.04444   0.04998

 Mulliken charges:
               1
     1  O   -0.199374
     2  O   -0.208078
     3  O   -0.250245
     4  O   -0.227040
     5  O   -0.231138
     6  O   -0.253828
     7  N   -0.092287
     8  N    0.008789
     9  N   -0.221598
    10  N   -0.287783
    11  C   -0.126170
    12  C    0.104201
    13  C   -0.189333
    14  C    0.019454
    15  C   -0.119305
    16  C    0.093263
    17  C   -0.121452
    18  C   -0.092327
    19  C    0.168630
    20  C   -0.091213
    21  C    0.157067
    22  C    0.110119
    23  C   -0.007869
    24  C    0.188706
    25  C   -0.075620
    26  C    0.024194
    27  C    0.128257
    28  C   -0.014338
    29  C    0.025866
    30  C    0.003696
    31  C   -0.096249
    32  C    0.122161
    33  C   -0.148275
    34  C    0.086626
    35  C   -0.043974
    36  C   -0.135714
    37  C    0.102131
    38  C    0.006718
    39  C    0.150181
    40  C    0.035636
    41  C    0.115583
    42  C   -0.062361
    43  C   -0.017695
    44  H    0.145317
    45  H    0.040933
    46  H    0.003334
    47  H    0.030957
    48  H    0.041655
    49  H    0.034318
    50  H   -0.061317
    51  H   -0.026045
    52  H    0.085051
    53  H    0.051120
    54  H    0.027129
    55  H    0.028655
    56  H    0.157770
    57  H    0.011853
    58  H    0.070887
    59  H    0.022563
    60  H   -0.003162
    61  H    0.033147
    62  H    0.028554
    63  H    0.037030
    64  H   -0.042989
    65  H   -0.012454
    66  H    0.041360
    67  H    0.015717
    68  H    0.017805
    69  H    0.087820
    70  H    0.042698
    71  H    0.055336
    72  H    0.002146
    73  H   -0.002826
    74  H    0.040611
    75  H    0.031679
    76  H    0.047005
    77  H    0.018634
    78  H    0.014222
    79  H    0.046165
    80  H    0.227815
    81  H    0.271493
 Sum of Mulliken charges =  -0.00000

 Dipole moment (field-independent basis, Debye):
    X=             -2.6667    Y=             -0.2402    Z=             -1.3497  Tot=              2.9984
 Quadrupole moment (field-independent basis, Debye-Ang):
   XX=           -238.3897   YY=           -246.0090   ZZ=           -252.2783
   XY=             12.7010   XZ=             22.6499   YZ=            -11.2027

 Normal termination of Gaussian 16 at Sat Jun 29 01:34:02 2019.
