 Gaussian 16, Revision A.03,
 Gaussian 16:  ES64L-G16RevA.03 25-Dec-2016

 --------------------------
 # td=(NStates=1) B3LYP/SVP
 --------------------------

 --
 TD
 --
 Symbolic Z-matrix:
 Charge =  0 Multiplicity = 1

                         Standard orientation:
 ---------------------------------------------------------------------
 Center     Atomic      Atomic             Coordinates (Angstroms)
 Number     Number       Type             X           Y           Z
 ---------------------------------------------------------------------
      1          8           0       -3.971050   -5.176202    1.828304
      2          8           0        3.161789   -4.844508    0.956623
      3          8           0        6.949847   -1.221191    2.143379
      4          8           0        3.907697   -2.956650   -0.071712
      5          8           0        7.580818   -0.381587    0.158000
      6          8           0       -3.213462    2.363925   -0.425336
      7          7           0       -0.284977   -0.541283   -0.700516
      8          7           0        1.442481    1.948889   -0.468763
      9          7           0       -3.099971   -3.288398    0.663328
     10          7           0       -1.016345    2.933890   -0.305675
     11          6           0        0.790577   -2.378354   -1.501166
     12          6           0        0.954640   -1.036038   -1.093927
     13          6           0       -0.658254   -2.637608   -1.347944
     14          6           0       -1.263597   -1.530801   -0.811956
     15          6           0        3.705118    1.707437   -0.360059
     16          6           0        2.425310    1.035177   -0.631191
     17          6           0        2.359285   -0.351687   -0.952091
     18          6           0        3.425314    2.956520    0.027852
     19          6           0        1.804734   -3.355220   -2.135081
     20          6           0       -5.225745   -2.999503    1.411341
     21          6           0       -3.483894   -2.070675    0.180681
     22          6           0        1.927201    3.118830   -0.005034
     23          6           0       -4.857941   -1.888586    0.521700
     24          6           0        5.029390    0.956814   -0.297590
     25          6           0       -2.578855   -1.207827   -0.427195
     26          6           0       -1.153691   -3.979261   -1.709036
     27          6           0       -4.079718   -4.005219    1.357107
     28          6           0        2.195405   -4.444762   -1.214545
     29          6           0        5.357749    0.131748    1.013477
     30          6           0        4.242718    4.126319    0.415994
     31          6           0        1.060160    4.249055    0.121119
     32          6           0       -6.745699   -3.600235    1.120011
     33          6           0       -5.609026   -0.822694    0.201014
     34          6           0       -0.371662    4.061882    0.106554
     35          6           0       -1.268008    5.201858    0.373705
     36          6           0       -2.537839    4.575601    0.320200
     37          6           0        3.233920   -3.947524   -0.068664
     38          6           0       -5.425216    0.372745   -0.715459
     39          6           0        6.722640   -0.513665    1.058706
     40          6           0       -3.857162    5.013552    0.367093
     41          6           0       -2.338922    3.190574   -0.150230
     42          6           0       -0.941424    6.600454    0.938988
     43          6           0       -4.581559    5.558525   -0.916111
     44          1           0       -0.372812    0.449023   -0.381299
     45          1           0        3.312044   -0.935959   -1.190009
     46          1           0        2.745072   -2.748619   -2.315688
     47          1           0        1.404408   -3.697680   -2.959192
     48          1           0       -5.242652   -2.761265    2.526713
     49          1           0        5.068794    0.308359   -1.053160
     50          1           0        5.898504    1.655260   -0.430540
     51          1           0       -2.835237   -0.093060   -0.450934
     52          1           0        0.420982    1.917693   -0.805169
     53          1           0       -0.952770   -4.710987   -0.840680
     54          1           0       -2.270250   -3.868064   -2.137601
     55          1           0       -0.404337   -4.575217   -2.366644
     56          1           0       -2.128323   -3.568503    0.563229
     57          1           0        1.236070   -5.072198   -0.516733
     58          1           0        2.757813   -5.204351   -1.757977
     59          1           0        4.527038   -0.720954    1.217588
     60          1           0        5.169478    0.613670    2.058253
     61          1           0        3.959339    5.035046   -0.205122
     62          1           0        5.295948    3.671278    0.610821
     63          1           0        4.055135    4.627782    1.423994
     64          1           0        1.610254    5.143346    0.585480
     65          1           0       -7.406647   -2.584940    1.321111
     66          1           0       -6.776414   -4.370854    1.788198
     67          1           0       -6.750648   -3.797005   -0.022708
     68          1           0       -6.713510   -0.812393    0.682480
     69          1           0       -5.121257    1.076080   -0.108107
     70          1           0       -6.332759    0.687800   -1.064009
     71          1           0       -4.545249    0.097487   -1.517455
     72          1           0       -4.103313    5.880209    1.093701
     73          1           0       -4.357594    4.063453    0.822047
     74          1           0       -0.585764    6.635282    1.977126
     75          1           0       -1.781323    7.461639    0.717101
     76          1           0       -0.217612    7.015489    0.232047
     77          1           0       -4.111604    6.488699   -1.292796
     78          1           0       -5.673833    5.783358   -0.696495
     79          1           0       -4.512353    4.739787   -1.616522
     80          1           0        3.704818   -4.678354    1.696949
     81          1           0        7.881422   -1.316926    2.189745
 ---------------------------------------------------------------------

 SCF Done:  E(RB3LYP) =  -1949.10127523     A.U. after   19 cycles

 Excitation energies and oscillator strengths:

 Excited State   1:      Singlet-A      1.6249 eV  763.02 nm  f=0.2553  <S**2>=0.000
     156 ->157         0.70726
 This state for optimization and/or second-order correction.
 Total Energy, E(TD-HF/TD-DFT) =  -1949.04156099
 Copying the excited state density for this state as the 1-particle RhoCI density.

 The electronic state is 1-A.
 Alpha  occ. eigenvalues --  -19.19359 -19.19086 -19.15299 -19.12313 -19.10893
 Alpha  occ. eigenvalues --  -19.10194 -14.37459 -14.37107 -14.36908 -14.29173
 Alpha  occ. eigenvalues --  -10.34233 -10.32683 -10.29501 -10.25798 -10.24899
 Alpha  occ. eigenvalues --  -10.24145 -10.24026 -10.23584 -10.23583 -10.23578
 Alpha  occ. eigenvalues --  -10.23492 -10.22665 -10.22629 -10.21423 -10.21229
 Alpha  occ. eigenvalues --  -10.21141 -10.21024 -10.20898 -10.20817 -10.20657
 Alpha  occ. eigenvalues --  -10.20621 -10.20579 -10.20432 -10.20376 -10.20277
 Alpha  occ. eigenvalues --  -10.19454 -10.19149 -10.18845 -10.18778 -10.18769
 Alpha  occ. eigenvalues --  -10.18552 -10.18439 -10.16884  -1.11788  -1.10870
 Alpha  occ. eigenvalues --   -1.03188  -1.01195  -1.01118  -0.99596  -0.99343
 Alpha  occ. eigenvalues --   -0.96697  -0.95243  -0.91940  -0.82652  -0.81971
 Alpha  occ. eigenvalues --   -0.81520  -0.80496  -0.79927  -0.78882  -0.77302
 Alpha  occ. eigenvalues --   -0.76983  -0.75738  -0.74846  -0.73494  -0.72181
 Alpha  occ. eigenvalues --   -0.70964  -0.69853  -0.69220  -0.68706  -0.68659
 Alpha  occ. eigenvalues --   -0.67581  -0.65800  -0.65079  -0.62692  -0.62187
 Alpha  occ. eigenvalues --   -0.61278  -0.60697  -0.59046  -0.57695  -0.57261
 Alpha  occ. eigenvalues --   -0.55677  -0.55119  -0.54847  -0.53537  -0.52762
 Alpha  occ. eigenvalues --   -0.52088  -0.51539  -0.50851  -0.50174  -0.49743
 Alpha  occ. eigenvalues --   -0.49256  -0.48898  -0.48591  -0.47786  -0.47307
 Alpha  occ. eigenvalues --   -0.46677  -0.46501  -0.45985  -0.45442  -0.44899
 Alpha  occ. eigenvalues --   -0.44723  -0.44532  -0.44237  -0.43898  -0.43623
 Alpha  occ. eigenvalues --   -0.43139  -0.42999  -0.42733  -0.42614  -0.42396
 Alpha  occ. eigenvalues --   -0.42060  -0.41871  -0.41568  -0.41269  -0.41007
 Alpha  occ. eigenvalues --   -0.40890  -0.40595  -0.40302  -0.39990  -0.39697
 Alpha  occ. eigenvalues --   -0.39529  -0.39217  -0.39079  -0.38645  -0.38538
 Alpha  occ. eigenvalues --   -0.38023  -0.37714  -0.37657  -0.36746  -0.36204
 Alpha  occ. eigenvalues --   -0.35787  -0.35113  -0.34949  -0.34684  -0.34269
 Alpha  occ. eigenvalues --   -0.34140  -0.34037  -0.33829  -0.33365  -0.32896
 Alpha  occ. eigenvalues --   -0.32111  -0.32069  -0.31422  -0.29971  -0.29383
 Alpha  occ. eigenvalues --   -0.28004  -0.27862  -0.26734  -0.26111  -0.25893
 Alpha  occ. eigenvalues --   -0.25021  -0.24752  -0.23966  -0.22756  -0.21464
 Alpha  occ. eigenvalues --   -0.17705
 Alpha virt. eigenvalues --   -0.10967  -0.06303  -0.04157  -0.01506  -0.00699
 Alpha virt. eigenvalues --   -0.00516   0.02020   0.02487   0.03456   0.03634
 Alpha virt. eigenvalues --    0.04316   0.04849   0.05187   0.05484   0.05877

 Mulliken charges:
               1
     1  O   -0.258930
     2  O   -0.175070
     3  O   -0.123060
     4  O   -0.195223
     5  O   -0.274937
     6  O   -0.223959
     7  N   -0.114702
     8  N   -0.078885
     9  N   -0.100464
    10  N   -0.280816
    11  C   -0.155830
    12  C    0.024471
    13  C   -0.153323
    14  C    0.117728
    15  C   -0.107857
    16  C    0.060772
    17  C   -0.064856
    18  C   -0.089248
    19  C    0.221676
    20  C   -0.132254
    21  C    0.065855
    22  C    0.042109
    23  C    0.057295
    24  C    0.195570
    25  C   -0.165369
    26  C    0.004017
    27  C    0.174065
    28  C   -0.109319
    29  C   -0.090807
    30  C    0.040358
    31  C   -0.116487
    32  C    0.026459
    33  C   -0.264209
    34  C    0.087526
    35  C   -0.100853
    36  C   -0.113195
    37  C    0.150969
    38  C    0.211231
    39  C    0.144492
    40  C   -0.024199
    41  C    0.127247
    42  C    0.048406
    43  C    0.018702
    44  H    0.133833
    45  H    0.063927
    46  H    0.018546
    47  H   -0.032189
    48  H    0.058048
    49  H   -0.028712
    50  H    0.023431
    51  H    0.047738
    52  H    0.177499
    53  H    0.029811
    54  H    0.066558
    55  H    0.009859
    56  H    0.127254
    57  H    0.076495
    58  H    0.039926
    59  H    0.064529
    60  H    0.040173
    61  H    0.042812
    62  H    0.036417
    63  H    0.021849
    64  H    0.004125
    65  H    0.045125
    66  H    0.028451
    67  H    0.043984
    68  H    0.008876
    69  H   -0.007433
    70  H   -0.022559
    71  H    0.058312
    72  H   -0.001532
    73  H    0.030934
    74  H    0.050884
    75  H    0.031907
    76  H    0.015316
    77  H    0.016735
    78  H    0.022461
    79  H    0.020087
    80  H    0.166103
    81  H    0.165326
 Sum of Mulliken charges =  -0.00000

 Dipole moment (field-independent basis, Debye):
    X=              3.4616    Y=              2.1681    Z=              1.9059  Tot=              4.5073
 Quadrupole moment (field-independent basis, Debye-Ang):
   XX=           -252.5893   YY=           -244.7106   ZZ=           -251.9566
   XY=            -19.5998   XZ=             17.7840   YZ=             14.1345

 Normal termination of Gaussian 16 at Sat Jun 29 19:37:29 2019.
