 Gaussian 16, Revision A.03,
 Gaussian 16:  ES64L-G16RevA.03 25-Dec-2016

 --------------------------
 # td=(NStates=1) B3LYP/SVP
 --------------------------

 --
 TD
 --
 Symbolic Z-matrix:
 Charge =  0 Multiplicity = 1

                         Standard orientation:
 ---------------------------------------------------------------------
 Center     Atomic      Atomic             Coordinates (Angstroms)
 Number     Number       Type             X           Y           Z
 ---------------------------------------------------------------------
      1          8           0        4.069222   -4.798755   -1.878244
      2          8           0       -3.037877   -4.771929   -1.092405
      3          8           0       -6.660201   -1.687907   -1.906494
      4          8           0       -3.817386   -3.037435    0.158599
      5          8           0       -7.605229   -0.483309   -0.267888
      6          8           0        2.987505    2.305073    0.353387
      7          7           0        0.220189   -0.458607    0.677359
      8          7           0       -1.591398    1.849352    0.484270
      9          7           0        3.250781   -3.089508   -0.721217
     10          7           0        0.810891    2.847635    0.121097
     11          6           0       -0.722683   -2.389607    1.579903
     12          6           0       -0.956179   -1.048912    0.988273
     13          6           0        0.687213   -2.576459    1.425361
     14          6           0        1.248207   -1.423368    0.773444
     15          6           0       -3.764517    1.555029    0.288568
     16          6           0       -2.550448    0.908341    0.610494
     17          6           0       -2.186419   -0.430093    0.890434
     18          6           0       -3.493841    2.829700   -0.108161
     19          6           0       -1.733718   -3.388494    2.108456
     20          6           0        5.505560   -2.811468   -1.426397
     21          6           0        3.542586   -1.833667   -0.241477
     22          6           0       -2.143066    3.005885    0.114955
     23          6           0        5.001998   -1.641035   -0.529051
     24          6           0       -5.050975    0.797047    0.303842
     25          6           0        2.598018   -0.973956    0.388248
     26          6           0        1.417358   -3.749393    1.844060
     27          6           0        4.305815   -3.759156   -1.375432
     28          6           0       -2.118266   -4.420493    1.119116
     29          6           0       -5.274113   -0.046036   -0.889653
     30          6           0       -4.426184    3.897404   -0.566121
     31          6           0       -1.238504    4.154357   -0.239118
     32          6           0        6.808175   -3.490216   -1.089095
     33          6           0        5.851722   -0.681993   -0.132532
     34          6           0        0.156920    3.999244   -0.202690
     35          6           0        1.067548    5.151983   -0.485604
     36          6           0        2.329089    4.554209   -0.209195
     37          6           0       -3.052878   -3.927066    0.035111
     38          6           0        5.561725    0.418780    0.809255
     39          6           0       -6.613898   -0.752453   -0.948586
     40          6           0        3.766797    5.159074   -0.331986
     41          6           0        2.099076    3.161670    0.142174
     42          6           0        0.679677    6.536389   -0.945452
     43          6           0        4.215296    5.491421    1.119606
     44          1           0        0.548508    0.498504    0.270991
     45          1           0       -2.795631   -1.084410    1.190823
     46          1           0       -2.581227   -2.899730    2.471793
     47          1           0       -1.330711   -3.777730    2.930576
     48          1           0        5.495842   -2.432765   -2.456534
     49          1           0       -5.276172    0.062452    1.231444
     50          1           0       -5.869676    1.573759    0.394167
     51          1           0        2.688851    0.143766    0.331055
     52          1           0       -0.584164    1.720639    0.843369
     53          1           0        1.214392   -4.657240    1.134736
     54          1           0        2.567611   -3.554240    1.950413
     55          1           0        1.098165   -4.219105    2.938399
     56          1           0        2.244279   -3.260078   -1.055698
     57          1           0       -1.261735   -4.770443    0.594776
     58          1           0       -2.541953   -5.397351    1.568670
     59          1           0       -4.599711   -0.857484   -0.937599
     60          1           0       -5.066344    0.593246   -1.955472
     61          1           0       -4.446424    4.699057    0.065461
     62          1           0       -5.459453    3.500995   -0.490289
     63          1           0       -4.344527    4.070975   -1.605762
     64          1           0       -1.806004    4.989282   -0.777750
     65          1           0        7.714524   -2.753381   -1.177276
     66          1           0        6.874850   -4.409803   -1.645477
     67          1           0        6.645194   -3.874105   -0.064971
     68          1           0        6.744207   -0.498129   -0.448898
     69          1           0        5.286729    1.474158    0.338260
     70          1           0        6.422341    0.806942    1.357111
     71          1           0        4.694487    0.372544    1.506892
     72          1           0        3.961867    6.188800   -0.964002
     73          1           0        4.500884    4.541342   -0.698272
     74          1           0       -0.061180    6.589787   -1.683831
     75          1           0        1.516214    6.985098   -1.268907
     76          1           0        0.270913    7.217632    0.033520
     77          1           0        3.684829    6.381594    1.589688
     78          1           0        5.143635    5.969805    0.874772
     79          1           0        4.296152    4.519996    1.669355
     80          1           0       -3.517229   -4.509069   -1.934335
     81          1           0       -7.496374   -1.853339   -1.911912
 ---------------------------------------------------------------------

 SCF Done:  E(RB3LYP) =  -1949.11299152     A.U. after   23 cycles

 Excitation energies and oscillator strengths:

 Excited State   1:      Singlet-A      1.7102 eV  724.99 nm  f=0.3228  <S**2>=0.000
     156 ->157         0.70814
     156 <-157        -0.12668
 This state for optimization and/or second-order correction.
 Total Energy, E(TD-HF/TD-DFT) =  -1949.05014438
 Copying the excited state density for this state as the 1-particle RhoCI density.

 The electronic state is 1-A.
 Alpha  occ. eigenvalues --  -19.18184 -19.18041 -19.15078 -19.12668 -19.12457
 Alpha  occ. eigenvalues --  -19.07672 -14.38199 -14.37371 -14.35949 -14.27297
 Alpha  occ. eigenvalues --  -10.33874 -10.32191 -10.29970 -10.25567 -10.24650
 Alpha  occ. eigenvalues --  -10.23949 -10.23890 -10.22834 -10.22324 -10.22175
 Alpha  occ. eigenvalues --  -10.21787 -10.21672 -10.21566 -10.21517 -10.21016
 Alpha  occ. eigenvalues --  -10.20726 -10.20708 -10.20554 -10.20332 -10.20053
 Alpha  occ. eigenvalues --  -10.19974 -10.19746 -10.19685 -10.19403 -10.19240
 Alpha  occ. eigenvalues --  -10.19040 -10.19018 -10.18912 -10.18783 -10.18513
 Alpha  occ. eigenvalues --  -10.18415 -10.17554 -10.17116  -1.12653  -1.09973
 Alpha  occ. eigenvalues --   -1.06621  -1.01474  -1.00503  -0.99787  -0.98608
 Alpha  occ. eigenvalues --   -0.97841  -0.95567  -0.90296  -0.83866  -0.82532
 Alpha  occ. eigenvalues --   -0.82110  -0.81701  -0.79204  -0.78568  -0.77813
 Alpha  occ. eigenvalues --   -0.77614  -0.76390  -0.74818  -0.73996  -0.71937
 Alpha  occ. eigenvalues --   -0.71819  -0.70024  -0.69556  -0.68584  -0.68017
 Alpha  occ. eigenvalues --   -0.67815  -0.66151  -0.64226  -0.61762  -0.61161
 Alpha  occ. eigenvalues --   -0.60573  -0.59468  -0.58523  -0.58246  -0.57788
 Alpha  occ. eigenvalues --   -0.57103  -0.55198  -0.54849  -0.54637  -0.52990
 Alpha  occ. eigenvalues --   -0.52629  -0.52210  -0.50847  -0.49933  -0.49840
 Alpha  occ. eigenvalues --   -0.49593  -0.49200  -0.49033  -0.48615  -0.48239
 Alpha  occ. eigenvalues --   -0.47206  -0.46977  -0.46289  -0.45867  -0.45392
 Alpha  occ. eigenvalues --   -0.45289  -0.44742  -0.44705  -0.44071  -0.43732
 Alpha  occ. eigenvalues --   -0.43531  -0.42943  -0.42886  -0.42449  -0.42312
 Alpha  occ. eigenvalues --   -0.42099  -0.41814  -0.41571  -0.41261  -0.41138
 Alpha  occ. eigenvalues --   -0.40676  -0.40517  -0.40346  -0.40020  -0.39751
 Alpha  occ. eigenvalues --   -0.39251  -0.38958  -0.38779  -0.38134  -0.38010
 Alpha  occ. eigenvalues --   -0.37867  -0.37650  -0.37453  -0.37138  -0.36745
 Alpha  occ. eigenvalues --   -0.36713  -0.35836  -0.35548  -0.35523  -0.35306
 Alpha  occ. eigenvalues --   -0.34695  -0.33858  -0.33608  -0.33233  -0.32954
 Alpha  occ. eigenvalues --   -0.32552  -0.31521  -0.31154  -0.30141  -0.29522
 Alpha  occ. eigenvalues --   -0.28234  -0.27480  -0.26666  -0.26086  -0.25810
 Alpha  occ. eigenvalues --   -0.25455  -0.24794  -0.23014  -0.21844  -0.20846
 Alpha  occ. eigenvalues --   -0.17454
 Alpha virt. eigenvalues --   -0.10615  -0.05645  -0.04434  -0.01795  -0.01146
 Alpha virt. eigenvalues --   -0.00872   0.01993   0.02347   0.03367   0.03599
 Alpha virt. eigenvalues --    0.04560   0.05313   0.05952   0.06150   0.06670

 Mulliken charges:
               1
     1  O   -0.156761
     2  O   -0.271652
     3  O   -0.082412
     4  O   -0.172225
     5  O   -0.251670
     6  O   -0.277971
     7  N   -0.136515
     8  N   -0.049670
     9  N   -0.145263
    10  N   -0.267089
    11  C   -0.136732
    12  C    0.003687
    13  C   -0.106691
    14  C    0.042174
    15  C   -0.025540
    16  C    0.061703
    17  C    0.114383
    18  C   -0.186183
    19  C    0.282700
    20  C   -0.046980
    21  C    0.098346
    22  C    0.019622
    23  C    0.002921
    24  C    0.044168
    25  C   -0.117139
    26  C   -0.040713
    27  C    0.082713
    28  C    0.021018
    29  C   -0.011651
    30  C    0.202219
    31  C   -0.143340
    32  C    0.058367
    33  C   -0.046314
    34  C    0.101680
    35  C   -0.126477
    36  C   -0.129694
    37  C    0.139965
    38  C   -0.004663
    39  C    0.123347
    40  C    0.045443
    41  C    0.121724
    42  C    0.153231
    43  C   -0.012988
    44  H    0.188363
    45  H   -0.152850
    46  H   -0.009716
    47  H   -0.050183
    48  H    0.045031
    49  H    0.040296
    50  H    0.017893
    51  H    0.059730
    52  H    0.167563
    53  H    0.042329
    54  H    0.054437
    55  H    0.036684
    56  H    0.164707
    57  H    0.009460
    58  H    0.062626
    59  H    0.018127
    60  H    0.056290
    61  H    0.008550
    62  H   -0.015420
    63  H    0.009780
    64  H   -0.001145
    65  H    0.049300
    66  H    0.027523
    67  H    0.010956
    68  H   -0.078519
    69  H    0.061763
    70  H   -0.006787
    71  H    0.035446
    72  H    0.005830
    73  H   -0.014012
    74  H    0.006226
    75  H   -0.022006
    76  H    0.038072
    77  H    0.015942
    78  H   -0.014678
    79  H    0.049139
    80  H    0.210653
    81  H    0.099518
 Sum of Mulliken charges =  -0.00000

 Dipole moment (field-independent basis, Debye):
    X=             -0.7553    Y=             -1.7289    Z=             -1.5244  Tot=              2.4256
 Quadrupole moment (field-independent basis, Debye-Ang):
   XX=           -253.3079   YY=           -243.5034   ZZ=           -248.8834
   XY=              7.4718   XZ=              9.0145   YZ=            -12.6150

 Normal termination of Gaussian 16 at Tue Jul  2 09:48:52 2019.
