 Gaussian 16, Revision A.03,
 Gaussian 16:  ES64L-G16RevA.03 25-Dec-2016

 --------------------------
 # td=(NStates=1) B3LYP/SVP
 --------------------------

 --
 TD
 --
 Symbolic Z-matrix:
 Charge =  0 Multiplicity = 1

                         Standard orientation:
 ---------------------------------------------------------------------
 Center     Atomic      Atomic             Coordinates (Angstroms)
 Number     Number       Type             X           Y           Z
 ---------------------------------------------------------------------
      1          8           0        4.274096   -4.959139   -1.747860
      2          8           0       -2.919361   -5.032735   -1.087740
      3          8           0       -6.914823   -1.623932   -1.689533
      4          8           0       -3.861013   -3.264049   -0.066315
      5          8           0       -7.578250   -0.592478    0.082870
      6          8           0        2.963228    2.368944    0.427144
      7          7           0        0.244720   -0.516866    0.623413
      8          7           0       -1.538889    1.949025    0.433961
      9          7           0        3.325540   -3.123393   -0.637803
     10          7           0        0.740338    2.916511    0.189933
     11          6           0       -0.633364   -2.373217    1.403957
     12          6           0       -0.978065   -1.122643    1.042409
     13          6           0        0.740038   -2.617013    1.250273
     14          6           0        1.288742   -1.419629    0.759949
     15          6           0       -3.783270    1.591241    0.198975
     16          6           0       -2.444194    0.900641    0.544508
     17          6           0       -2.238769   -0.407707    0.959592
     18          6           0       -3.531780    2.903949   -0.205032
     19          6           0       -1.681098   -3.312682    2.027009
     20          6           0        5.410582   -2.848118   -1.324519
     21          6           0        3.558633   -1.958295   -0.169966
     22          6           0       -2.129918    3.078502   -0.059480
     23          6           0        5.058812   -1.681235   -0.438560
     24          6           0       -5.004110    0.814190    0.329072
     25          6           0        2.572343   -0.982174    0.378436
     26          6           0        1.642285   -3.678232    1.719006
     27          6           0        4.289400   -3.881470   -1.286450
     28          6           0       -2.029669   -4.435643    1.124377
     29          6           0       -5.343974   -0.084716   -0.954031
     30          6           0       -4.610339    3.932292   -0.631460
     31          6           0       -1.278463    4.171427   -0.269365
     32          6           0        6.817384   -3.391333   -0.964742
     33          6           0        5.760222   -0.586339   -0.245271
     34          6           0        0.092900    4.101791   -0.152052
     35          6           0        1.087974    5.229247   -0.475843
     36          6           0        2.375635    4.643572   -0.234395
     37          6           0       -3.023443   -4.192155   -0.056626
     38          6           0        5.402016    0.644517    0.544857
     39          6           0       -6.701629   -0.731254   -0.790283
     40          6           0        3.770732    5.305029   -0.220893
     41          6           0        2.059162    3.181608    0.213110
     42          6           0        0.644110    6.571499   -1.004538
     43          6           0        4.328918    5.565673    1.178526
     44          1           0        0.455442    0.248277    0.013397
     45          1           0       -3.227003   -1.141135    1.138631
     46          1           0       -2.638640   -2.644071    2.416170
     47          1           0       -1.273591   -3.868998    2.914790
     48          1           0        5.516426   -2.494344   -2.267286
     49          1           0       -5.129973    0.122280    1.327950
     50          1           0       -5.802869    1.477117    0.470300
     51          1           0        2.846663   -0.064916    0.494684
     52          1           0       -0.479174    1.997588    0.523589
     53          1           0        1.568435   -4.723289    0.955394
     54          1           0        2.626886   -3.097899    1.927660
     55          1           0        1.406766   -4.029296    2.757596
     56          1           0        2.334094   -3.663499   -0.485585
     57          1           0       -1.109365   -4.855256    0.637301
     58          1           0       -2.398184   -5.408163    1.421921
     59          1           0       -4.608656   -0.931669   -0.989722
     60          1           0       -5.264368    0.435900   -1.943222
     61          1           0       -4.384223    4.861947   -0.318652
     62          1           0       -5.551167    3.527172   -0.310208
     63          1           0       -4.673978    4.054187   -1.782477
     64          1           0       -1.926984    5.152008   -0.555550
     65          1           0        7.595402   -2.648607   -1.115694
     66          1           0        7.056832   -4.288748   -1.535101
     67          1           0        6.931765   -3.672693    0.013492
     68          1           0        6.808719   -0.713452   -0.600173
     69          1           0        4.882049    1.354489   -0.085191
     70          1           0        6.174930    1.392759    0.794738
     71          1           0        4.648545    0.634576    1.475688
     72          1           0        3.639007    6.326059   -0.589543
     73          1           0        4.488169    4.563238   -0.744881
     74          1           0        0.373798    6.385701   -2.093427
     75          1           0        1.367521    7.281698   -1.084998
     76          1           0       -0.314730    7.093775   -0.415110
     77          1           0        3.622960    6.268207    1.669499
     78          1           0        5.406663    5.914554    0.962046
     79          1           0        4.480574    4.676289    1.581737
     80          1           0       -3.714688   -4.816189   -1.782305
     81          1           0       -7.773858   -2.043359   -1.555796
 ---------------------------------------------------------------------

 SCF Done:  E(RB3LYP) =  -1949.10109254     A.U. after   16 cycles

 Excitation energies and oscillator strengths:

 Excited State   1:      Singlet-A      1.7661 eV  702.02 nm  f=0.3397  <S**2>=0.000
     156 ->157         0.70909
     156 <-157        -0.10817
 This state for optimization and/or second-order correction.
 Total Energy, E(TD-HF/TD-DFT) =  -1949.03618933
 Copying the excited state density for this state as the 1-particle RhoCI density.

 The electronic state is 1-A.
 Alpha  occ. eigenvalues --  -19.20517 -19.18214 -19.13422 -19.13265 -19.11108
 Alpha  occ. eigenvalues --  -19.08827 -14.38951 -14.35910 -14.34668 -14.28691
 Alpha  occ. eigenvalues --  -10.33411 -10.31545 -10.30383 -10.25738 -10.25514
 Alpha  occ. eigenvalues --  -10.23614 -10.23511 -10.23074 -10.22774 -10.22709
 Alpha  occ. eigenvalues --  -10.22384 -10.22304 -10.22185 -10.22075 -10.21456
 Alpha  occ. eigenvalues --  -10.21144 -10.20671 -10.20604 -10.20563 -10.20260
 Alpha  occ. eigenvalues --  -10.20072 -10.19986 -10.19872 -10.19634 -10.19445
 Alpha  occ. eigenvalues --  -10.19394 -10.19351 -10.19206 -10.18815 -10.17831
 Alpha  occ. eigenvalues --  -10.17805 -10.17780 -10.16996  -1.11630  -1.09735
 Alpha  occ. eigenvalues --   -1.07266  -0.99775  -0.99388  -0.99249  -0.97960
 Alpha  occ. eigenvalues --   -0.97236  -0.96535  -0.90226  -0.82472  -0.82070
 Alpha  occ. eigenvalues --   -0.81531  -0.80702  -0.78783  -0.78376  -0.77958
 Alpha  occ. eigenvalues --   -0.76875  -0.76333  -0.75089  -0.73693  -0.72327
 Alpha  occ. eigenvalues --   -0.71487  -0.69208  -0.69074  -0.68450  -0.67862
 Alpha  occ. eigenvalues --   -0.67751  -0.66084  -0.64878  -0.63264  -0.61476
 Alpha  occ. eigenvalues --   -0.60331  -0.59859  -0.59092  -0.58246  -0.56295
 Alpha  occ. eigenvalues --   -0.55313  -0.54685  -0.54489  -0.53365  -0.52799
 Alpha  occ. eigenvalues --   -0.52169  -0.50850  -0.50285  -0.49714  -0.49214
 Alpha  occ. eigenvalues --   -0.49024  -0.48637  -0.48566  -0.48200  -0.47617
 Alpha  occ. eigenvalues --   -0.47437  -0.46470  -0.46289  -0.45579  -0.45432
 Alpha  occ. eigenvalues --   -0.45296  -0.44894  -0.44319  -0.43950  -0.43492
 Alpha  occ. eigenvalues --   -0.43239  -0.42988  -0.42625  -0.42465  -0.42164
 Alpha  occ. eigenvalues --   -0.41861  -0.41794  -0.41325  -0.40840  -0.40320
 Alpha  occ. eigenvalues --   -0.40157  -0.39656  -0.39526  -0.39372  -0.39294
 Alpha  occ. eigenvalues --   -0.39021  -0.38774  -0.38440  -0.38277  -0.38127
 Alpha  occ. eigenvalues --   -0.38026  -0.37695  -0.37546  -0.37159  -0.36724
 Alpha  occ. eigenvalues --   -0.36469  -0.36234  -0.35758  -0.35584  -0.34797
 Alpha  occ. eigenvalues --   -0.34472  -0.34185  -0.33619  -0.32679  -0.32477
 Alpha  occ. eigenvalues --   -0.32367  -0.32174  -0.30957  -0.29624  -0.28451
 Alpha  occ. eigenvalues --   -0.27979  -0.27402  -0.27043  -0.26424  -0.25648
 Alpha  occ. eigenvalues --   -0.24897  -0.24570  -0.23249  -0.22381  -0.21313
 Alpha  occ. eigenvalues --   -0.17491
 Alpha virt. eigenvalues --   -0.10295  -0.05381  -0.04135  -0.00963   0.00139
 Alpha virt. eigenvalues --    0.00635   0.00859   0.01230   0.02265   0.03585
 Alpha virt. eigenvalues --    0.04633   0.04839   0.04974   0.05551   0.05799

 Mulliken charges:
               1
     1  O   -0.138909
     2  O   -0.217063
     3  O   -0.119054
     4  O   -0.273216
     5  O   -0.282231
     6  O   -0.244154
     7  N   -0.123299
     8  N   -0.101264
     9  N   -0.094457
    10  N   -0.291015
    11  C   -0.078238
    12  C    0.069633
    13  C   -0.154623
    14  C    0.090371
    15  C   -0.064615
    16  C    0.085474
    17  C   -0.091674
    18  C   -0.134647
    19  C    0.109158
    20  C   -0.077927
    21  C    0.002043
    22  C    0.051567
    23  C    0.009068
    24  C    0.036466
    25  C    0.031494
    26  C   -0.032936
    27  C    0.154429
    28  C    0.015448
    29  C   -0.021744
    30  C    0.167699
    31  C   -0.153924
    32  C    0.082207
    33  C   -0.136050
    34  C    0.115936
    35  C   -0.086124
    36  C   -0.199158
    37  C    0.123246
    38  C    0.043627
    39  C    0.116072
    40  C    0.042008
    41  C    0.156340
    42  C    0.087629
    43  C    0.052794
    44  H    0.134402
    45  H    0.078858
    46  H    0.051996
    47  H    0.010441
    48  H    0.014476
    49  H    0.052596
    50  H   -0.010674
    51  H   -0.119663
    52  H    0.145333
    53  H    0.045736
    54  H    0.062984
    55  H    0.023199
    56  H    0.180024
    57  H    0.021441
    58  H    0.025571
    59  H    0.063171
    60  H    0.045971
    61  H   -0.008943
    62  H    0.011847
    63  H    0.026224
    64  H    0.004435
    65  H    0.007884
    66  H    0.015273
    67  H   -0.017673
    68  H   -0.004076
    69  H    0.035931
    70  H   -0.008961
    71  H    0.065668
    72  H   -0.005630
    73  H    0.026937
    74  H    0.034354
    75  H   -0.019747
    76  H    0.046600
    77  H    0.025898
    78  H    0.010588
    79  H   -0.015638
    80  H    0.239864
    81  H    0.176920
 Sum of Mulliken charges =  -0.00000

 Dipole moment (field-independent basis, Debye):
    X=             -1.7011    Y=             -0.8530    Z=             -2.1357  Tot=              2.8605
 Quadrupole moment (field-independent basis, Debye-Ang):
   XX=           -253.7677   YY=           -232.8588   ZZ=           -253.0584
   XY=             12.8365   XZ=             14.9553   YZ=            -11.5078

 Normal termination of Gaussian 16 at Tue Jul  2 23:27:12 2019.
