 Gaussian 16, Revision A.03,
 Gaussian 16:  ES64L-G16RevA.03 25-Dec-2016

 --------------------------
 # td=(NStates=1) B3LYP/SVP
 --------------------------

 --
 TD
 --
 Symbolic Z-matrix:
 Charge =  0 Multiplicity = 1

                         Standard orientation:
 ---------------------------------------------------------------------
 Center     Atomic      Atomic             Coordinates (Angstroms)
 Number     Number       Type             X           Y           Z
 ---------------------------------------------------------------------
      1          8           0        4.355494   -4.829353   -1.974938
      2          8           0       -3.080655   -4.794951   -1.111052
      3          8           0       -7.117184   -1.597953   -1.710008
      4          8           0       -4.033044   -3.124135    0.236539
      5          8           0       -7.660735   -0.371299    0.029900
      6          8           0        3.080271    2.200432    0.275694
      7          7           0        0.292008   -0.473867    0.447168
      8          7           0       -1.518505    1.879082    0.273083
      9          7           0        3.331981   -3.122848   -0.773035
     10          7           0        0.895432    2.955189    0.159255
     11          6           0       -0.718765   -2.398964    1.359277
     12          6           0       -0.966242   -1.000621    0.893311
     13          6           0        0.684947   -2.522376    1.180151
     14          6           0        1.291344   -1.343566    0.638585
     15          6           0       -3.768724    1.614189    0.239460
     16          6           0       -2.486782    0.915491    0.442419
     17          6           0       -2.203420   -0.370124    0.812620
     18          6           0       -3.510276    2.925740   -0.088635
     19          6           0       -1.644930   -3.295830    2.003242
     20          6           0        5.456476   -2.784795   -1.299938
     21          6           0        3.619569   -1.941081   -0.145326
     22          6           0       -2.115777    3.042571   -0.098134
     23          6           0        4.963717   -1.630698   -0.434409
     24          6           0       -5.088264    0.976181    0.307061
     25          6           0        2.637974   -1.105237    0.369281
     26          6           0        1.358276   -3.718270    1.760949
     27          6           0        4.296473   -3.754007   -1.336322
     28          6           0       -2.184336   -4.448761    1.057498
     29          6           0       -5.471914   -0.141258   -0.882365
     30          6           0       -4.477840    4.015012   -0.453542
     31          6           0       -1.238379    4.139466   -0.376394
     32          6           0        6.799275   -3.411504   -0.882823
     33          6           0        5.815340   -0.621522   -0.003074
     34          6           0        0.192073    4.048100   -0.178825
     35          6           0        1.175076    5.086895   -0.498446
     36          6           0        2.393662    4.535060   -0.283758
     37          6           0       -3.281028   -4.032322    0.080758
     38          6           0        5.573509    0.499851    0.902366
     39          6           0       -6.817134   -0.722922   -0.738006
     40          6           0        3.829919    5.055503   -0.253409
     41          6           0        2.143379    3.103602    0.198689
     42          6           0        0.771154    6.540146   -0.875490
     43          6           0        4.453616    5.161363    1.122176
     44          1           0        0.369207    0.411968   -0.002343
     45          1           0       -3.182722   -0.852823    1.143324
     46          1           0       -2.571314   -2.598630    2.336268
     47          1           0       -0.963416   -3.917583    2.736172
     48          1           0        5.385372   -2.322546   -2.286398
     49          1           0       -5.297215    0.427483    1.133376
     50          1           0       -5.794244    1.851075    0.190338
     51          1           0        2.836430   -0.035072    0.478232
     52          1           0       -0.521482    1.684391    0.072733
     53          1           0        1.611072   -4.742293    1.011535
     54          1           0        2.498638   -3.571037    1.934687
     55          1           0        1.180271   -3.907882    2.663081
     56          1           0        2.414514   -3.601172   -0.666817
     57          1           0       -1.319696   -4.862931    0.657978
     58          1           0       -2.486104   -5.281754    1.771640
     59          1           0       -4.648752   -1.029705   -0.656132
     60          1           0       -5.332313    0.369877   -1.835228
     61          1           0       -4.214483    4.844587    0.148993
     62          1           0       -5.556872    3.613189   -0.318060
     63          1           0       -4.271029    4.269081   -1.457173
     64          1           0       -1.455559    5.166518   -0.634073
     65          1           0        7.431777   -2.682331   -1.044966
     66          1           0        6.989673   -4.340571   -1.385659
     67          1           0        6.734753   -3.663743    0.196192
     68          1           0        6.833444   -0.615633   -0.494931
     69          1           0        4.970817    1.346737    0.343329
     70          1           0        6.539047    0.843931    1.315489
     71          1           0        4.926979    0.127851    1.646238
     72          1           0        3.881041    6.023855   -0.674821
     73          1           0        4.555665    4.570373   -1.209953
     74          1           0        0.276140    6.728286   -1.624016
     75          1           0        1.752083    7.126690   -0.789765
     76          1           0        0.211547    7.014861   -0.022633
     77          1           0        3.941275    5.817168    1.854651
     78          1           0        5.502538    5.380003    1.074757
     79          1           0        4.297550    4.165550    1.648939
     80          1           0       -3.814103   -4.761992   -1.718310
     81          1           0       -7.961924   -2.012464   -1.484740
 ---------------------------------------------------------------------

 SCF Done:  E(RB3LYP) =  -1949.08009485     A.U. after   23 cycles

 Excitation energies and oscillator strengths:

 Excited State   1:      Singlet-A      1.7434 eV  711.18 nm  f=0.3305  <S**2>=0.000
     156 ->157         0.70547
     156 <-157        -0.12560
 This state for optimization and/or second-order correction.
 Total Energy, E(TD-HF/TD-DFT) =  -1949.01602751
 Copying the excited state density for this state as the 1-particle RhoCI density.

 The electronic state is 1-A.
 Alpha  occ. eigenvalues --  -19.18956 -19.17944 -19.16726 -19.12499 -19.09682
 Alpha  occ. eigenvalues --  -19.08365 -14.39135 -14.38555 -14.36461 -14.27380
 Alpha  occ. eigenvalues --  -10.35173 -10.31904 -10.27903 -10.25246 -10.24813
 Alpha  occ. eigenvalues --  -10.24693 -10.24455 -10.24370 -10.23302 -10.23112
 Alpha  occ. eigenvalues --  -10.22555 -10.22313 -10.22226 -10.22101 -10.21512
 Alpha  occ. eigenvalues --  -10.20973 -10.20908 -10.20724 -10.20483 -10.20330
 Alpha  occ. eigenvalues --  -10.20166 -10.20144 -10.19687 -10.19579 -10.19204
 Alpha  occ. eigenvalues --  -10.19165 -10.18974 -10.18940 -10.18154 -10.18070
 Alpha  occ. eigenvalues --  -10.17245 -10.17201 -10.17089  -1.10635  -1.10437
 Alpha  occ. eigenvalues --   -1.03664  -1.03209  -1.00955  -0.99656  -0.98652
 Alpha  occ. eigenvalues --   -0.97730  -0.96451  -0.91378  -0.83758  -0.82856
 Alpha  occ. eigenvalues --   -0.82410  -0.82132  -0.79937  -0.78309  -0.78146
 Alpha  occ. eigenvalues --   -0.77384  -0.76695  -0.75413  -0.74439  -0.72897
 Alpha  occ. eigenvalues --   -0.72465  -0.71524  -0.70059  -0.69563  -0.68944
 Alpha  occ. eigenvalues --   -0.68522  -0.66761  -0.64707  -0.63686  -0.62223
 Alpha  occ. eigenvalues --   -0.60984  -0.60076  -0.59585  -0.59198  -0.58891
 Alpha  occ. eigenvalues --   -0.57097  -0.55675  -0.55106  -0.54550  -0.53799
 Alpha  occ. eigenvalues --   -0.53626  -0.52947  -0.51645  -0.51388  -0.50340
 Alpha  occ. eigenvalues --   -0.49562  -0.49390  -0.48892  -0.48561  -0.48087
 Alpha  occ. eigenvalues --   -0.47703  -0.47160  -0.46678  -0.46249  -0.45911
 Alpha  occ. eigenvalues --   -0.45551  -0.45209  -0.44811  -0.44401  -0.44320
 Alpha  occ. eigenvalues --   -0.43479  -0.43241  -0.42695  -0.42436  -0.42353
 Alpha  occ. eigenvalues --   -0.42104  -0.41928  -0.41764  -0.41415  -0.41256
 Alpha  occ. eigenvalues --   -0.40596  -0.40514  -0.40023  -0.39997  -0.39763
 Alpha  occ. eigenvalues --   -0.39617  -0.38871  -0.38660  -0.38425  -0.37871
 Alpha  occ. eigenvalues --   -0.37793  -0.37738  -0.37453  -0.37219  -0.37030
 Alpha  occ. eigenvalues --   -0.36889  -0.36385  -0.36201  -0.35504  -0.34889
 Alpha  occ. eigenvalues --   -0.34537  -0.34395  -0.34022  -0.33530  -0.32739
 Alpha  occ. eigenvalues --   -0.32608  -0.32328  -0.31537  -0.30225  -0.29729
 Alpha  occ. eigenvalues --   -0.28172  -0.26426  -0.26174  -0.25807  -0.25233
 Alpha  occ. eigenvalues --   -0.24890  -0.24581  -0.23197  -0.22336  -0.21718
 Alpha  occ. eigenvalues --   -0.18041
 Alpha virt. eigenvalues --   -0.11106  -0.06612  -0.04694  -0.03374  -0.00005
 Alpha virt. eigenvalues --    0.00663   0.01075   0.02138   0.03714   0.04363
 Alpha virt. eigenvalues --    0.04590   0.05010   0.05230   0.05720   0.06380

 Mulliken charges:
               1
     1  O   -0.265376
     2  O   -0.238346
     3  O   -0.181562
     4  O   -0.174485
     5  O   -0.214807
     6  O   -0.326201
     7  N   -0.049118
     8  N   -0.067062
     9  N   -0.004302
    10  N   -0.179757
    11  C   -0.049194
    12  C    0.091537
    13  C   -0.148214
    14  C    0.104577
    15  C   -0.065999
    16  C   -0.001691
    17  C   -0.061997
    18  C   -0.153288
    19  C    0.011903
    20  C   -0.070706
    21  C    0.108879
    22  C    0.131354
    23  C   -0.052495
    24  C    0.108876
    25  C   -0.126546
    26  C    0.035788
    27  C    0.056381
    28  C    0.035458
    29  C   -0.091634
    30  C    0.166202
    31  C   -0.096002
    32  C    0.164417
    33  C   -0.177208
    34  C    0.008717
    35  C   -0.107897
    36  C   -0.181383
    37  C    0.192669
    38  C    0.085586
    39  C    0.137245
    40  C    0.057380
    41  C    0.112670
    42  C    0.184277
    43  C    0.010821
    44  H    0.109957
    45  H    0.024928
    46  H    0.055460
    47  H    0.028128
    48  H    0.037427
    49  H   -0.009057
    50  H    0.010506
    51  H    0.017804
    52  H    0.130503
    53  H    0.040130
    54  H    0.011187
    55  H   -0.032709
    56  H    0.134931
    57  H    0.007359
    58  H    0.050217
    59  H    0.089991
    60  H    0.046536
    61  H    0.016649
    62  H    0.033815
    63  H    0.014638
    64  H   -0.041498
    65  H   -0.029797
    66  H    0.027291
    67  H    0.004844
    68  H    0.008203
    69  H    0.116172
    70  H    0.012453
    71  H    0.007780
    72  H   -0.037131
    73  H    0.022993
    74  H   -0.050068
    75  H    0.015727
    76  H    0.009795
    77  H    0.006996
    78  H    0.008284
    79  H    0.026040
    80  H    0.177682
    81  H    0.176370
 Sum of Mulliken charges =  -0.00000

 Dipole moment (field-independent basis, Debye):
    X=             -3.9174    Y=             -0.7007    Z=              0.4746  Tot=              4.0077
 Quadrupole moment (field-independent basis, Debye-Ang):
   XX=           -254.9720   YY=           -243.0908   ZZ=           -256.1708
   XY=             20.0777   XZ=             17.6554   YZ=            -17.8625

 Normal termination of Gaussian 16 at Tue Jul  2 06:43:21 2019.
