 Gaussian 16, Revision A.03,
 Gaussian 16:  ES64L-G16RevA.03 25-Dec-2016

 --------------------------
 # td=(NStates=1) B3LYP/SVP
 --------------------------

 --
 TD
 --
 Symbolic Z-matrix:
 Charge =  0 Multiplicity = 1

                         Standard orientation:
 ---------------------------------------------------------------------
 Center     Atomic      Atomic             Coordinates (Angstroms)
 Number     Number       Type             X           Y           Z
 ---------------------------------------------------------------------
      1          8           0        4.249390   -4.856738   -1.762200
      2          8           0       -3.041170   -4.980529   -0.950814
      3          8           0       -6.931423   -1.680416   -1.828734
      4          8           0       -3.826890   -3.243613    0.183821
      5          8           0       -7.473745   -0.581025    0.053411
      6          8           0        2.956245    2.421087    0.324649
      7          7           0        0.323195   -0.508155    0.534467
      8          7           0       -1.548712    1.903500    0.347643
      9          7           0        3.292620   -3.102352   -0.625934
     10          7           0        0.762735    2.913377    0.064264
     11          6           0       -0.628225   -2.272771    1.453453
     12          6           0       -0.874457   -1.059863    0.963783
     13          6           0        0.864267   -2.564090    1.229636
     14          6           0        1.359829   -1.423800    0.676223
     15          6           0       -3.798753    1.510348    0.206434
     16          6           0       -2.502858    0.904613    0.474147
     17          6           0       -2.104987   -0.444183    0.815045
     18          6           0       -3.552102    2.834212   -0.151711
     19          6           0       -1.525514   -3.306457    2.049367
     20          6           0        5.513610   -2.862050   -1.382860
     21          6           0        3.622150   -1.813824   -0.321219
     22          6           0       -2.136803    3.043263   -0.147648
     23          6           0        5.073242   -1.649888   -0.639982
     24          6           0       -5.190590    0.885263    0.219362
     25          6           0        2.687719   -1.074716    0.341160
     26          6           0        1.547211   -3.783734    1.666802
     27          6           0        4.395734   -3.816050   -1.235607
     28          6           0       -2.154317   -4.503585    1.209895
     29          6           0       -5.402345   -0.253198   -0.853885
     30          6           0       -4.514827    3.958100   -0.390543
     31          6           0       -1.286609    4.094586   -0.510275
     32          6           0        6.839467   -3.461568   -0.851167
     33          6           0        5.807080   -0.524117   -0.253133
     34          6           0        0.129879    4.088389   -0.306193
     35          6           0        1.039717    5.150576   -0.468216
     36          6           0        2.375738    4.705417   -0.258059
     37          6           0       -3.124407   -4.174327    0.065895
     38          6           0        5.448962    0.547073    0.645524
     39          6           0       -6.706147   -0.749905   -0.863410
     40          6           0        3.667176    5.306353   -0.205864
     41          6           0        2.078314    3.298824    0.107258
     42          6           0        0.550237    6.603569   -0.683920
     43          6           0        4.152247    5.583500    1.253335
     44          1           0        0.449632    0.332746    0.071768
     45          1           0       -2.924402   -1.126749    0.846463
     46          1           0       -2.298853   -2.789296    2.289538
     47          1           0       -1.010318   -3.768191    2.836521
     48          1           0        5.378846   -2.734677   -2.681074
     49          1           0       -5.314813    0.344173    1.272253
     50          1           0       -5.993881    1.516930   -0.079614
     51          1           0        2.877028    0.019031    0.360735
     52          1           0       -0.636376    1.929163    0.279177
     53          1           0        1.466469   -4.619253    1.034837
     54          1           0        2.592175   -3.466642    1.926416
     55          1           0        1.091854   -3.976336    2.685094
     56          1           0        2.386909   -3.578160   -0.645418
     57          1           0       -1.428766   -5.040070    0.690398
     58          1           0       -2.823933   -5.207893    1.849451
     59          1           0       -4.724135   -1.065575   -0.902006
     60          1           0       -5.261396    0.326741   -1.870164
     61          1           0       -4.453781    4.729324    0.483280
     62          1           0       -5.655987    3.754173   -0.515799
     63          1           0       -4.164705    4.366300   -1.422751
     64          1           0       -1.709405    5.086343   -0.663148
     65          1           0        7.820527   -2.783146   -1.113892
     66          1           0        6.936929   -4.589375   -1.102015
     67          1           0        6.594073   -3.467939    0.294943
     68          1           0        6.756406   -0.481109   -0.491721
     69          1           0        5.024982    1.439917    0.150029
     70          1           0        6.296008    0.971691    1.313015
     71          1           0        4.793365    0.034337    1.458349
     72          1           0        3.390003    6.144318   -0.789206
     73          1           0        4.345674    4.714850   -0.754111
     74          1           0        0.178456    6.831297   -1.598419
     75          1           0        1.284873    7.360507   -0.843901
     76          1           0        0.009602    7.130255    0.214119
     77          1           0        3.569656    6.213482    1.840831
     78          1           0        5.128196    6.007237    1.143215
     79          1           0        4.413216    4.777844    1.843720
     80          1           0       -3.815921   -4.876958   -1.428454
     81          1           0       -7.734147   -2.189769   -1.508369
 ---------------------------------------------------------------------

 SCF Done:  E(RB3LYP) =  -1949.09144045     A.U. after   24 cycles

 Excitation energies and oscillator strengths:

 Excited State   1:      Singlet-A      1.7184 eV  721.51 nm  f=0.2846  <S**2>=0.000
     156 ->157         0.70307
     156 <-157        -0.11871
 This state for optimization and/or second-order correction.
 Total Energy, E(TD-HF/TD-DFT) =  -1949.02829069
 Copying the excited state density for this state as the 1-particle RhoCI density.

 The electronic state is 1-A.
 Alpha  occ. eigenvalues --  -19.20420 -19.17923 -19.13736 -19.12113 -19.11425
 Alpha  occ. eigenvalues --  -19.08655 -14.35608 -14.35410 -14.34536 -14.27640
 Alpha  occ. eigenvalues --  -10.32754 -10.31014 -10.28785 -10.24677 -10.24178
 Alpha  occ. eigenvalues --  -10.23571 -10.23439 -10.22439 -10.21980 -10.21972
 Alpha  occ. eigenvalues --  -10.21971 -10.21758 -10.21454 -10.21176 -10.21152
 Alpha  occ. eigenvalues --  -10.21074 -10.21069 -10.20573 -10.20277 -10.20248
 Alpha  occ. eigenvalues --  -10.20124 -10.19179 -10.19164 -10.19089 -10.19043
 Alpha  occ. eigenvalues --  -10.19018 -10.18772 -10.18574 -10.18354 -10.18291
 Alpha  occ. eigenvalues --  -10.17818 -10.17027 -10.16892  -1.14498  -1.09323
 Alpha  occ. eigenvalues --   -1.05643  -1.04788  -1.00169  -0.98880  -0.98225
 Alpha  occ. eigenvalues --   -0.97103  -0.94927  -0.90384  -0.82338  -0.81893
 Alpha  occ. eigenvalues --   -0.81760  -0.80759  -0.80334  -0.78963  -0.78159
 Alpha  occ. eigenvalues --   -0.77309  -0.76735  -0.75446  -0.74136  -0.72587
 Alpha  occ. eigenvalues --   -0.71324  -0.70080  -0.69642  -0.69288  -0.68626
 Alpha  occ. eigenvalues --   -0.67393  -0.65942  -0.64475  -0.63865  -0.63068
 Alpha  occ. eigenvalues --   -0.61501  -0.59433  -0.58587  -0.56611  -0.56179
 Alpha  occ. eigenvalues --   -0.55475  -0.55179  -0.54851  -0.54465  -0.53456
 Alpha  occ. eigenvalues --   -0.52508  -0.51662  -0.51112  -0.51040  -0.50459
 Alpha  occ. eigenvalues --   -0.49753  -0.49479  -0.49178  -0.48198  -0.47605
 Alpha  occ. eigenvalues --   -0.47351  -0.47141  -0.46439  -0.45358  -0.45251
 Alpha  occ. eigenvalues --   -0.44630  -0.44448  -0.44309  -0.43893  -0.43628
 Alpha  occ. eigenvalues --   -0.43460  -0.43123  -0.42933  -0.42557  -0.42199
 Alpha  occ. eigenvalues --   -0.41922  -0.41156  -0.40987  -0.40868  -0.40825
 Alpha  occ. eigenvalues --   -0.40435  -0.40246  -0.40028  -0.39938  -0.39782
 Alpha  occ. eigenvalues --   -0.39564  -0.39152  -0.38805  -0.38390  -0.38214
 Alpha  occ. eigenvalues --   -0.37802  -0.37691  -0.37570  -0.37147  -0.36928
 Alpha  occ. eigenvalues --   -0.36770  -0.36220  -0.35749  -0.35336  -0.34902
 Alpha  occ. eigenvalues --   -0.34576  -0.34407  -0.33887  -0.33628  -0.32917
 Alpha  occ. eigenvalues --   -0.32197  -0.31976  -0.31296  -0.29369  -0.28805
 Alpha  occ. eigenvalues --   -0.27874  -0.27221  -0.26785  -0.25650  -0.25241
 Alpha  occ. eigenvalues --   -0.24784  -0.23467  -0.22975  -0.22327  -0.20724
 Alpha  occ. eigenvalues --   -0.17557
 Alpha virt. eigenvalues --   -0.10655  -0.06191  -0.04053  -0.01311  -0.00313
 Alpha virt. eigenvalues --    0.00415   0.02492   0.03707   0.04339   0.04541
 Alpha virt. eigenvalues --    0.04860   0.05054   0.05731   0.06142   0.06388

 Mulliken charges:
               1
     1  O   -0.166646
     2  O   -0.088685
     3  O   -0.216328
     4  O   -0.192551
     5  O   -0.235850
     6  O   -0.247703
     7  N   -0.052390
     8  N    0.021347
     9  N   -0.159308
    10  N   -0.287463
    11  C   -0.155559
    12  C    0.139441
    13  C   -0.216574
    14  C    0.102283
    15  C   -0.049625
    16  C    0.058598
    17  C   -0.077200
    18  C   -0.102602
    19  C    0.267999
    20  C   -0.054522
    21  C    0.111280
    22  C    0.056616
    23  C   -0.032429
    24  C    0.115981
    25  C   -0.171068
    26  C    0.110853
    27  C    0.084846
    28  C    0.010232
    29  C   -0.021380
    30  C    0.000828
    31  C   -0.080521
    32  C   -0.036499
    33  C   -0.056406
    34  C    0.062661
    35  C   -0.102983
    36  C   -0.163333
    37  C    0.051171
    38  C    0.032584
    39  C    0.130181
    40  C    0.151363
    41  C    0.120756
    42  C    0.110274
    43  C    0.082548
    44  H    0.101091
    45  H   -0.015816
    46  H   -0.056305
    47  H   -0.014623
    48  H    0.083502
    49  H    0.048105
    50  H   -0.001418
    51  H    0.031469
    52  H    0.019662
    53  H    0.023683
    54  H    0.029901
    55  H    0.016000
    56  H    0.136894
    57  H   -0.004380
    58  H    0.052296
    59  H    0.041743
    60  H    0.038228
    61  H    0.055845
    62  H    0.032267
    63  H    0.043800
    64  H   -0.024889
    65  H    0.062472
    66  H    0.054593
    67  H    0.034216
    68  H   -0.072799
    69  H    0.072901
    70  H    0.007365
    71  H    0.041895
    72  H   -0.017835
    73  H   -0.003084
    74  H   -0.014375
    75  H   -0.033179
    76  H    0.043682
    77  H   -0.000795
    78  H   -0.011649
    79  H    0.001692
    80  H    0.150997
    81  H    0.192631
 Sum of Mulliken charges =  -0.00000

 Dipole moment (field-independent basis, Debye):
    X=             -1.7112    Y=             -0.0168    Z=             -0.8499  Tot=              1.9107
 Quadrupole moment (field-independent basis, Debye-Ang):
   XX=           -243.1644   YY=           -227.6009   ZZ=           -254.6604
   XY=             20.4694   XZ=             13.1686   YZ=            -10.2359

 Normal termination of Gaussian 16 at Sat Jun 29 17:58:55 2019.
