 Gaussian 16, Revision A.03,
 Gaussian 16:  ES64L-G16RevA.03 25-Dec-2016

 --------------------------
 # td=(NStates=1) B3LYP/SVP
 --------------------------

 --
 TD
 --
 Symbolic Z-matrix:
 Charge =  0 Multiplicity = 1

                         Standard orientation:
 ---------------------------------------------------------------------
 Center     Atomic      Atomic             Coordinates (Angstroms)
 Number     Number       Type             X           Y           Z
 ---------------------------------------------------------------------
      1          8           0        4.124992   -5.066025   -1.763964
      2          8           0       -2.992366   -4.836313   -0.946079
      3          8           0       -6.889586   -1.692911   -1.769454
      4          8           0       -3.789913   -3.130019    0.130552
      5          8           0       -7.570277   -0.425203    0.068454
      6          8           0        3.064349    2.384691    0.498296
      7          7           0        0.216979   -0.600483    0.508347
      8          7           0       -1.501157    1.851835    0.249428
      9          7           0        3.296225   -3.255625   -0.630695
     10          7           0        0.817236    2.924844   -0.062625
     11          6           0       -0.707619   -2.327177    1.561864
     12          6           0       -0.928297   -1.023418    0.987522
     13          6           0        0.631993   -2.620971    1.353121
     14          6           0        1.271348   -1.443464    0.748221
     15          6           0       -3.803039    1.559865    0.126928
     16          6           0       -2.491904    0.943982    0.474429
     17          6           0       -2.276631   -0.357976    0.840165
     18          6           0       -3.547462    2.827597   -0.361784
     19          6           0       -1.659732   -3.307789    2.140103
     20          6           0        5.373162   -2.816779   -1.511809
     21          6           0        3.603000   -1.936823   -0.239919
     22          6           0       -2.028644    3.039415   -0.297586
     23          6           0        4.988077   -1.602166   -0.593753
     24          6           0       -5.165005    0.946659    0.302376
     25          6           0        2.538932   -1.073745    0.359191
     26          6           0        1.375136   -3.862459    1.738216
     27          6           0        4.252275   -3.902261   -1.384860
     28          6           0       -2.044906   -4.534319    1.152331
     29          6           0       -5.371134   -0.059861   -0.818774
     30          6           0       -4.477112    3.982207   -0.689599
     31          6           0       -1.254050    4.204910   -0.365955
     32          6           0        6.758158   -3.450850   -1.129216
     33          6           0        5.797602   -0.631769   -0.217118
     34          6           0        0.150900    4.082974   -0.313070
     35          6           0        1.159078    5.298141   -0.494235
     36          6           0        2.408309    4.699846   -0.160274
     37          6           0       -3.007540   -4.056218    0.139940
     38          6           0        5.407068    0.519333    0.690857
     39          6           0       -6.754424   -0.749552   -0.860800
     40          6           0        3.758207    5.309251   -0.039360
     41          6           0        2.222942    3.198813    0.091511
     42          6           0        0.800802    6.739915   -0.626265
     43          6           0        4.416700    5.262507    1.357567
     44          1           0        0.375474    0.281430   -0.215561
     45          1           0       -3.205995   -0.909051    0.925620
     46          1           0       -2.651193   -2.893978    2.501546
     47          1           0       -1.267810   -3.630930    3.210788
     48          1           0        5.612055   -2.511632   -2.652393
     49          1           0       -5.482881    0.490938    1.253438
     50          1           0       -5.751354    1.782773    0.035809
     51          1           0        2.879889   -0.061057    0.668615
     52          1           0       -0.408476    2.119220    0.347916
     53          1           0        1.439783   -4.845750    1.179246
     54          1           0        2.434071   -3.588253    1.916979
     55          1           0        0.943514   -4.231918    2.545232
     56          1           0        2.274681   -3.512767   -0.514313
     57          1           0       -1.182698   -5.272286    0.851163
     58          1           0       -2.472097   -5.036673    1.901379
     59          1           0       -4.548485   -0.804132   -0.949968
     60          1           0       -5.471198    0.531086   -1.848791
     61          1           0       -3.998693    4.779161   -0.277582
     62          1           0       -5.574496    3.761931   -0.478343
     63          1           0       -4.461472    4.166641   -1.803620
     64          1           0       -1.700205    5.153635   -0.803305
     65          1           0        7.559670   -2.770796   -1.373314
     66          1           0        6.841025   -4.464404   -1.564224
     67          1           0        6.800472   -3.692674   -0.061502
     68          1           0        6.777056   -0.684550   -0.759531
     69          1           0        4.934679    1.467427    0.083976
     70          1           0        6.289232    1.093311    1.151493
     71          1           0        4.736111    0.289544    1.411119
     72          1           0        3.838030    6.297344   -0.492543
     73          1           0        4.448819    4.672096   -0.762728
     74          1           0        0.251956    6.867624   -1.734870
     75          1           0        1.664885    7.458088   -0.435833
     76          1           0        0.194575    6.913548    0.387147
     77          1           0        3.844077    5.775834    2.191890
     78          1           0        5.436824    5.682392    1.337741
     79          1           0        4.425861    4.306535    1.836042
     80          1           0       -3.643686   -4.603172   -1.501688
     81          1           0       -7.941717   -1.841189   -1.460444
 ---------------------------------------------------------------------

 SCF Done:  E(RB3LYP) =  -1949.11027434     A.U. after   16 cycles

 Excitation energies and oscillator strengths:

 Excited State   1:      Singlet-A      1.5959 eV  776.90 nm  f=0.2432  <S**2>=0.000
     156 ->157         0.70833
     156 <-157        -0.10147
 This state for optimization and/or second-order correction.
 Total Energy, E(TD-HF/TD-DFT) =  -1949.05162704
 Copying the excited state density for this state as the 1-particle RhoCI density.

 The electronic state is 1-A.
 Alpha  occ. eigenvalues --  -19.21481 -19.17871 -19.13726 -19.12736 -19.11686
 Alpha  occ. eigenvalues --  -19.11088 -14.38167 -14.36988 -14.34909 -14.30624
 Alpha  occ. eigenvalues --  -10.33452 -10.32775 -10.29565 -10.28417 -10.24933
 Alpha  occ. eigenvalues --  -10.24577 -10.24495 -10.23086 -10.23019 -10.22831
 Alpha  occ. eigenvalues --  -10.22307 -10.22236 -10.21939 -10.21877 -10.21803
 Alpha  occ. eigenvalues --  -10.21287 -10.21031 -10.20868 -10.20731 -10.20228
 Alpha  occ. eigenvalues --  -10.20163 -10.20019 -10.20018 -10.19914 -10.19887
 Alpha  occ. eigenvalues --  -10.19754 -10.19173 -10.19018 -10.18899 -10.18377
 Alpha  occ. eigenvalues --  -10.18348 -10.18006 -10.17937  -1.12326  -1.10541
 Alpha  occ. eigenvalues --   -1.02492  -1.01601  -1.01329  -0.98789  -0.98553
 Alpha  occ. eigenvalues --   -0.96166  -0.94220  -0.90847  -0.82074  -0.81900
 Alpha  occ. eigenvalues --   -0.80930  -0.80438  -0.79312  -0.78451  -0.77746
 Alpha  occ. eigenvalues --   -0.76626  -0.75620  -0.74963  -0.73596  -0.71978
 Alpha  occ. eigenvalues --   -0.71087  -0.69535  -0.68608  -0.68426  -0.67372
 Alpha  occ. eigenvalues --   -0.66736  -0.64909  -0.64354  -0.62844  -0.62023
 Alpha  occ. eigenvalues --   -0.61439  -0.58980  -0.57313  -0.57219  -0.55696
 Alpha  occ. eigenvalues --   -0.55281  -0.54809  -0.54771  -0.52580  -0.52450
 Alpha  occ. eigenvalues --   -0.52436  -0.51976  -0.50794  -0.50702  -0.49604
 Alpha  occ. eigenvalues --   -0.48941  -0.48881  -0.48497  -0.48058  -0.47108
 Alpha  occ. eigenvalues --   -0.46751  -0.46280  -0.45567  -0.45309  -0.45014
 Alpha  occ. eigenvalues --   -0.44400  -0.44126  -0.43938  -0.43800  -0.43596
 Alpha  occ. eigenvalues --   -0.43434  -0.43127  -0.42813  -0.42434  -0.42145
 Alpha  occ. eigenvalues --   -0.41885  -0.41621  -0.41342  -0.40885  -0.40679
 Alpha  occ. eigenvalues --   -0.40291  -0.40109  -0.39803  -0.39752  -0.39326
 Alpha  occ. eigenvalues --   -0.39188  -0.39046  -0.38566  -0.38430  -0.38121
 Alpha  occ. eigenvalues --   -0.37935  -0.37616  -0.37521  -0.37249  -0.36912
 Alpha  occ. eigenvalues --   -0.36214  -0.35717  -0.35705  -0.34918  -0.34453
 Alpha  occ. eigenvalues --   -0.34388  -0.33920  -0.33789  -0.33278  -0.33181
 Alpha  occ. eigenvalues --   -0.32371  -0.32284  -0.31951  -0.29562  -0.29071
 Alpha  occ. eigenvalues --   -0.28495  -0.27745  -0.26428  -0.25775  -0.25255
 Alpha  occ. eigenvalues --   -0.25022  -0.24780  -0.24513  -0.23381  -0.21488
 Alpha  occ. eigenvalues --   -0.17114
 Alpha virt. eigenvalues --   -0.10383  -0.06015  -0.04334  -0.01545  -0.00591
 Alpha virt. eigenvalues --   -0.00415   0.01048   0.02117   0.03030   0.03409
 Alpha virt. eigenvalues --    0.03706   0.04531   0.05256   0.05568   0.05744

 Mulliken charges:
               1
     1  O   -0.220080
     2  O   -0.115035
     3  O   -0.190085
     4  O   -0.224240
     5  O   -0.310983
     6  O   -0.220507
     7  N   -0.065851
     8  N   -0.174152
     9  N   -0.134766
    10  N   -0.347681
    11  C   -0.058217
    12  C    0.040153
    13  C   -0.139925
    14  C    0.093821
    15  C   -0.129509
    16  C    0.081995
    17  C   -0.050207
    18  C   -0.139030
    19  C   -0.043009
    20  C   -0.184735
    21  C    0.009151
    22  C    0.057859
    23  C    0.055945
    24  C    0.231163
    25  C   -0.155291
    26  C    0.105723
    27  C    0.192351
    28  C    0.067576
    29  C   -0.089234
    30  C    0.129049
    31  C   -0.096636
    32  C    0.039927
    33  C   -0.124248
    34  C    0.053963
    35  C   -0.079728
    36  C   -0.176042
    37  C    0.132176
    38  C    0.041236
    39  C    0.178137
    40  C    0.056161
    41  C    0.222748
    42  C   -0.003060
    43  C   -0.000239
    44  H    0.200655
    45  H    0.000667
    46  H    0.019408
    47  H    0.032389
    48  H    0.064475
    49  H    0.040325
    50  H   -0.037455
    51  H    0.039548
    52  H    0.188895
    53  H    0.028522
    54  H    0.030890
    55  H   -0.049348
    56  H    0.158417
    57  H    0.061201
    58  H    0.007374
    59  H    0.063017
    60  H    0.035951
    61  H    0.007818
    62  H    0.036961
    63  H    0.019347
    64  H    0.007290
    65  H    0.018256
    66  H    0.032581
    67  H    0.005037
    68  H   -0.006686
    69  H    0.084353
    70  H    0.008991
    71  H    0.011330
    72  H   -0.008283
    73  H    0.024406
    74  H    0.069057
    75  H    0.035648
    76  H    0.061206
    77  H    0.001416
    78  H    0.015264
    79  H    0.018414
    80  H    0.132618
    81  H    0.223397
 Sum of Mulliken charges =  -0.00000

 Dipole moment (field-independent basis, Debye):
    X=             -2.5694    Y=              2.2189    Z=             -0.8885  Tot=              3.5093
 Quadrupole moment (field-independent basis, Debye-Ang):
   XX=           -250.4467   YY=           -238.4037   ZZ=           -253.4653
   XY=             20.7953   XZ=             13.6230   YZ=            -16.3439

 Normal termination of Gaussian 16 at Sat Jun 29 00:41:23 2019.
