 Gaussian 16, Revision A.03,
 Gaussian 16:  ES64L-G16RevA.03 25-Dec-2016

 --------------------------
 # td=(NStates=1) B3LYP/SVP
 --------------------------

 --
 TD
 --
 Symbolic Z-matrix:
 Charge =  0 Multiplicity = 1

                         Standard orientation:
 ---------------------------------------------------------------------
 Center     Atomic      Atomic             Coordinates (Angstroms)
 Number     Number       Type             X           Y           Z
 ---------------------------------------------------------------------
      1          8           0        4.127420   -4.851503   -1.836634
      2          8           0       -2.713349   -4.686202   -1.246559
      3          8           0       -6.900799   -1.519670   -1.957826
      4          8           0       -3.671962   -3.115791    0.072086
      5          8           0       -7.403228   -0.908155    0.181032
      6          8           0        2.979327    2.328382    0.406432
      7          7           0        0.214170   -0.458263    0.611846
      8          7           0       -1.575693    1.757365    0.267787
      9          7           0        3.328256   -3.090275   -0.680858
     10          7           0        0.713757    2.919230    0.091353
     11          6           0       -0.555352   -2.409475    1.487728
     12          6           0       -0.868965   -1.033696    1.002746
     13          6           0        0.875030   -2.551509    1.247650
     14          6           0        1.273242   -1.371345    0.646682
     15          6           0       -3.871176    1.369064    0.402433
     16          6           0       -2.494815    0.769510    0.572075
     17          6           0       -2.248578   -0.448179    0.942511
     18          6           0       -3.557125    2.732481    0.011436
     19          6           0       -1.505961   -3.483629    2.023960
     20          6           0        5.479660   -2.799752   -1.245415
     21          6           0        3.596746   -1.752400   -0.158336
     22          6           0       -2.157215    2.917158   -0.060262
     23          6           0        5.030176   -1.572909   -0.553587
     24          6           0       -5.174721    0.747713    0.337542
     25          6           0        2.625291   -0.937816    0.227790
     26          6           0        1.598366   -3.668335    1.751939
     27          6           0        4.225656   -3.727746   -1.303077
     28          6           0       -2.038597   -4.533299    1.042096
     29          6           0       -5.351488   -0.049679   -0.933977
     30          6           0       -4.625017    3.734525   -0.462484
     31          6           0       -1.364660    4.058047   -0.264092
     32          6           0        6.816383   -3.397610   -0.805706
     33          6           0        5.778993   -0.538735   -0.144283
     34          6           0        0.068906    4.088583   -0.267478
     35          6           0        0.980879    5.184141   -0.448999
     36          6           0        2.329162    4.621755   -0.323809
     37          6           0       -2.836538   -3.963695   -0.090596
     38          6           0        5.418714    0.651674    0.768248
     39          6           0       -6.670782   -0.967019   -0.746703
     40          6           0        3.647654    5.264888   -0.315469
     41          6           0        2.075757    3.181967    0.136547
     42          6           0        0.581186    6.587954   -0.856585
     43          6           0        4.108051    5.721991    1.078332
     44          1           0        0.421879    0.394704    0.216737
     45          1           0       -3.128391   -1.178938    1.140326
     46          1           0       -2.245046   -2.777216    2.504355
     47          1           0       -1.071064   -3.864313    2.689287
     48          1           0        5.724921   -2.370853   -2.388467
     49          1           0       -5.396247    0.046067    1.280822
     50          1           0       -6.078625    1.494388    0.287179
     51          1           0        2.713903    0.204826    0.385430
     52          1           0       -0.580415    1.824045    0.461144
     53          1           0        1.649609   -4.367550    1.069363
     54          1           0        2.580910   -3.415771    2.194411
     55          1           0        1.069342   -4.113377    2.754150
     56          1           0        2.348300   -3.439382   -0.603477
     57          1           0       -1.272950   -5.137519    0.686137
     58          1           0       -2.889982   -5.077398    1.643879
     59          1           0       -4.416399   -0.836593   -1.201548
     60          1           0       -5.379740    0.746917   -1.706556
     61          1           0       -4.311591    4.790960    0.106840
     62          1           0       -5.642767    3.636149   -0.281341
     63          1           0       -4.768019    3.857464   -1.592208
     64          1           0       -1.730473    4.957834   -0.473681
     65          1           0        7.463363   -2.618146   -1.191101
     66          1           0        7.124960   -4.304339   -1.489535
     67          1           0        6.835382   -3.555925    0.288913
     68          1           0        6.810824   -0.505554   -0.507650
     69          1           0        4.823438    1.421435    0.240808
     70          1           0        6.450718    1.093639    1.083709
     71          1           0        5.085937    0.187580    1.643856
     72          1           0        3.397529    5.850874   -1.100286
     73          1           0        4.306122    4.533419   -0.847236
     74          1           0        0.153558    6.802293   -1.829017
     75          1           0        1.309256    7.444409   -0.643619
     76          1           0       -0.064723    6.880357   -0.068522
     77          1           0        3.456499    6.518157    1.337355
     78          1           0        5.171146    6.043230    0.791903
     79          1           0        3.924608    4.670591    1.604394
     80          1           0       -3.260435   -4.326775   -1.953753
     81          1           0       -7.821226   -1.930316   -1.705302
 ---------------------------------------------------------------------

 SCF Done:  E(RB3LYP) =  -1949.04122308     A.U. after   17 cycles

 Excitation energies and oscillator strengths:

 Excited State   1:      Singlet-A      1.6885 eV  734.27 nm  f=0.2333  <S**2>=0.000
     156 ->157         0.70407
     156 <-157        -0.10003
 This state for optimization and/or second-order correction.
 Total Energy, E(TD-HF/TD-DFT) =  -1948.97917049
 Copying the excited state density for this state as the 1-particle RhoCI density.

 The electronic state is 1-A.
 Alpha  occ. eigenvalues --  -19.20261 -19.19361 -19.15168 -19.14358 -19.10493
 Alpha  occ. eigenvalues --  -19.07879 -14.38087 -14.36371 -14.36216 -14.28746
 Alpha  occ. eigenvalues --  -10.33594 -10.33452 -10.26761 -10.26553 -10.24805
 Alpha  occ. eigenvalues --  -10.23975 -10.23677 -10.23580 -10.23357 -10.23033
 Alpha  occ. eigenvalues --  -10.22407 -10.22291 -10.22179 -10.21767 -10.21711
 Alpha  occ. eigenvalues --  -10.21475 -10.21394 -10.21085 -10.20257 -10.20212
 Alpha  occ. eigenvalues --  -10.20191 -10.19860 -10.19616 -10.19595 -10.19302
 Alpha  occ. eigenvalues --  -10.19094 -10.19016 -10.18886 -10.18860 -10.18635
 Alpha  occ. eigenvalues --  -10.18541 -10.17838 -10.16964  -1.11511  -1.10685
 Alpha  occ. eigenvalues --   -1.03320  -1.02458  -1.01364  -1.00698  -0.99249
 Alpha  occ. eigenvalues --   -0.98848  -0.93514  -0.90661  -0.83256  -0.83037
 Alpha  occ. eigenvalues --   -0.81906  -0.80973  -0.80279  -0.79961  -0.78158
 Alpha  occ. eigenvalues --   -0.77125  -0.76583  -0.75279  -0.73868  -0.73068
 Alpha  occ. eigenvalues --   -0.71226  -0.70772  -0.69716  -0.68795  -0.67932
 Alpha  occ. eigenvalues --   -0.67425  -0.65882  -0.63981  -0.63042  -0.62375
 Alpha  occ. eigenvalues --   -0.61274  -0.59842  -0.59053  -0.58448  -0.57377
 Alpha  occ. eigenvalues --   -0.56768  -0.55377  -0.55201  -0.54200  -0.52887
 Alpha  occ. eigenvalues --   -0.52286  -0.51751  -0.51180  -0.50978  -0.50256
 Alpha  occ. eigenvalues --   -0.49610  -0.49367  -0.49018  -0.48507  -0.47684
 Alpha  occ. eigenvalues --   -0.47060  -0.46887  -0.46352  -0.46145  -0.45620
 Alpha  occ. eigenvalues --   -0.45356  -0.45074  -0.44770  -0.44474  -0.44285
 Alpha  occ. eigenvalues --   -0.43763  -0.43459  -0.43298  -0.43119  -0.42857
 Alpha  occ. eigenvalues --   -0.42493  -0.42167  -0.41870  -0.41615  -0.40950
 Alpha  occ. eigenvalues --   -0.40733  -0.40614  -0.40325  -0.39786  -0.39513
 Alpha  occ. eigenvalues --   -0.39355  -0.39235  -0.38508  -0.38080  -0.37844
 Alpha  occ. eigenvalues --   -0.37771  -0.37161  -0.37067  -0.36667  -0.36461
 Alpha  occ. eigenvalues --   -0.35777  -0.35296  -0.34766  -0.34642  -0.34234
 Alpha  occ. eigenvalues --   -0.33927  -0.33889  -0.33670  -0.33623  -0.33417
 Alpha  occ. eigenvalues --   -0.32780  -0.32674  -0.31397  -0.30467  -0.30058
 Alpha  occ. eigenvalues --   -0.29737  -0.27797  -0.26222  -0.25417  -0.24888
 Alpha  occ. eigenvalues --   -0.24247  -0.24060  -0.23383  -0.22680  -0.21532
 Alpha  occ. eigenvalues --   -0.18331
 Alpha virt. eigenvalues --   -0.11336  -0.06543  -0.03454  -0.02052  -0.01215
 Alpha virt. eigenvalues --    0.01280   0.01903   0.02764   0.03373   0.03769
 Alpha virt. eigenvalues --    0.04072   0.04268   0.04706   0.05556   0.06586

 Mulliken charges:
               1
     1  O   -0.271090
     2  O   -0.188700
     3  O   -0.196596
     4  O   -0.222427
     5  O   -0.192244
     6  O   -0.273478
     7  N    0.049847
     8  N   -0.049948
     9  N   -0.068304
    10  N   -0.342129
    11  C   -0.219832
    12  C   -0.018325
    13  C   -0.152057
    14  C   -0.031453
    15  C   -0.011584
    16  C    0.129950
    17  C   -0.104131
    18  C   -0.118675
    19  C    0.302951
    20  C   -0.150834
    21  C    0.107631
    22  C    0.130965
    23  C    0.031859
    24  C    0.011535
    25  C   -0.097956
    26  C    0.121136
    27  C    0.102008
    28  C    0.077786
    29  C   -0.112300
    30  C    0.035516
    31  C   -0.036833
    32  C    0.067824
    33  C   -0.217368
    34  C    0.070701
    35  C   -0.106275
    36  C   -0.229365
    37  C    0.114617
    38  C    0.095677
    39  C    0.181636
    40  C    0.110953
    41  C    0.193368
    42  C    0.089100
    43  C    0.031423
    44  H    0.099750
    45  H    0.053453
    46  H    0.015636
    47  H   -0.147446
    48  H    0.048846
    49  H    0.051518
    50  H    0.034506
    51  H    0.062741
    52  H    0.126688
    53  H   -0.015667
    54  H    0.031850
    55  H    0.028676
    56  H    0.131529
    57  H    0.006983
    58  H    0.068395
    59  H    0.076717
    60  H    0.043205
    61  H    0.042725
    62  H   -0.010310
    63  H    0.035502
    64  H   -0.097065
    65  H    0.005760
    66  H    0.039365
    67  H    0.028177
    68  H   -0.015152
    69  H    0.090606
    70  H   -0.003167
    71  H    0.009830
    72  H   -0.037607
    73  H    0.003053
    74  H    0.041044
    75  H    0.007940
    76  H    0.001439
    77  H    0.014139
    78  H    0.042280
    79  H    0.065650
    80  H    0.183817
    81  H    0.190014
 Sum of Mulliken charges =  -0.00000

 Dipole moment (field-independent basis, Debye):
    X=             -5.4467    Y=              2.7882    Z=             -0.0968  Tot=              6.1196
 Quadrupole moment (field-independent basis, Debye-Ang):
   XX=           -246.2433   YY=           -244.5994   ZZ=           -255.8379
   XY=             20.6623   XZ=             17.3720   YZ=            -18.2046

 Normal termination of Gaussian 16 at Mon Jul  1 21:20:36 2019.
