 Gaussian 16, Revision A.03,
 Gaussian 16:  ES64L-G16RevA.03 25-Dec-2016

 --------------------------
 # td=(NStates=1) B3LYP/SVP
 --------------------------

 --
 TD
 --
 Symbolic Z-matrix:
 Charge =  0 Multiplicity = 1

                         Standard orientation:
 ---------------------------------------------------------------------
 Center     Atomic      Atomic             Coordinates (Angstroms)
 Number     Number       Type             X           Y           Z
 ---------------------------------------------------------------------
      1          8           0        4.076784   -4.863422   -1.868113
      2          8           0       -2.996415   -4.739069   -1.277245
      3          8           0       -7.097010   -1.555472   -1.735790
      4          8           0       -3.766966   -3.101245    0.014525
      5          8           0       -7.506856   -0.253792    0.082067
      6          8           0        3.082293    2.426234    0.368689
      7          7           0        0.318266   -0.485620    0.705074
      8          7           0       -1.573422    1.740477    0.331901
      9          7           0        3.223503   -3.128766   -0.624610
     10          7           0        0.815756    2.927341    0.109466
     11          6           0       -0.593591   -2.405271    1.461107
     12          6           0       -0.943032   -1.050018    1.093563
     13          6           0        0.761906   -2.593601    1.341632
     14          6           0        1.314210   -1.413272    0.794892
     15          6           0       -3.781001    1.518012    0.331608
     16          6           0       -2.474377    0.778545    0.537463
     17          6           0       -2.215002   -0.501691    1.062540
     18          6           0       -3.498071    2.777982   -0.133543
     19          6           0       -1.609699   -3.407869    1.913043
     20          6           0        5.424236   -2.901317   -1.319023
     21          6           0        3.507116   -1.898362   -0.154434
     22          6           0       -1.994134    2.970978   -0.132043
     23          6           0        4.979204   -1.700905   -0.494836
     24          6           0       -5.115180    0.775725    0.302600
     25          6           0        2.548541   -1.068487    0.349731
     26          6           0        1.526287   -3.794922    1.772662
     27          6           0        4.222761   -3.822536   -1.322570
     28          6           0       -1.948252   -4.483531    0.853946
     29          6           0       -5.329025   -0.210738   -0.772407
     30          6           0       -4.449828    3.847014   -0.521646
     31          6           0       -1.270582    4.165063   -0.354121
     32          6           0        6.626726   -3.604354   -0.761598
     33          6           0        5.683456   -0.643929   -0.230515
     34          6           0        0.165490    4.011139   -0.298081
     35          6           0        1.115517    5.204154   -0.420076
     36          6           0        2.308900    4.652815   -0.153584
     37          6           0       -3.054600   -4.012585   -0.086095
     38          6           0        5.455195    0.586378    0.684221
     39          6           0       -6.735495   -0.632656   -0.685437
     40          6           0        3.731719    5.284857   -0.411014
     41          6           0        2.079380    3.172519    0.188731
     42          6           0        0.659827    6.540818   -0.823107
     43          6           0        4.375758    5.754776    0.945435
     44          1           0        0.501444    0.304045    0.203075
     45          1           0       -3.024803   -1.140803    1.343081
     46          1           0       -2.498954   -2.872054    2.193698
     47          1           0       -1.449293   -4.180076    2.966455
     48          1           0        5.827115   -2.594452   -2.423404
     49          1           0       -5.108341    0.299855    1.209592
     50          1           0       -6.050261    1.603051    0.443348
     51          1           0        2.811788    0.135955    0.497450
     52          1           0       -0.520817    1.696368    0.461574
     53          1           0        1.712142   -4.758975    0.940988
     54          1           0        2.489170   -3.558055    2.249393
     55          1           0        0.934020   -4.288435    2.663081
     56          1           0        2.241061   -3.370674   -0.891023
     57          1           0       -0.832311   -4.505945    0.110367
     58          1           0       -2.129868   -5.528306    1.508972
     59          1           0       -4.718404   -1.120636   -0.728299
     60          1           0       -5.059351    0.188407   -1.786829
     61          1           0       -4.032062    4.690176    0.039671
     62          1           0       -5.539770    3.636516   -0.323612
     63          1           0       -4.431280    4.079717   -1.559572
     64          1           0       -1.718249    5.051275   -0.620775
     65          1           0        7.584238   -3.124494   -0.942456
     66          1           0        6.563696   -4.576107   -1.346902
     67          1           0        6.750519   -3.604550    0.494050
     68          1           0        6.638821   -0.625173   -1.007477
     69          1           0        4.690466    1.029940    0.049387
     70          1           0        6.292998    1.073635    0.836373
     71          1           0        4.996436    0.402185    1.632567
     72          1           0        3.765839    6.343850   -0.852818
     73          1           0        4.433443    4.399222   -0.783270
     74          1           0        0.485851    6.752877   -1.992111
     75          1           0        1.664714    7.450228   -0.491293
     76          1           0       -0.212447    6.706775   -0.116370
     77          1           0        3.881167    6.494828    1.663792
     78          1           0        5.455119    6.148557    0.721230
     79          1           0        4.709423    4.862999    1.443770
     80          1           0       -3.516170   -4.188717   -1.821634
     81          1           0       -8.256623   -1.361301   -1.664202
 ---------------------------------------------------------------------

 SCF Done:  E(RB3LYP) =  -1949.00523214     A.U. after   17 cycles

 Excitation energies and oscillator strengths:

 Excited State   1:      Singlet-A      1.7867 eV  693.93 nm  f=0.4003  <S**2>=0.000
     156 ->157         0.71172
     156 <-157        -0.13442
 This state for optimization and/or second-order correction.
 Total Energy, E(TD-HF/TD-DFT) =  -1948.93957205
 Copying the excited state density for this state as the 1-particle RhoCI density.

 The electronic state is 1-A.
 Alpha  occ. eigenvalues --  -19.17957 -19.17181 -19.16122 -19.13965 -19.12984
 Alpha  occ. eigenvalues --  -19.09666 -14.37823 -14.37652 -14.37078 -14.29387
 Alpha  occ. eigenvalues --  -10.33945 -10.31401 -10.30259 -10.26176 -10.25177
 Alpha  occ. eigenvalues --  -10.25040 -10.24895 -10.24039 -10.23780 -10.23686
 Alpha  occ. eigenvalues --  -10.23626 -10.22674 -10.22519 -10.22016 -10.21761
 Alpha  occ. eigenvalues --  -10.21626 -10.21131 -10.20777 -10.20446 -10.20288
 Alpha  occ. eigenvalues --  -10.20190 -10.20162 -10.20079 -10.19955 -10.19937
 Alpha  occ. eigenvalues --  -10.19766 -10.19680 -10.19410 -10.19213 -10.18847
 Alpha  occ. eigenvalues --  -10.18340 -10.17769 -10.17041  -1.12840  -1.09921
 Alpha  occ. eigenvalues --   -1.06555  -1.03543  -1.00000  -0.99132  -0.98067
 Alpha  occ. eigenvalues --   -0.97849  -0.97219  -0.93280  -0.83411  -0.82537
 Alpha  occ. eigenvalues --   -0.82007  -0.81943  -0.79817  -0.78906  -0.77990
 Alpha  occ. eigenvalues --   -0.77936  -0.77330  -0.75602  -0.73690  -0.72153
 Alpha  occ. eigenvalues --   -0.71124  -0.70173  -0.68473  -0.68189  -0.67667
 Alpha  occ. eigenvalues --   -0.66729  -0.65981  -0.65660  -0.62858  -0.60775
 Alpha  occ. eigenvalues --   -0.59965  -0.59286  -0.57706  -0.57636  -0.56515
 Alpha  occ. eigenvalues --   -0.55205  -0.54828  -0.54313  -0.53193  -0.52747
 Alpha  occ. eigenvalues --   -0.52259  -0.51951  -0.51820  -0.51351  -0.49945
 Alpha  occ. eigenvalues --   -0.49736  -0.49250  -0.48961  -0.48213  -0.48049
 Alpha  occ. eigenvalues --   -0.47525  -0.47003  -0.46629  -0.45703  -0.45605
 Alpha  occ. eigenvalues --   -0.45167  -0.44793  -0.44711  -0.44301  -0.44159
 Alpha  occ. eigenvalues --   -0.43911  -0.43664  -0.43293  -0.43073  -0.42887
 Alpha  occ. eigenvalues --   -0.42586  -0.42369  -0.41924  -0.41607  -0.41084
 Alpha  occ. eigenvalues --   -0.40936  -0.40424  -0.40356  -0.39761  -0.39639
 Alpha  occ. eigenvalues --   -0.39342  -0.39039  -0.38819  -0.38693  -0.37985
 Alpha  occ. eigenvalues --   -0.37616  -0.36945  -0.36665  -0.36495  -0.36089
 Alpha  occ. eigenvalues --   -0.35736  -0.35436  -0.35172  -0.34993  -0.34719
 Alpha  occ. eigenvalues --   -0.33971  -0.33721  -0.33648  -0.32944  -0.32794
 Alpha  occ. eigenvalues --   -0.32443  -0.31446  -0.31174  -0.30817  -0.30373
 Alpha  occ. eigenvalues --   -0.29178  -0.27910  -0.27399  -0.26940  -0.26304
 Alpha  occ. eigenvalues --   -0.25729  -0.25072  -0.23889  -0.23460  -0.22610
 Alpha  occ. eigenvalues --   -0.17628
 Alpha virt. eigenvalues --   -0.10702  -0.05864  -0.04000  -0.02796  -0.01825
 Alpha virt. eigenvalues --   -0.00451  -0.00030   0.01649   0.01747   0.02574
 Alpha virt. eigenvalues --    0.04158   0.04210   0.04747   0.05031   0.05595

 Mulliken charges:
               1
     1  O   -0.161031
     2  O   -0.189585
     3  O   -0.346717
     4  O   -0.154680
     5  O   -0.158790
     6  O   -0.280987
     7  N   -0.067191
     8  N   -0.077299
     9  N   -0.126269
    10  N   -0.205306
    11  C   -0.059714
    12  C    0.109431
    13  C   -0.147998
    14  C    0.092388
    15  C   -0.102088
    16  C    0.039497
    17  C   -0.026982
    18  C   -0.146318
    19  C    0.023701
    20  C   -0.102981
    21  C    0.101790
    22  C    0.097560
    23  C    0.029222
    24  C    0.078741
    25  C   -0.222443
    26  C    0.000888
    27  C    0.147340
    28  C   -0.127747
    29  C    0.036119
    30  C    0.110459
    31  C   -0.073234
    32  C   -0.007932
    33  C   -0.254394
    34  C    0.052672
    35  C   -0.063230
    36  C   -0.141601
    37  C    0.156240
    38  C    0.158774
    39  C    0.145452
    40  C    0.035601
    41  C    0.127105
    42  C   -0.054667
    43  C   -0.060199
    44  H    0.093619
    45  H   -0.004898
    46  H    0.008391
    47  H    0.036897
    48  H    0.066629
    49  H   -0.018354
    50  H    0.044259
    51  H    0.085685
    52  H    0.147008
    53  H    0.047992
    54  H    0.031155
    55  H    0.021231
    56  H    0.150143
    57  H    0.092187
    58  H    0.089956
    59  H    0.038805
    60  H    0.037512
    61  H    0.027365
    62  H    0.017973
    63  H    0.009529
    64  H   -0.045108
    65  H    0.010596
    66  H    0.045984
    67  H    0.034275
    68  H    0.015867
    69  H    0.084406
    70  H   -0.023445
    71  H    0.020568
    72  H    0.022786
    73  H    0.043343
    74  H    0.070369
    75  H    0.032157
    76  H    0.053005
    77  H    0.036649
    78  H   -0.000952
    79  H    0.005585
    80  H    0.151611
    81  H    0.235619
 Sum of Mulliken charges =  -0.00000

 Dipole moment (field-independent basis, Debye):
    X=             -1.5516    Y=              0.3551    Z=             -0.8341  Tot=              1.7970
 Quadrupole moment (field-independent basis, Debye-Ang):
   XX=           -248.2222   YY=           -257.7389   ZZ=           -255.2058
   XY=              0.9039   XZ=              7.3546   YZ=            -16.0967

 Normal termination of Gaussian 16 at Sat Jun 29 21:01:48 2019.
