 Gaussian 16, Revision A.03,
 Gaussian 16:  ES64L-G16RevA.03 25-Dec-2016

 --------------------------
 # td=(NStates=1) B3LYP/SVP
 --------------------------

 --
 TD
 --
 Symbolic Z-matrix:
 Charge =  0 Multiplicity = 1

                         Standard orientation:
 ---------------------------------------------------------------------
 Center     Atomic      Atomic             Coordinates (Angstroms)
 Number     Number       Type             X           Y           Z
 ---------------------------------------------------------------------
      1          8           0        3.996493   -4.857087   -2.052591
      2          8           0       -3.088724   -4.886346   -0.885143
      3          8           0       -6.873986   -1.606513   -1.824848
      4          8           0       -3.875415   -3.065847    0.221057
      5          8           0       -7.521139   -0.429769   -0.026675
      6          8           0        3.108065    2.235818    0.441677
      7          7           0        0.273831   -0.455262    0.644142
      8          7           0       -1.646446    1.915945    0.283444
      9          7           0        3.106076   -3.131603   -0.747583
     10          7           0        0.778703    2.776764    0.077159
     11          6           0       -0.695019   -2.274788    1.458684
     12          6           0       -0.943108   -0.972990    0.985657
     13          6           0        0.774031   -2.476339    1.297411
     14          6           0        1.281428   -1.380770    0.667202
     15          6           0       -3.783295    1.589807    0.210317
     16          6           0       -2.550137    0.901622    0.552082
     17          6           0       -2.268414   -0.304496    0.869583
     18          6           0       -3.427693    2.960452   -0.165671
     19          6           0       -1.629651   -3.197365    2.080824
     20          6           0        5.433334   -2.830957   -1.436557
     21          6           0        3.538531   -1.885803   -0.239180
     22          6           0       -2.147394    3.064337   -0.156021
     23          6           0        4.925049   -1.661091   -0.576707
     24          6           0       -5.107481    0.921286    0.202104
     25          6           0        2.628975   -1.032324    0.393304
     26          6           0        1.516217   -3.664010    1.838362
     27          6           0        4.104791   -3.748522   -1.504797
     28          6           0       -2.125760   -4.320810    1.184747
     29          6           0       -5.305377   -0.176163   -0.889763
     30          6           0       -4.454014    3.916441   -0.669020
     31          6           0       -1.188973    4.124922   -0.492590
     32          6           0        6.689201   -3.687628   -0.958858
     33          6           0        5.800320   -0.784114   -0.045512
     34          6           0        0.248997    3.960468   -0.247803
     35          6           0        1.212360    5.088545   -0.441210
     36          6           0        2.438356    4.563411   -0.201621
     37          6           0       -3.128980   -4.006215    0.122531
     38          6           0        5.540467    0.372636    0.822254
     39          6           0       -6.616828   -0.752282   -0.772567
     40          6           0        3.712179    5.225904   -0.218859
     41          6           0        2.162675    3.036365    0.095924
     42          6           0        0.825868    6.592357   -0.727600
     43          6           0        4.372499    5.457133    1.114780
     44          1           0        0.375858    0.294582   -0.067113
     45          1           0       -3.087093   -1.073382    1.168276
     46          1           0       -2.568319   -2.574303    2.333570
     47          1           0       -1.350584   -3.590494    3.092066
     48          1           0        5.579066   -2.297916   -2.315726
     49          1           0       -5.160364    0.517863    1.197101
     50          1           0       -5.836740    1.581753    0.159147
     51          1           0        2.742564    0.252007    0.479676
     52          1           0       -0.745581    1.930144    0.500092
     53          1           0        1.344668   -4.568308    1.251871
     54          1           0        2.771584   -3.400822    1.851443
     55          1           0        1.117595   -3.994873    2.809343
     56          1           0        2.218422   -3.590017   -0.804915
     57          1           0       -1.234867   -4.940917    0.787571
     58          1           0       -2.652621   -5.123645    1.743187
     59          1           0       -4.507703   -1.090155   -0.705940
     60          1           0       -5.228583    0.350712   -1.824902
     61          1           0       -4.784661    4.753902    0.119450
     62          1           0       -5.426407    3.399815   -0.870793
     63          1           0       -3.915290    4.488926   -1.445908
     64          1           0       -1.438641    5.222447   -0.685742
     65          1           0        7.609402   -2.949411   -0.810126
     66          1           0        6.928766   -4.365467   -1.822369
     67          1           0        6.421877   -4.240723   -0.001984
     68          1           0        6.988744   -1.088332   -0.182758
     69          1           0        4.974106    1.128002    0.363703
     70          1           0        6.619081    0.631357    1.183445
     71          1           0        4.822597    0.062334    1.532027
     72          1           0        3.530729    6.073107   -0.784802
     73          1           0        4.418632    4.438168   -0.653612
     74          1           0        0.323676    6.903439   -1.617724
     75          1           0        1.893822    7.033273   -0.865082
     76          1           0        0.456712    7.144552    0.138599
     77          1           0        3.847790    6.264783    1.722349
     78          1           0        5.393662    5.731795    0.917147
     79          1           0        4.613851    4.547131    1.525443
     80          1           0       -3.848606   -4.410884   -1.426770
     81          1           0       -7.753544   -2.027515   -1.685773
 ---------------------------------------------------------------------

 SCF Done:  E(RB3LYP) =  -1949.10955457     A.U. after   16 cycles

 Excitation energies and oscillator strengths:

 Excited State   1:      Singlet-A      1.7024 eV  728.29 nm  f=0.2656  <S**2>=0.000
     156 ->157         0.70757
 This state for optimization and/or second-order correction.
 Total Energy, E(TD-HF/TD-DFT) =  -1949.04699256
 Copying the excited state density for this state as the 1-particle RhoCI density.

 The electronic state is 1-A.
 Alpha  occ. eigenvalues --  -19.21525 -19.17577 -19.15542 -19.12903 -19.11123
 Alpha  occ. eigenvalues --  -19.10770 -14.37115 -14.36792 -14.34284 -14.29644
 Alpha  occ. eigenvalues --  -10.34265 -10.32012 -10.29178 -10.27801 -10.24862
 Alpha  occ. eigenvalues --  -10.23595 -10.23408 -10.23263 -10.22935 -10.22364
 Alpha  occ. eigenvalues --  -10.22257 -10.22073 -10.21643 -10.21632 -10.21527
 Alpha  occ. eigenvalues --  -10.20758 -10.20652 -10.20612 -10.20367 -10.20331
 Alpha  occ. eigenvalues --  -10.20250 -10.20091 -10.20014 -10.19854 -10.19433
 Alpha  occ. eigenvalues --  -10.19282 -10.19219 -10.19183 -10.19149 -10.19085
 Alpha  occ. eigenvalues --  -10.18207 -10.17250 -10.16736  -1.12675  -1.08775
 Alpha  occ. eigenvalues --   -1.03638  -1.01740  -1.00418  -0.99875  -0.98782
 Alpha  occ. eigenvalues --   -0.98383  -0.94275  -0.91534  -0.83367  -0.82742
 Alpha  occ. eigenvalues --   -0.82368  -0.81379  -0.81028  -0.79345  -0.78508
 Alpha  occ. eigenvalues --   -0.77129  -0.75522  -0.75186  -0.74088  -0.72497
 Alpha  occ. eigenvalues --   -0.71813  -0.70127  -0.69667  -0.68932  -0.68356
 Alpha  occ. eigenvalues --   -0.67617  -0.65723  -0.63840  -0.63328  -0.61570
 Alpha  occ. eigenvalues --   -0.59778  -0.59558  -0.58448  -0.57404  -0.56834
 Alpha  occ. eigenvalues --   -0.55728  -0.55556  -0.54801  -0.53717  -0.53288
 Alpha  occ. eigenvalues --   -0.52647  -0.52342  -0.51873  -0.51238  -0.50965
 Alpha  occ. eigenvalues --   -0.50348  -0.50084  -0.48668  -0.47701  -0.47421
 Alpha  occ. eigenvalues --   -0.47088  -0.46363  -0.46033  -0.45885  -0.45564
 Alpha  occ. eigenvalues --   -0.45273  -0.45083  -0.44510  -0.43929  -0.43863
 Alpha  occ. eigenvalues --   -0.43647  -0.43187  -0.42360  -0.42305  -0.41987
 Alpha  occ. eigenvalues --   -0.41643  -0.41560  -0.41201  -0.40980  -0.40477
 Alpha  occ. eigenvalues --   -0.40406  -0.40104  -0.39885  -0.39525  -0.39438
 Alpha  occ. eigenvalues --   -0.39099  -0.38739  -0.38432  -0.38350  -0.38195
 Alpha  occ. eigenvalues --   -0.37919  -0.37853  -0.37524  -0.37363  -0.37039
 Alpha  occ. eigenvalues --   -0.36984  -0.36485  -0.36027  -0.35673  -0.35057
 Alpha  occ. eigenvalues --   -0.34760  -0.34542  -0.34073  -0.33194  -0.32905
 Alpha  occ. eigenvalues --   -0.32787  -0.32247  -0.32105  -0.31128  -0.30809
 Alpha  occ. eigenvalues --   -0.28430  -0.28328  -0.26319  -0.25558  -0.24872
 Alpha  occ. eigenvalues --   -0.24729  -0.24413  -0.24294  -0.23614  -0.21188
 Alpha  occ. eigenvalues --   -0.18303
 Alpha virt. eigenvalues --   -0.11163  -0.05911  -0.04306  -0.01852  -0.00570
 Alpha virt. eigenvalues --    0.00342   0.01536   0.02158   0.03389   0.04027
 Alpha virt. eigenvalues --    0.04305   0.04785   0.05278   0.05525   0.05813

 Mulliken charges:
               1
     1  O   -0.241588
     2  O   -0.182771
     3  O   -0.227177
     4  O   -0.232843
     5  O   -0.230162
     6  O   -0.287783
     7  N   -0.052967
     8  N    0.010797
     9  N   -0.119273
    10  N   -0.284426
    11  C   -0.081703
    12  C   -0.005817
    13  C   -0.146277
    14  C    0.029676
    15  C   -0.131925
    16  C    0.172286
    17  C   -0.111853
    18  C   -0.120598
    19  C    0.066906
    20  C   -0.043854
    21  C    0.125197
    22  C    0.084541
    23  C   -0.014681
    24  C    0.200182
    25  C   -0.231365
    26  C    0.045570
    27  C    0.124564
    28  C    0.001251
    29  C   -0.025261
    30  C    0.058601
    31  C   -0.100902
    32  C    0.014167
    33  C   -0.233847
    34  C    0.010970
    35  C   -0.097173
    36  C   -0.154888
    37  C    0.133566
    38  C    0.132669
    39  C    0.141533
    40  C    0.069111
    41  C    0.207523
    42  C    0.084346
    43  C    0.075310
    44  H    0.149684
    45  H    0.047656
    46  H    0.011826
    47  H    0.019263
    48  H    0.019726
    49  H    0.008146
    50  H   -0.054882
    51  H    0.122547
    52  H    0.057221
    53  H    0.011649
    54  H    0.065122
    55  H    0.009254
    56  H    0.131797
    57  H    0.036883
    58  H    0.039339
    59  H    0.100547
    60  H    0.041184
    61  H    0.031340
    62  H    0.026237
    63  H    0.028546
    64  H   -0.004418
    65  H    0.035823
    66  H    0.046237
    67  H    0.041486
    68  H    0.022197
    69  H    0.040066
    70  H    0.023868
    71  H    0.011569
    72  H   -0.019411
    73  H    0.014392
    74  H    0.027700
    75  H   -0.002860
    76  H    0.032665
    77  H    0.024618
    78  H   -0.013919
    79  H   -0.005096
    80  H    0.206735
    81  H    0.185629
 Sum of Mulliken charges =  -0.00000

 Dipole moment (field-independent basis, Debye):
    X=             -2.9272    Y=              0.7072    Z=             -0.0785  Tot=              3.0124
 Quadrupole moment (field-independent basis, Debye-Ang):
   XX=           -251.6860   YY=           -239.5422   ZZ=           -257.7992
   XY=             20.4546   XZ=             11.3407   YZ=            -15.8845

 Normal termination of Gaussian 16 at Fri Jun 28 02:50:22 2019.
