 Gaussian 16, Revision A.03,
 Gaussian 16:  ES64L-G16RevA.03 25-Dec-2016

 --------------------------
 # td=(NStates=1) B3LYP/SVP
 --------------------------

 --
 TD
 --
 Symbolic Z-matrix:
 Charge =  0 Multiplicity = 1

                         Standard orientation:
 ---------------------------------------------------------------------
 Center     Atomic      Atomic             Coordinates (Angstroms)
 Number     Number       Type             X           Y           Z
 ---------------------------------------------------------------------
      1          8           0        4.338336   -4.693371   -1.902896
      2          8           0       -2.638797   -4.945252   -1.063523
      3          8           0       -6.933113   -1.807065   -1.961377
      4          8           0       -3.637039   -3.377943    0.142496
      5          8           0       -7.562634   -0.661416   -0.149438
      6          8           0        2.816669    2.355852    0.218226
      7          7           0        0.258509   -0.468718    0.568433
      8          7           0       -1.612682    1.755014    0.404716
      9          7           0        3.405984   -3.069954   -0.580675
     10          7           0        0.637466    2.819640    0.001005
     11          6           0       -0.619463   -2.306483    1.477207
     12          6           0       -0.925338   -1.050842    0.936478
     13          6           0        0.764368   -2.464934    1.333426
     14          6           0        1.362267   -1.327080    0.738827
     15          6           0       -3.847976    1.434264    0.373133
     16          6           0       -2.562900    0.836434    0.646841
     17          6           0       -2.231336   -0.398807    0.945254
     18          6           0       -3.702889    2.810254   -0.024995
     19          6           0       -1.462093   -3.411035    2.122798
     20          6           0        5.504206   -2.686566   -1.327166
     21          6           0        3.659119   -1.696287   -0.196667
     22          6           0       -2.265403    2.924141    0.108214
     23          6           0        4.988009   -1.438266   -0.572738
     24          6           0       -5.132530    0.631379    0.272447
     25          6           0        2.682328   -0.882344    0.370381
     26          6           0        1.661230   -3.646703    1.888720
     27          6           0        4.437330   -3.614102   -1.280407
     28          6           0       -1.751609   -4.558342    1.159137
     29          6           0       -5.316984   -0.270481   -1.019737
     30          6           0       -4.667632    3.786930   -0.444037
     31          6           0       -1.453151    4.049024   -0.197083
     32          6           0        6.811826   -3.313043   -0.794315
     33          6           0        5.730707   -0.454870   -0.269562
     34          6           0       -0.024533    4.062744   -0.207039
     35          6           0        0.931159    5.159025   -0.411999
     36          6           0        2.184668    4.717623   -0.240447
     37          6           0       -2.843197   -4.192062    0.061705
     38          6           0        5.494837    0.783387    0.519869
     39          6           0       -6.580669   -0.896990   -1.002207
     40          6           0        3.471797    5.281610   -0.347280
     41          6           0        1.973879    3.162668   -0.072591
     42          6           0        0.524041    6.608759   -0.678080
     43          6           0        4.203147    5.635074    0.990961
     44          1           0        0.267870    0.296686    0.031208
     45          1           0       -3.220462   -1.058137    1.079642
     46          1           0       -2.360106   -2.726684    2.402256
     47          1           0       -0.897188   -3.714332    2.840059
     48          1           0        5.451103   -2.445392   -2.404953
     49          1           0       -5.210330   -0.043084    1.110128
     50          1           0       -5.919987    1.283684    0.474393
     51          1           0        2.788877    0.049646    0.390309
     52          1           0       -0.578025    1.788181    0.477120
     53          1           0        1.990865   -4.604028    1.366549
     54          1           0        2.631402   -3.235140    2.199553
     55          1           0        1.100358   -3.867674    2.860637
     56          1           0        2.410367   -3.369759   -0.732420
     57          1           0       -0.868082   -4.756495    0.648198
     58          1           0       -2.178680   -5.348806    1.592250
     59          1           0       -4.631882   -1.172887   -0.953258
     60          1           0       -5.015816    0.492311   -1.819020
     61          1           0       -4.806926    4.749417    0.167469
     62          1           0       -5.728110    3.424803   -0.345631
     63          1           0       -4.547894    3.960234   -1.583462
     64          1           0       -2.179867    4.884956   -0.410579
     65          1           0        7.666069   -2.708518   -1.220837
     66          1           0        7.193389   -4.388826   -1.358787
     67          1           0        6.665223   -3.495387    0.378143
     68          1           0        6.703143   -0.540762   -0.664980
     69          1           0        4.814075    1.325790    0.044935
     70          1           0        6.419541    1.323535    0.771691
     71          1           0        4.977338    0.577104    1.545873
     72          1           0        3.219753    6.136778   -0.800945
     73          1           0        4.160749    4.696064   -0.808341
     74          1           0       -0.096195    6.501224   -1.318716
     75          1           0        1.544859    7.188299   -0.964769
     76          1           0        0.060321    6.901185    0.365272
     77          1           0        3.937730    6.423261    1.602448
     78          1           0        5.339439    5.797588    0.737121
     79          1           0        4.164964    4.719950    1.606106
     80          1           0       -3.364473   -4.726848   -1.754792
     81          1           0       -7.779021   -2.180716   -1.726420
 ---------------------------------------------------------------------

 SCF Done:  E(RB3LYP) =  -1949.02708089     A.U. after   16 cycles

 Excitation energies and oscillator strengths:

 Excited State   1:      Singlet-A      1.8695 eV  663.20 nm  f=0.3347  <S**2>=0.000
     156 ->157         0.70847
     156 <-157        -0.10833
 This state for optimization and/or second-order correction.
 Total Energy, E(TD-HF/TD-DFT) =  -1948.95837823
 Copying the excited state density for this state as the 1-particle RhoCI density.

 The electronic state is 1-A.
 Alpha  occ. eigenvalues --  -19.18651 -19.18292 -19.14878 -19.11792 -19.09777
 Alpha  occ. eigenvalues --  -19.09127 -14.36852 -14.36602 -14.35288 -14.28792
 Alpha  occ. eigenvalues --  -10.33052 -10.32772 -10.27614 -10.25716 -10.24217
 Alpha  occ. eigenvalues --  -10.24152 -10.23687 -10.23411 -10.23331 -10.22839
 Alpha  occ. eigenvalues --  -10.22587 -10.21948 -10.21872 -10.21813 -10.21797
 Alpha  occ. eigenvalues --  -10.21678 -10.20191 -10.20191 -10.20132 -10.20113
 Alpha  occ. eigenvalues --  -10.19940 -10.19764 -10.19555 -10.19543 -10.19409
 Alpha  occ. eigenvalues --  -10.19307 -10.18694 -10.18539 -10.18360 -10.18280
 Alpha  occ. eigenvalues --  -10.17997 -10.17425 -10.17143  -1.12234  -1.08477
 Alpha  occ. eigenvalues --   -1.02714  -1.02068  -1.01561  -0.99393  -0.98044
 Alpha  occ. eigenvalues --   -0.95505  -0.93812  -0.90171  -0.83010  -0.82813
 Alpha  occ. eigenvalues --   -0.82588  -0.82147  -0.81288  -0.79765  -0.78901
 Alpha  occ. eigenvalues --   -0.77642  -0.76742  -0.76430  -0.74534  -0.73018
 Alpha  occ. eigenvalues --   -0.71796  -0.70095  -0.69652  -0.69093  -0.68838
 Alpha  occ. eigenvalues --   -0.67608  -0.65995  -0.65375  -0.63674  -0.62332
 Alpha  occ. eigenvalues --   -0.60600  -0.60558  -0.58693  -0.58088  -0.57694
 Alpha  occ. eigenvalues --   -0.56950  -0.55484  -0.54779  -0.54182  -0.53310
 Alpha  occ. eigenvalues --   -0.52638  -0.51922  -0.51520  -0.51037  -0.50615
 Alpha  occ. eigenvalues --   -0.50165  -0.50067  -0.49170  -0.48549  -0.47972
 Alpha  occ. eigenvalues --   -0.47294  -0.47155  -0.46380  -0.46001  -0.45784
 Alpha  occ. eigenvalues --   -0.45653  -0.45138  -0.44755  -0.44699  -0.44182
 Alpha  occ. eigenvalues --   -0.43851  -0.43679  -0.43572  -0.42530  -0.42404
 Alpha  occ. eigenvalues --   -0.41957  -0.41683  -0.41284  -0.41150  -0.40860
 Alpha  occ. eigenvalues --   -0.40673  -0.40321  -0.40279  -0.39906  -0.39649
 Alpha  occ. eigenvalues --   -0.39585  -0.38924  -0.38835  -0.38733  -0.38498
 Alpha  occ. eigenvalues --   -0.37979  -0.37181  -0.36989  -0.36896  -0.36714
 Alpha  occ. eigenvalues --   -0.36569  -0.36135  -0.36017  -0.35688  -0.35147
 Alpha  occ. eigenvalues --   -0.34705  -0.34425  -0.34263  -0.34056  -0.33598
 Alpha  occ. eigenvalues --   -0.33167  -0.32173  -0.30235  -0.30076  -0.29712
 Alpha  occ. eigenvalues --   -0.28250  -0.26777  -0.26427  -0.26071  -0.25912
 Alpha  occ. eigenvalues --   -0.25337  -0.24683  -0.24017  -0.23056  -0.21536
 Alpha  occ. eigenvalues --   -0.18124
 Alpha virt. eigenvalues --   -0.10562  -0.05649  -0.04057  -0.03250   0.00436
 Alpha virt. eigenvalues --    0.00935   0.02529   0.02989   0.03252   0.03873
 Alpha virt. eigenvalues --    0.04918   0.05052   0.05565   0.05961   0.06079

 Mulliken charges:
               1
     1  O   -0.259890
     2  O   -0.234094
     3  O   -0.180870
     4  O   -0.141033
     5  O   -0.334864
     6  O   -0.192403
     7  N   -0.024553
     8  N   -0.070964
     9  N   -0.132117
    10  N   -0.340736
    11  C   -0.155703
    12  C    0.028770
    13  C   -0.170893
    14  C    0.076651
    15  C   -0.112382
    16  C    0.109240
    17  C   -0.127064
    18  C   -0.067990
    19  C    0.224307
    20  C    0.051399
    21  C    0.091839
    22  C    0.003025
    23  C    0.022590
    24  C    0.108978
    25  C    0.066110
    26  C    0.031106
    27  C    0.058454
    28  C    0.112099
    29  C    0.014214
    30  C    0.033717
    31  C   -0.125379
    32  C   -0.026869
    33  C   -0.185073
    34  C    0.142292
    35  C   -0.142229
    36  C   -0.195424
    37  C    0.074477
    38  C    0.150981
    39  C    0.172440
    40  C    0.224270
    41  C    0.137200
    42  C    0.194358
    43  C   -0.025519
    44  H    0.085130
    45  H    0.044825
    46  H    0.030514
    47  H   -0.070536
    48  H    0.041807
    49  H    0.001316
    50  H   -0.003202
    51  H   -0.167313
    52  H    0.140252
    53  H    0.050701
    54  H    0.018009
    55  H    0.015739
    56  H    0.153576
    57  H    0.016532
    58  H    0.001810
    59  H    0.065922
    60  H    0.078222
    61  H    0.051884
    62  H    0.015220
    63  H    0.048417
    64  H   -0.030682
    65  H    0.032524
    66  H    0.052413
    67  H    0.057655
    68  H   -0.041677
    69  H    0.013417
    70  H    0.008121
    71  H    0.028069
    72  H   -0.056426
    73  H   -0.018422
    74  H   -0.058998
    75  H    0.042578
    76  H    0.049281
    77  H   -0.000212
    78  H    0.012888
    79  H    0.023246
    80  H    0.202906
    81  H    0.182026
 Sum of Mulliken charges =  -0.00000

 Dipole moment (field-independent basis, Debye):
    X=             -1.8401    Y=              2.3567    Z=             -0.6743  Tot=              3.0651
 Quadrupole moment (field-independent basis, Debye-Ang):
   XX=           -252.5063   YY=           -244.3626   ZZ=           -254.0505
   XY=             15.9912   XZ=             14.0063   YZ=            -12.7946

 Normal termination of Gaussian 16 at Mon Jul  1 20:07:26 2019.
