 Gaussian 16, Revision A.03,
 Gaussian 16:  ES64L-G16RevA.03 25-Dec-2016

 --------------------------
 # td=(NStates=1) B3LYP/SVP
 --------------------------

 --
 TD
 --
 Symbolic Z-matrix:
 Charge =  0 Multiplicity = 1

                         Standard orientation:
 ---------------------------------------------------------------------
 Center     Atomic      Atomic             Coordinates (Angstroms)
 Number     Number       Type             X           Y           Z
 ---------------------------------------------------------------------
      1          8           0        4.363626   -4.836634   -1.770525
      2          8           0       -3.110728   -4.846523   -0.995567
      3          8           0       -6.814344   -1.722457   -1.903077
      4          8           0       -3.994066   -3.302405    0.271282
      5          8           0       -7.660131   -0.500429   -0.093412
      6          8           0        2.891822    2.346164    0.258131
      7          7           0        0.339608   -0.502907    0.648189
      8          7           0       -1.589807    1.809620    0.340682
      9          7           0        3.302876   -3.042983   -0.848733
     10          7           0        0.710402    2.952463    0.071902
     11          6           0       -0.573143   -2.343200    1.491614
     12          6           0       -0.878702   -1.060259    1.012389
     13          6           0        0.805746   -2.591621    1.285558
     14          6           0        1.437889   -1.408680    0.578125
     15          6           0       -3.740049    1.489245    0.290562
     16          6           0       -2.537612    0.838553    0.457714
     17          6           0       -2.224139   -0.397601    0.834896
     18          6           0       -3.561436    2.769706   -0.080233
     19          6           0       -1.515963   -3.333799    2.077028
     20          6           0        5.543678   -2.756953   -1.272224
     21          6           0        3.651884   -1.824822   -0.377989
     22          6           0       -2.079788    3.040178    0.038585
     23          6           0        5.043280   -1.574728   -0.536592
     24          6           0       -5.040485    0.731354    0.402993
     25          6           0        2.708959   -0.939329    0.231582
     26          6           0        1.670700   -3.715969    1.674837
     27          6           0        4.430880   -3.702425   -1.263373
     28          6           0       -2.069423   -4.479457    1.058261
     29          6           0       -5.403670   -0.209979   -0.818100
     30          6           0       -4.629354    3.762754   -0.527891
     31          6           0       -1.322569    4.190938   -0.256884
     32          6           0        6.920674   -3.376152   -0.808311
     33          6           0        5.741424   -0.521947   -0.075594
     34          6           0        0.130708    4.081408   -0.262468
     35          6           0        1.019876    5.183547   -0.417235
     36          6           0        2.208625    4.650318   -0.163399
     37          6           0       -3.167904   -4.124258    0.173516
     38          6           0        5.434309    0.716053    0.692333
     39          6           0       -6.811851   -0.780422   -0.928442
     40          6           0        3.525370    5.262297   -0.254728
     41          6           0        2.025873    3.176189    0.052482
     42          6           0        0.598745    6.647174   -0.669678
     43          6           0        4.338992    5.283965    1.056357
     44          1           0        0.640051    0.517377    0.371083
     45          1           0       -3.021413   -0.988381    1.127341
     46          1           0       -2.359976   -3.035062    2.474438
     47          1           0       -1.024779   -3.879455    2.712652
     48          1           0        5.667045   -2.535516   -2.399092
     49          1           0       -4.959720    0.073120    1.284532
     50          1           0       -5.737236    1.579226    0.508087
     51          1           0        2.915204    0.249405    0.436034
     52          1           0       -0.553380    2.013658    0.613793
     53          1           0        1.712540   -4.777203    1.097546
     54          1           0        2.715569   -3.546774    1.665248
     55          1           0        1.439539   -4.038967    2.554450
     56          1           0        2.238468   -3.447292   -0.873745
     57          1           0       -1.269410   -4.655867    0.200367
     58          1           0       -2.471408   -5.398913    1.545700
     59          1           0       -4.639675   -0.971169   -0.827761
     60          1           0       -5.187470    0.299931   -1.844855
     61          1           0       -4.500748    4.704411    0.012701
     62          1           0       -5.724054    3.562396   -0.612956
     63          1           0       -4.389344    4.064492   -1.677986
     64          1           0       -1.837757    5.228081   -0.547909
     65          1           0        7.616103   -2.811606   -1.031206
     66          1           0        7.283845   -4.450625   -1.409336
     67          1           0        6.863827   -3.490720    0.214096
     68          1           0        6.823882   -0.490504   -0.528892
     69          1           0        5.082184    1.499785    0.039736
     70          1           0        6.408161    1.263557    1.189751
     71          1           0        4.545738    0.670186    1.253035
     72          1           0        3.503152    6.067142   -0.848119
     73          1           0        4.136741    4.746818   -0.867263
     74          1           0        0.161539    6.761740   -1.759047
     75          1           0        1.362210    7.283705   -0.637910
     76          1           0       -0.279402    6.982346    0.060655
     77          1           0        3.750326    5.954664    1.805044
     78          1           0        5.389610    5.562628    0.831695
     79          1           0        4.430251    4.260726    1.414251
     80          1           0       -3.868264   -4.501468   -1.432037
     81          1           0       -7.702102   -2.033436   -1.907178
 ---------------------------------------------------------------------

 SCF Done:  E(RB3LYP) =  -1949.04959714     A.U. after   16 cycles

 Excitation energies and oscillator strengths:

 Excited State   1:      Singlet-A      1.6187 eV  765.93 nm  f=0.2735  <S**2>=0.000
     156 ->157         0.70965
     156 <-157        -0.11034
 This state for optimization and/or second-order correction.
 Total Energy, E(TD-HF/TD-DFT) =  -1948.99010944
 Copying the excited state density for this state as the 1-particle RhoCI density.

 The electronic state is 1-A.
 Alpha  occ. eigenvalues --  -19.19355 -19.17203 -19.13708 -19.13137 -19.11080
 Alpha  occ. eigenvalues --  -19.10068 -14.38093 -14.37122 -14.35096 -14.29160
 Alpha  occ. eigenvalues --  -10.32518 -10.31889 -10.28710 -10.26609 -10.24474
 Alpha  occ. eigenvalues --  -10.24203 -10.23721 -10.23351 -10.23168 -10.22071
 Alpha  occ. eigenvalues --  -10.21913 -10.21316 -10.21049 -10.21036 -10.21019
 Alpha  occ. eigenvalues --  -10.20834 -10.20441 -10.20384 -10.20303 -10.20082
 Alpha  occ. eigenvalues --  -10.19949 -10.19905 -10.19896 -10.19553 -10.19349
 Alpha  occ. eigenvalues --  -10.19209 -10.19027 -10.18701 -10.18636 -10.18562
 Alpha  occ. eigenvalues --  -10.18516 -10.18216 -10.16693  -1.11758  -1.10269
 Alpha  occ. eigenvalues --   -1.03039  -1.02807  -1.01964  -1.01331  -0.98681
 Alpha  occ. eigenvalues --   -0.95941  -0.95370  -0.94849  -0.82657  -0.82544
 Alpha  occ. eigenvalues --   -0.82003  -0.81115  -0.80523  -0.78611  -0.77615
 Alpha  occ. eigenvalues --   -0.76692  -0.76191  -0.75997  -0.74290  -0.73076
 Alpha  occ. eigenvalues --   -0.71302  -0.70894  -0.69620  -0.69284  -0.68178
 Alpha  occ. eigenvalues --   -0.67689  -0.66371  -0.65407  -0.63290  -0.62137
 Alpha  occ. eigenvalues --   -0.60163  -0.59364  -0.58818  -0.58125  -0.56296
 Alpha  occ. eigenvalues --   -0.55989  -0.55652  -0.55048  -0.53929  -0.53648
 Alpha  occ. eigenvalues --   -0.53377  -0.51637  -0.50559  -0.50151  -0.49878
 Alpha  occ. eigenvalues --   -0.49423  -0.49334  -0.48902  -0.48734  -0.48458
 Alpha  occ. eigenvalues --   -0.47721  -0.46622  -0.46374  -0.45746  -0.45349
 Alpha  occ. eigenvalues --   -0.44977  -0.44714  -0.44396  -0.44128  -0.43887
 Alpha  occ. eigenvalues --   -0.43549  -0.42998  -0.42687  -0.42184  -0.42154
 Alpha  occ. eigenvalues --   -0.41996  -0.41614  -0.41284  -0.40996  -0.40763
 Alpha  occ. eigenvalues --   -0.40486  -0.40321  -0.40034  -0.39977  -0.39723
 Alpha  occ. eigenvalues --   -0.39627  -0.39285  -0.39058  -0.38956  -0.38151
 Alpha  occ. eigenvalues --   -0.38017  -0.37760  -0.37671  -0.37589  -0.36586
 Alpha  occ. eigenvalues --   -0.36418  -0.36343  -0.35894  -0.35778  -0.35125
 Alpha  occ. eigenvalues --   -0.34657  -0.34486  -0.34166  -0.34075  -0.33543
 Alpha  occ. eigenvalues --   -0.33209  -0.33158  -0.33062  -0.30111  -0.28973
 Alpha  occ. eigenvalues --   -0.28800  -0.28062  -0.26524  -0.25975  -0.25546
 Alpha  occ. eigenvalues --   -0.25128  -0.24898  -0.24324  -0.23834  -0.21582
 Alpha  occ. eigenvalues --   -0.17227
 Alpha virt. eigenvalues --   -0.10560  -0.06288  -0.04411  -0.01039  -0.00412
 Alpha virt. eigenvalues --    0.00373   0.02034   0.03018   0.03755   0.04242
 Alpha virt. eigenvalues --    0.04773   0.04896   0.05121   0.05614   0.06480

 Mulliken charges:
               1
     1  O   -0.240400
     2  O   -0.188827
     3  O   -0.154422
     4  O   -0.189151
     5  O   -0.227587
     6  O   -0.219717
     7  N   -0.182342
     8  N   -0.104193
     9  N   -0.113634
    10  N   -0.251205
    11  C   -0.115108
    12  C    0.077353
    13  C   -0.146389
    14  C    0.065289
    15  C   -0.110660
    16  C    0.133249
    17  C   -0.025213
    18  C   -0.105661
    19  C    0.332410
    20  C   -0.064314
    21  C    0.050836
    22  C    0.055022
    23  C    0.013373
    24  C    0.149565
    25  C   -0.204711
    26  C    0.123405
    27  C    0.107402
    28  C   -0.080956
    29  C   -0.030790
    30  C    0.034723
    31  C   -0.146038
    32  C    0.145648
    33  C   -0.186758
    34  C    0.051682
    35  C   -0.099961
    36  C   -0.199505
    37  C    0.090375
    38  C    0.092362
    39  C    0.161235
    40  C    0.195586
    41  C    0.138137
    42  C    0.113478
    43  C   -0.017924
    44  H    0.176360
    45  H   -0.049080
    46  H   -0.043015
    47  H   -0.063242
    48  H    0.066492
    49  H    0.019481
    50  H    0.008463
    51  H    0.105146
    52  H    0.179576
    53  H    0.013089
    54  H    0.002749
    55  H   -0.044622
    56  H    0.202840
    57  H    0.068351
    58  H    0.054807
    59  H    0.028527
    60  H    0.031915
    61  H    0.022426
    62  H    0.036648
    63  H    0.029328
    64  H    0.020094
    65  H   -0.060591
    66  H    0.048632
    67  H    0.000853
    68  H    0.008600
    69  H    0.039682
    70  H    0.030496
    71  H    0.017540
    72  H   -0.063134
    73  H   -0.044979
    74  H    0.031580
    75  H   -0.021374
    76  H    0.045924
    77  H    0.028349
    78  H    0.010556
    79  H    0.026488
    80  H    0.151152
    81  H    0.158229
 Sum of Mulliken charges =  -0.00000

 Dipole moment (field-independent basis, Debye):
    X=             -1.0302    Y=              2.5124    Z=             -0.6592  Tot=              2.7943
 Quadrupole moment (field-independent basis, Debye-Ang):
   XX=           -247.0726   YY=           -242.8695   ZZ=           -253.4685
   XY=             18.7068   XZ=             13.2256   YZ=            -16.3895

 Normal termination of Gaussian 16 at Tue Jul  2 07:30:11 2019.
