 Gaussian 16, Revision A.03,
 Gaussian 16:  ES64L-G16RevA.03 25-Dec-2016

 --------------------------
 # td=(NStates=1) B3LYP/SVP
 --------------------------

 --
 TD
 --
 Symbolic Z-matrix:
 Charge =  0 Multiplicity = 1

                         Standard orientation:
 ---------------------------------------------------------------------
 Center     Atomic      Atomic             Coordinates (Angstroms)
 Number     Number       Type             X           Y           Z
 ---------------------------------------------------------------------
      1          8           0        4.416197   -4.884190   -1.828636
      2          8           0       -3.069686   -4.971077   -1.133582
      3          8           0       -6.939506   -1.602606   -1.843544
      4          8           0       -3.729395   -3.159270    0.055702
      5          8           0       -7.679653   -0.416652   -0.169558
      6          8           0        2.984101    2.456091    0.393154
      7          7           0        0.287348   -0.481197    0.799616
      8          7           0       -1.572872    1.905109    0.474123
      9          7           0        3.395590   -3.163238   -0.589630
     10          7           0        0.754623    2.990614    0.180128
     11          6           0       -0.678237   -2.421812    1.272336
     12          6           0       -0.832919   -1.116345    0.940324
     13          6           0        0.693791   -2.548845    1.295937
     14          6           0        1.384188   -1.407853    0.761688
     15          6           0       -3.858447    1.465441    0.349503
     16          6           0       -2.541793    0.899109    0.520831
     17          6           0       -2.201457   -0.400893    0.849296
     18          6           0       -3.627657    2.849156   -0.070515
     19          6           0       -1.647598   -3.383861    1.946372
     20          6           0        5.599430   -2.696474   -1.282257
     21          6           0        3.607463   -1.875969   -0.119428
     22          6           0       -2.186132    3.156136    0.058488
     23          6           0        5.057982   -1.581859   -0.554463
     24          6           0       -5.126371    0.699915    0.403955
     25          6           0        2.614164   -1.009780    0.337389
     26          6           0        1.418073   -3.801869    1.815936
     27          6           0        4.435967   -3.771267   -1.313039
     28          6           0       -2.043619   -4.674555    1.012078
     29          6           0       -5.400328   -0.123861   -0.806467
     30          6           0       -4.685559    3.793656   -0.475889
     31          6           0       -1.359081    4.163406   -0.261786
     32          6           0        6.855901   -3.445434   -0.797712
     33          6           0        5.893872   -0.522957   -0.249228
     34          6           0        0.060705    4.080498   -0.187323
     35          6           0        0.969498    5.164442   -0.457580
     36          6           0        2.256950    4.715135   -0.279478
     37          6           0       -3.043522   -4.187778   -0.011442
     38          6           0        5.492272    0.578501    0.591538
     39          6           0       -6.734728   -0.703457   -0.884318
     40          6           0        3.763518    5.246149   -0.332243
     41          6           0        2.128176    3.282184    0.128261
     42          6           0        0.804126    6.511438   -0.952626
     43          6           0        4.239514    5.584101    1.081994
     44          1           0        0.415375    0.435843    0.424931
     45          1           0       -2.915257   -1.290736    1.049455
     46          1           0       -2.599998   -2.889934    2.305170
     47          1           0       -1.228322   -3.993498    2.792766
     48          1           0        5.557869   -2.528531   -2.455873
     49          1           0       -4.979720    0.122162    1.529463
     50          1           0       -5.789267    1.426445    0.571969
     51          1           0        2.794089    0.057181    0.251478
     52          1           0       -0.725563    1.929203    0.584956
     53          1           0        1.000827   -4.729612    1.251028
     54          1           0        2.534265   -3.671074    1.775839
     55          1           0        1.239693   -3.967205    2.612673
     56          1           0        2.437696   -3.627523   -0.730803
     57          1           0       -1.000511   -5.139676    0.612469
     58          1           0       -2.528513   -5.642117    1.695003
     59          1           0       -4.622779   -0.927291   -0.844133
     60          1           0       -5.241136    0.518969   -1.705020
     61          1           0       -4.622076    4.706567    0.032732
     62          1           0       -5.740528    3.240580   -0.117445
     63          1           0       -4.460601    4.050731   -1.604173
     64          1           0       -1.734641    5.113592   -0.372226
     65          1           0        7.546041   -2.776033   -1.040071
     66          1           0        7.122686   -4.438616   -1.295432
     67          1           0        6.814266   -3.400256    0.306038
     68          1           0        6.814609   -0.495928   -0.759794
     69          1           0        4.862055    1.262054   -0.118992
     70          1           0        6.230914    1.244964    1.185077
     71          1           0        4.789740    0.182870    1.230003
     72          1           0        3.598049    6.118130   -1.052226
     73          1           0        4.298406    4.325707   -0.702699
     74          1           0        0.122180    6.420651   -1.803807
     75          1           0        1.846229    7.058844   -1.386884
     76          1           0        0.444601    7.438914   -0.325505
     77          1           0        3.744832    6.481664    1.753835
     78          1           0        5.272602    5.851103    0.928257
     79          1           0        4.476049    4.753987    1.650385
     80          1           0       -3.595059   -4.582913   -1.904815
     81          1           0       -7.937248   -1.862998   -2.142378
 ---------------------------------------------------------------------

 SCF Done:  E(RB3LYP) =  -1948.96243442     A.U. after   17 cycles

 Excitation energies and oscillator strengths:

 Excited State   1:      Singlet-A      1.5010 eV  826.00 nm  f=0.2649  <S**2>=0.000
     156 ->157         0.71202
     156 <-157        -0.12859
 This state for optimization and/or second-order correction.
 Total Energy, E(TD-HF/TD-DFT) =  -1948.90727307
 Copying the excited state density for this state as the 1-particle RhoCI density.

 The electronic state is 1-A.
 Alpha  occ. eigenvalues --  -19.19095 -19.17622 -19.14362 -19.11280 -19.11124
 Alpha  occ. eigenvalues --  -19.10977 -14.37449 -14.36689 -14.34277 -14.28138
 Alpha  occ. eigenvalues --  -10.34094 -10.31336 -10.28974 -10.26117 -10.25147
 Alpha  occ. eigenvalues --  -10.24719 -10.24349 -10.23781 -10.23078 -10.22905
 Alpha  occ. eigenvalues --  -10.22655 -10.22336 -10.21592 -10.21441 -10.21390
 Alpha  occ. eigenvalues --  -10.21333 -10.20952 -10.20864 -10.20668 -10.20642
 Alpha  occ. eigenvalues --  -10.20584 -10.19982 -10.19682 -10.19597 -10.19343
 Alpha  occ. eigenvalues --  -10.19013 -10.18774 -10.18680 -10.18424 -10.18357
 Alpha  occ. eigenvalues --  -10.18122 -10.17663 -10.17510  -1.09061  -1.08312
 Alpha  occ. eigenvalues --   -1.02508  -1.01963  -1.00410  -0.99487  -0.98144
 Alpha  occ. eigenvalues --   -0.96613  -0.94658  -0.91718  -0.83258  -0.82082
 Alpha  occ. eigenvalues --   -0.81916  -0.80882  -0.79714  -0.79255  -0.78114
 Alpha  occ. eigenvalues --   -0.76979  -0.76337  -0.75656  -0.74506  -0.73314
 Alpha  occ. eigenvalues --   -0.71862  -0.70044  -0.69647  -0.68662  -0.68099
 Alpha  occ. eigenvalues --   -0.67613  -0.65471  -0.63949  -0.62751  -0.61718
 Alpha  occ. eigenvalues --   -0.60477  -0.60442  -0.58922  -0.57196  -0.56771
 Alpha  occ. eigenvalues --   -0.56297  -0.55820  -0.55578  -0.53701  -0.53295
 Alpha  occ. eigenvalues --   -0.52294  -0.51787  -0.51187  -0.50815  -0.49922
 Alpha  occ. eigenvalues --   -0.49598  -0.48302  -0.47946  -0.47692  -0.47112
 Alpha  occ. eigenvalues --   -0.46650  -0.46465  -0.46087  -0.45899  -0.45102
 Alpha  occ. eigenvalues --   -0.44824  -0.44365  -0.44056  -0.43619  -0.43410
 Alpha  occ. eigenvalues --   -0.43394  -0.42885  -0.42805  -0.42431  -0.42180
 Alpha  occ. eigenvalues --   -0.41637  -0.41308  -0.41099  -0.41033  -0.40745
 Alpha  occ. eigenvalues --   -0.40489  -0.40161  -0.39842  -0.39728  -0.39569
 Alpha  occ. eigenvalues --   -0.38950  -0.38885  -0.38770  -0.38372  -0.38328
 Alpha  occ. eigenvalues --   -0.37670  -0.37116  -0.36963  -0.36528  -0.36038
 Alpha  occ. eigenvalues --   -0.35764  -0.35582  -0.35530  -0.35258  -0.35073
 Alpha  occ. eigenvalues --   -0.34795  -0.34568  -0.34202  -0.33847  -0.33441
 Alpha  occ. eigenvalues --   -0.33011  -0.31824  -0.31054  -0.29820  -0.29363
 Alpha  occ. eigenvalues --   -0.27427  -0.27230  -0.26715  -0.25657  -0.25373
 Alpha  occ. eigenvalues --   -0.24749  -0.24317  -0.23973  -0.22861  -0.21200
 Alpha  occ. eigenvalues --   -0.17015
 Alpha virt. eigenvalues --   -0.10935  -0.06374  -0.04558  -0.03073   0.00158
 Alpha virt. eigenvalues --    0.00261   0.01704   0.02191   0.02904   0.03482
 Alpha virt. eigenvalues --    0.03570   0.04051   0.04409   0.05435   0.05833

 Mulliken charges:
               1
     1  O   -0.220753
     2  O   -0.220862
     3  O   -0.245381
     4  O   -0.240741
     5  O   -0.237864
     6  O   -0.204544
     7  N   -0.015685
     8  N   -0.004552
     9  N   -0.164393
    10  N   -0.297563
    11  C   -0.037154
    12  C   -0.073473
    13  C   -0.221792
    14  C    0.107472
    15  C   -0.139200
    16  C    0.155061
    17  C   -0.073017
    18  C   -0.146927
    19  C    0.055372
    20  C   -0.116192
    21  C    0.104766
    22  C    0.157560
    23  C   -0.068657
    24  C    0.155767
    25  C   -0.100456
    26  C    0.282284
    27  C    0.112071
    28  C   -0.138270
    29  C    0.038155
    30  C    0.052584
    31  C   -0.086219
    32  C    0.142229
    33  C   -0.107675
    34  C    0.080743
    35  C   -0.069292
    36  C   -0.185278
    37  C    0.201811
    38  C    0.075913
    39  C    0.129411
    40  C    0.080793
    41  C    0.143656
    42  C   -0.026823
    43  C    0.035941
    44  H    0.123418
    45  H    0.039104
    46  H    0.040477
    47  H    0.018827
    48  H    0.049674
    49  H    0.051013
    50  H   -0.049869
    51  H    0.006750
    52  H   -0.030729
    53  H    0.006118
    54  H    0.027198
    55  H   -0.147332
    56  H    0.159125
    57  H    0.075102
    58  H    0.080980
    59  H    0.056286
    60  H    0.042392
    61  H    0.014003
    62  H    0.052300
    63  H    0.046355
    64  H   -0.062056
    65  H   -0.035990
    66  H    0.051126
    67  H    0.012618
    68  H   -0.025042
    69  H    0.078285
    70  H    0.029889
    71  H    0.001837
    72  H    0.011328
    73  H    0.031616
    74  H    0.020888
    75  H    0.030628
    76  H    0.041520
    77  H    0.042325
    78  H   -0.011198
    79  H   -0.002211
    80  H    0.211609
    81  H    0.242811
 Sum of Mulliken charges =  -0.00000

 Dipole moment (field-independent basis, Debye):
    X=             -2.0087    Y=              1.0572    Z=             -1.5446  Tot=              2.7456
 Quadrupole moment (field-independent basis, Debye-Ang):
   XX=           -252.9028   YY=           -241.6589   ZZ=           -249.9922
   XY=             18.7448   XZ=             19.5999   YZ=            -11.6425

 Normal termination of Gaussian 16 at Fri Jun 28 21:04:20 2019.
