 Gaussian 16, Revision A.03,
 Gaussian 16:  ES64L-G16RevA.03 25-Dec-2016

 --------------------------
 # td=(NStates=1) B3LYP/SVP
 --------------------------

 --
 TD
 --
 Symbolic Z-matrix:
 Charge =  0 Multiplicity = 1

                         Standard orientation:
 ---------------------------------------------------------------------
 Center     Atomic      Atomic             Coordinates (Angstroms)
 Number     Number       Type             X           Y           Z
 ---------------------------------------------------------------------
      1          8           0       -4.174471   -4.821956    1.930173
      2          8           0        2.972027   -4.819348    1.080347
      3          8           0        7.069878   -1.376710    1.935522
      4          8           0        4.015236   -3.206659   -0.120051
      5          8           0        7.643268   -0.340137    0.052816
      6          8           0       -3.058533    2.205832   -0.469548
      7          7           0       -0.324333   -0.446975   -0.654092
      8          7           0        1.510586    1.821743   -0.428868
      9          7           0       -3.184669   -3.079799    0.661822
     10          7           0       -0.860792    2.740846   -0.114164
     11          6           0        0.665700   -2.359126   -1.446252
     12          6           0        0.928476   -0.984805   -1.091638
     13          6           0       -0.692896   -2.536619   -1.191403
     14          6           0       -1.247456   -1.388631   -0.670906
     15          6           0        3.717327    1.593104   -0.300649
     16          6           0        2.465948    0.971617   -0.560699
     17          6           0        2.251931   -0.282175   -0.964735
     18          6           0        3.466414    2.846343    0.203265
     19          6           0        1.612237   -3.320713   -2.005368
     20          6           0       -5.516729   -2.744637    1.280590
     21          6           0       -3.602295   -1.859112    0.183667
     22          6           0        1.999834    3.106214    0.030860
     23          6           0       -4.970178   -1.644092    0.335204
     24          6           0        5.028759    0.808161   -0.395028
     25          6           0       -2.571712   -0.984911   -0.351276
     26          6           0       -1.337029   -3.808261   -1.560129
     27          6           0       -4.249365   -3.738034    1.334857
     28          6           0        2.070755   -4.399035   -1.083927
     29          6           0        5.390344   -0.133085    0.732936
     30          6           0        4.544976    3.872436    0.568575
     31          6           0        1.139791    4.077582    0.347867
     32          6           0       -6.804782   -3.389316    0.989581
     33          6           0       -5.832336   -0.647629    0.061590
     34          6           0       -0.247578    3.961699    0.225671
     35          6           0       -1.173853    5.070189    0.505099
     36          6           0       -2.436001    4.479803    0.296413
     37          6           0        3.100243   -3.914074   -0.056756
     38          6           0       -5.400369    0.467781   -0.782300
     39          6           0        6.869515   -0.556619    0.802728
     40          6           0       -3.745045    5.122751    0.395514
     41          6           0       -2.241298    3.028292   -0.129174
     42          6           0       -0.797256    6.424137    0.790373
     43          6           0       -4.407933    5.355585   -1.002155
     44          1           0       -0.068931    0.492971   -0.254855
     45          1           0        3.165386   -1.002599   -1.060117
     46          1           0        2.638884   -2.757693   -2.374719
     47          1           0        1.257436   -3.900474   -2.954646
     48          1           0       -5.394079   -2.476413    2.334583
     49          1           0        5.199580    0.064027   -1.273486
     50          1           0        5.841483    1.405567   -0.407648
     51          1           0       -2.885193    0.053034   -0.385218
     52          1           0        0.423420    1.843771   -0.357082
     53          1           0       -1.493489   -4.522496   -0.638824
     54          1           0       -2.544079   -3.795861   -1.773504
     55          1           0       -0.866678   -4.393427   -2.428074
     56          1           0       -2.269521   -3.571445    0.569157
     57          1           0        1.233327   -4.961577   -0.569341
     58          1           0        2.679411   -5.103344   -1.792577
     59          1           0        4.483874   -0.771961    0.777229
     60          1           0        5.113376    0.425492    1.791529
     61          1           0        4.393049    4.607936   -0.270523
     62          1           0        5.727633    3.678268    0.405319
     63          1           0        4.381074    4.328685    1.533529
     64          1           0        1.651574    4.978240    0.629407
     65          1           0       -7.784451   -2.643143    1.029821
     66          1           0       -6.926328   -4.381068    1.590449
     67          1           0       -6.711734   -3.653074   -0.105455
     68          1           0       -6.768932   -0.543813    0.784483
     69          1           0       -4.845255    1.254452   -0.109089
     70          1           0       -6.229003    1.035150   -1.373005
     71          1           0       -4.475217    0.178425   -1.428493
     72          1           0       -3.725492    5.996979    0.936601
     73          1           0       -4.384711    4.461522    0.813908
     74          1           0       -0.171319    6.562647    1.785725
     75          1           0       -1.844223    6.986127    0.722723
     76          1           0       -0.143087    6.837399    0.106991
     77          1           0       -3.901097    6.123658   -1.665974
     78          1           0       -5.348438    5.706143   -1.178770
     79          1           0       -4.569910    4.560737   -1.716018
     80          1           0        3.614643   -4.651916    1.887396
     81          1           0        7.953396   -1.798707    1.937233
 ---------------------------------------------------------------------

 SCF Done:  E(RB3LYP) =  -1949.04973526     A.U. after   16 cycles

 Excitation energies and oscillator strengths:

 Excited State   1:      Singlet-A      1.4792 eV  838.20 nm  f=0.2355  <S**2>=0.000
     156 ->157         0.71086
     156 <-157        -0.12842
 This state for optimization and/or second-order correction.
 Total Energy, E(TD-HF/TD-DFT) =  -1948.99537649
 Copying the excited state density for this state as the 1-particle RhoCI density.

 The electronic state is 1-A.
 Alpha  occ. eigenvalues --  -19.16079 -19.15956 -19.15290 -19.14399 -19.11200
 Alpha  occ. eigenvalues --  -19.11124 -14.37320 -14.37216 -14.35265 -14.29890
 Alpha  occ. eigenvalues --  -10.33063 -10.32068 -10.29342 -10.27486 -10.24536
 Alpha  occ. eigenvalues --  -10.24532 -10.23549 -10.23428 -10.23273 -10.22562
 Alpha  occ. eigenvalues --  -10.22268 -10.22217 -10.21936 -10.21735 -10.21672
 Alpha  occ. eigenvalues --  -10.21467 -10.20907 -10.20731 -10.20658 -10.20625
 Alpha  occ. eigenvalues --  -10.20581 -10.20301 -10.20168 -10.20162 -10.19851
 Alpha  occ. eigenvalues --  -10.19703 -10.19325 -10.19190 -10.19132 -10.18634
 Alpha  occ. eigenvalues --  -10.18364 -10.18283 -10.17371  -1.13162  -1.10061
 Alpha  occ. eigenvalues --   -1.02849  -1.01906  -1.01161  -0.99348  -0.98475
 Alpha  occ. eigenvalues --   -0.98171  -0.94980  -0.91010  -0.83224  -0.82316
 Alpha  occ. eigenvalues --   -0.82114  -0.81954  -0.80715  -0.79212  -0.77778
 Alpha  occ. eigenvalues --   -0.77494  -0.76993  -0.76022  -0.74299  -0.72130
 Alpha  occ. eigenvalues --   -0.71128  -0.69707  -0.69542  -0.68158  -0.67123
 Alpha  occ. eigenvalues --   -0.66492  -0.65937  -0.64100  -0.63429  -0.62078
 Alpha  occ. eigenvalues --   -0.59887  -0.59447  -0.58290  -0.57766  -0.56748
 Alpha  occ. eigenvalues --   -0.56476  -0.55787  -0.54137  -0.53827  -0.53739
 Alpha  occ. eigenvalues --   -0.52802  -0.52141  -0.51608  -0.51012  -0.49442
 Alpha  occ. eigenvalues --   -0.49304  -0.48798  -0.48640  -0.48079  -0.47730
 Alpha  occ. eigenvalues --   -0.47328  -0.47122  -0.46299  -0.45937  -0.45676
 Alpha  occ. eigenvalues --   -0.45177  -0.44711  -0.44581  -0.44186  -0.43781
 Alpha  occ. eigenvalues --   -0.43462  -0.43163  -0.42802  -0.42620  -0.42454
 Alpha  occ. eigenvalues --   -0.42117  -0.41871  -0.41656  -0.41256  -0.40855
 Alpha  occ. eigenvalues --   -0.40747  -0.40441  -0.40309  -0.40008  -0.39906
 Alpha  occ. eigenvalues --   -0.39347  -0.38677  -0.38314  -0.38171  -0.38013
 Alpha  occ. eigenvalues --   -0.37800  -0.37542  -0.36918  -0.36652  -0.36194
 Alpha  occ. eigenvalues --   -0.36037  -0.35774  -0.35105  -0.35027  -0.34529
 Alpha  occ. eigenvalues --   -0.34302  -0.34118  -0.33529  -0.33392  -0.33234
 Alpha  occ. eigenvalues --   -0.32732  -0.32194  -0.31770  -0.30047  -0.29544
 Alpha  occ. eigenvalues --   -0.29469  -0.29249  -0.26565  -0.25928  -0.25778
 Alpha  occ. eigenvalues --   -0.25412  -0.25049  -0.24591  -0.23118  -0.21592
 Alpha  occ. eigenvalues --   -0.17285
 Alpha virt. eigenvalues --   -0.11190  -0.06373  -0.04728  -0.01697   0.00122
 Alpha virt. eigenvalues --    0.01137   0.02023   0.02936   0.03356   0.03823
 Alpha virt. eigenvalues --    0.03988   0.04769   0.05218   0.05609   0.05809

 Mulliken charges:
               1
     1  O   -0.233374
     2  O   -0.326760
     3  O   -0.263631
     4  O   -0.137242
     5  O   -0.081172
     6  O   -0.191909
     7  N   -0.049407
     8  N   -0.142097
     9  N   -0.142834
    10  N   -0.357298
    11  C   -0.028940
    12  C   -0.032212
    13  C   -0.113314
    14  C    0.140735
    15  C   -0.047517
    16  C    0.093238
    17  C   -0.090666
    18  C   -0.103977
    19  C   -0.023649
    20  C   -0.067926
    21  C    0.083583
    22  C    0.077543
    23  C   -0.008520
    24  C    0.133704
    25  C   -0.114414
    26  C   -0.039095
    27  C    0.117563
    28  C   -0.000257
    29  C   -0.102676
    30  C    0.015589
    31  C   -0.110669
    32  C   -0.003435
    33  C   -0.132091
    34  C    0.134545
    35  C   -0.083130
    36  C   -0.217759
    37  C    0.147432
    38  C   -0.031555
    39  C    0.162697
    40  C    0.238239
    41  C    0.199011
    42  C    0.094241
    43  C   -0.005789
    44  H    0.134582
    45  H    0.041624
    46  H    0.037595
    47  H    0.030735
    48  H    0.037256
    49  H    0.030616
    50  H   -0.049988
    51  H   -0.000408
    52  H    0.178516
    53  H    0.023427
    54  H    0.042022
    55  H    0.041173
    56  H    0.150800
    57  H    0.054692
    58  H    0.062050
    59  H    0.034506
    60  H    0.029765
    61  H    0.038450
    62  H    0.052520
    63  H    0.028787
    64  H   -0.046344
    65  H    0.039553
    66  H    0.056158
    67  H    0.016586
    68  H    0.038528
    69  H    0.081614
    70  H    0.025021
    71  H    0.051907
    72  H   -0.024077
    73  H   -0.023815
    74  H    0.037683
    75  H    0.039579
    76  H    0.003992
    77  H   -0.010536
    78  H   -0.032814
    79  H    0.006030
    80  H    0.210776
    81  H    0.176634
 Sum of Mulliken charges =  -0.00000

 Dipole moment (field-independent basis, Debye):
    X=              2.5488    Y=              3.0714    Z=              0.3239  Tot=              4.0043
 Quadrupole moment (field-independent basis, Debye-Ang):
   XX=           -247.6388   YY=           -239.4600   ZZ=           -257.0139
   XY=            -16.6110   XZ=             10.0328   YZ=             16.6054

 Normal termination of Gaussian 16 at Sun Jun 30 16:33:26 2019.
