 Gaussian 16, Revision A.03,
 Gaussian 16:  ES64L-G16RevA.03 25-Dec-2016

 --------------------------
 # td=(NStates=1) B3LYP/SVP
 --------------------------

 --
 TD
 --
 Symbolic Z-matrix:
 Charge =  0 Multiplicity = 1

                         Standard orientation:
 ---------------------------------------------------------------------
 Center     Atomic      Atomic             Coordinates (Angstroms)
 Number     Number       Type             X           Y           Z
 ---------------------------------------------------------------------
      1          8           0        4.305862   -5.138360   -1.421138
      2          8           0       -3.347721   -4.672321   -1.255050
      3          8           0       -7.015554   -1.395348   -1.801601
      4          8           0       -3.995857   -2.962463    0.067566
      5          8           0       -7.636190   -0.382009    0.082194
      6          8           0        3.038397    2.369093    0.274928
      7          7           0        0.255339   -0.544667    0.561340
      8          7           0       -1.409551    1.875945    0.459719
      9          7           0        3.320176   -3.238318   -0.618818
     10          7           0        0.874800    2.992959   -0.031360
     11          6           0       -0.648654   -2.414037    1.347678
     12          6           0       -0.870096   -1.192939    0.908156
     13          6           0        0.740213   -2.592990    1.146719
     14          6           0        1.276754   -1.455352    0.639879
     15          6           0       -3.734344    1.534574    0.345740
     16          6           0       -2.382164    0.850159    0.684054
     17          6           0       -2.169153   -0.474416    0.903279
     18          6           0       -3.500037    2.820650   -0.007106
     19          6           0       -1.605224   -3.459542    1.888175
     20          6           0        5.483759   -2.886410   -1.339847
     21          6           0        3.536639   -1.913554   -0.260157
     22          6           0       -1.991441    3.038142   -0.019485
     23          6           0        4.941695   -1.612331   -0.562302
     24          6           0       -5.038941    0.795413    0.399087
     25          6           0        2.641534   -1.123507    0.434190
     26          6           0        1.419797   -3.931362    1.588429
     27          6           0        4.325918   -3.955602   -1.127305
     28          6           0       -2.235902   -4.461001    0.916891
     29          6           0       -5.384547   -0.147244   -0.932026
     30          6           0       -4.525462    3.909284   -0.404800
     31          6           0       -1.193612    4.073354   -0.348099
     32          6           0        6.894334   -3.476718   -0.797276
     33          6           0        5.793359   -0.627069   -0.156922
     34          6           0        0.213013    4.151785   -0.215183
     35          6           0        1.102776    5.189874   -0.408633
     36          6           0        2.433266    4.650845   -0.309051
     37          6           0       -3.298055   -3.997928   -0.055694
     38          6           0        5.502141    0.656225    0.607925
     39          6           0       -6.798671   -0.601574   -0.844594
     40          6           0        3.713435    5.281649   -0.378791
     41          6           0        2.175432    3.200850   -0.037168
     42          6           0        0.707066    6.585928   -0.679329
     43          6           0        4.338747    5.650084    1.002958
     44          1           0        0.366949    0.359453    0.091973
     45          1           0       -3.108056   -1.140351    1.110280
     46          1           0       -2.663788   -3.009522    2.537284
     47          1           0       -1.132150   -4.035600    2.767164
     48          1           0        5.642921   -2.738157   -2.320275
     49          1           0       -4.947225    0.199129    1.318481
     50          1           0       -5.795243    1.514513    0.756006
     51          1           0        3.017367   -0.083813    0.618623
     52          1           0       -0.358598    2.060542    0.620030
     53          1           0        1.106213   -4.844398    1.271354
     54          1           0        2.550927   -3.629558    1.566278
     55          1           0        1.293725   -4.176903    2.806861
     56          1           0        2.456468   -3.614936   -0.405495
     57          1           0       -1.363057   -5.030430    0.267572
     58          1           0       -2.646498   -5.438776    1.472251
     59          1           0       -4.837254   -1.031636   -0.778591
     60          1           0       -5.219945    0.532293   -1.756759
     61          1           0       -4.198912    4.804331    0.259645
     62          1           0       -5.390951    3.450854    0.017857
     63          1           0       -4.445563    4.386393   -1.399914
     64          1           0       -1.655180    5.062142   -0.567540
     65          1           0        7.660193   -2.827074   -1.301423
     66          1           0        6.660989   -4.507223   -1.272881
     67          1           0        6.823329   -3.625910    0.233652
     68          1           0        6.705876   -1.030264   -0.355028
     69          1           0        5.155180    1.586063    0.168991
     70          1           0        6.397207    0.946284    1.023842
     71          1           0        4.880269    0.341599    1.438438
     72          1           0        3.693844    6.317627   -1.067324
     73          1           0        4.447126    4.462397   -0.746671
     74          1           0        0.332113    6.651839   -1.599211
     75          1           0        1.666335    7.215715   -0.724505
     76          1           0       -0.031088    7.019713    0.037124
     77          1           0        3.743468    6.558435    1.468622
     78          1           0        5.371852    5.927294    0.814364
     79          1           0        4.211809    4.827814    1.689792
     80          1           0       -3.757758   -4.224505   -2.050031
     81          1           0       -7.891197   -1.776970   -1.758539
 ---------------------------------------------------------------------

 SCF Done:  E(RB3LYP) =  -1949.09557395     A.U. after   16 cycles

 Excitation energies and oscillator strengths:

 Excited State   1:      Singlet-A      1.6121 eV  769.10 nm  f=0.1630  <S**2>=0.000
     156 ->157         0.70295
 This state for optimization and/or second-order correction.
 Total Energy, E(TD-HF/TD-DFT) =  -1949.03633166
 Copying the excited state density for this state as the 1-particle RhoCI density.

 The electronic state is 1-A.
 Alpha  occ. eigenvalues --  -19.20021 -19.19189 -19.14518 -19.11360 -19.10488
 Alpha  occ. eigenvalues --  -19.10283 -14.36954 -14.36149 -14.35923 -14.28203
 Alpha  occ. eigenvalues --  -10.34898 -10.31938 -10.28412 -10.25998 -10.24870
 Alpha  occ. eigenvalues --  -10.24610 -10.24217 -10.23811 -10.23444 -10.22966
 Alpha  occ. eigenvalues --  -10.22044 -10.21964 -10.21432 -10.21382 -10.21240
 Alpha  occ. eigenvalues --  -10.20920 -10.20897 -10.20781 -10.20732 -10.20407
 Alpha  occ. eigenvalues --  -10.19845 -10.19785 -10.19436 -10.19281 -10.19185
 Alpha  occ. eigenvalues --  -10.19100 -10.19078 -10.18719 -10.18696 -10.18465
 Alpha  occ. eigenvalues --  -10.18431 -10.18294 -10.16410  -1.13405  -1.08861
 Alpha  occ. eigenvalues --   -1.03076  -1.01250  -0.99922  -0.99637  -0.97877
 Alpha  occ. eigenvalues --   -0.96150  -0.95595  -0.93244  -0.82100  -0.81806
 Alpha  occ. eigenvalues --   -0.80819  -0.80363  -0.80212  -0.78950  -0.77676
 Alpha  occ. eigenvalues --   -0.77631  -0.76829  -0.75327  -0.74046  -0.72682
 Alpha  occ. eigenvalues --   -0.71368  -0.69470  -0.69219  -0.68810  -0.68319
 Alpha  occ. eigenvalues --   -0.67787  -0.66598  -0.65184  -0.63232  -0.62876
 Alpha  occ. eigenvalues --   -0.61702  -0.61303  -0.59041  -0.58289  -0.56465
 Alpha  occ. eigenvalues --   -0.56248  -0.55626  -0.55089  -0.53505  -0.52964
 Alpha  occ. eigenvalues --   -0.52342  -0.51677  -0.51302  -0.50315  -0.49566
 Alpha  occ. eigenvalues --   -0.48941  -0.48487  -0.48271  -0.47908  -0.47821
 Alpha  occ. eigenvalues --   -0.47592  -0.47278  -0.45921  -0.45681  -0.45422
 Alpha  occ. eigenvalues --   -0.45188  -0.44574  -0.44476  -0.43789  -0.43657
 Alpha  occ. eigenvalues --   -0.43341  -0.43108  -0.42993  -0.42771  -0.41981
 Alpha  occ. eigenvalues --   -0.41804  -0.41722  -0.41250  -0.41173  -0.40953
 Alpha  occ. eigenvalues --   -0.40462  -0.40255  -0.39804  -0.39591  -0.39320
 Alpha  occ. eigenvalues --   -0.38971  -0.38860  -0.38315  -0.38247  -0.37843
 Alpha  occ. eigenvalues --   -0.37822  -0.37571  -0.37525  -0.37105  -0.36029
 Alpha  occ. eigenvalues --   -0.35897  -0.35772  -0.35301  -0.34891  -0.34495
 Alpha  occ. eigenvalues --   -0.34232  -0.33841  -0.33655  -0.33206  -0.33095
 Alpha  occ. eigenvalues --   -0.32630  -0.31450  -0.31303  -0.29836  -0.29383
 Alpha  occ. eigenvalues --   -0.27468  -0.27066  -0.26253  -0.25803  -0.25614
 Alpha  occ. eigenvalues --   -0.25431  -0.24570  -0.24463  -0.22537  -0.21619
 Alpha  occ. eigenvalues --   -0.18233
 Alpha virt. eigenvalues --   -0.11280  -0.05739  -0.03978  -0.03635   0.00511
 Alpha virt. eigenvalues --    0.01265   0.01844   0.02777   0.03054   0.03279
 Alpha virt. eigenvalues --    0.04183   0.04559   0.04738   0.05299   0.05685

 Mulliken charges:
               1
     1  O   -0.226426
     2  O   -0.231195
     3  O   -0.087022
     4  O   -0.250259
     5  O   -0.295538
     6  O   -0.222458
     7  N   -0.033199
     8  N   -0.175471
     9  N   -0.034075
    10  N   -0.264998
    11  C   -0.030146
    12  C    0.010977
    13  C   -0.148532
    14  C    0.059382
    15  C   -0.125519
    16  C    0.140117
    17  C   -0.093795
    18  C   -0.126823
    19  C    0.017286
    20  C   -0.118306
    21  C    0.057774
    22  C    0.105865
    23  C   -0.031347
    24  C    0.052956
    25  C   -0.130765
    26  C    0.021048
    27  C    0.127076
    28  C   -0.067906
    29  C    0.077215
    30  C    0.125249
    31  C   -0.105750
    32  C    0.019127
    33  C   -0.086163
    34  C    0.068359
    35  C   -0.126824
    36  C   -0.131917
    37  C    0.200215
    38  C    0.149430
    39  C    0.096684
    40  C   -0.040479
    41  C    0.122827
    42  C    0.154706
    43  C    0.005481
    44  H    0.143423
    45  H    0.050378
    46  H    0.042468
    47  H    0.023468
    48  H    0.006564
    49  H    0.011846
    50  H    0.017672
    51  H    0.028984
    52  H    0.170114
    53  H    0.009377
    54  H    0.055797
    55  H    0.024599
    56  H    0.094143
    57  H    0.061483
    58  H    0.068856
    59  H    0.039772
    60  H    0.045061
    61  H    0.020609
    62  H    0.013206
    63  H    0.040205
    64  H   -0.030489
    65  H    0.050947
    66  H    0.048913
    67  H    0.007053
    68  H   -0.060869
    69  H    0.056203
    70  H   -0.036041
    71  H    0.020520
    72  H    0.033311
    73  H    0.033630
    74  H   -0.015899
    75  H    0.010615
    76  H    0.028948
    77  H    0.017415
    78  H    0.023261
    79  H    0.025433
    80  H    0.217683
    81  H    0.174478
 Sum of Mulliken charges =  -0.00000

 Dipole moment (field-independent basis, Debye):
    X=             -3.5247    Y=              2.0590    Z=             -1.5993  Tot=              4.3842
 Quadrupole moment (field-independent basis, Debye-Ang):
   XX=           -260.0258   YY=           -238.8685   ZZ=           -250.0401
   XY=             25.2863   XZ=             20.6244   YZ=            -10.5722

 Normal termination of Gaussian 16 at Tue Jul  2 23:38:59 2019.
