 Gaussian 16, Revision A.03,
 Gaussian 16:  ES64L-G16RevA.03 25-Dec-2016

 --------------------------
 # td=(NStates=1) B3LYP/SVP
 --------------------------

 --
 TD
 --
 Symbolic Z-matrix:
 Charge =  0 Multiplicity = 1

                         Standard orientation:
 ---------------------------------------------------------------------
 Center     Atomic      Atomic             Coordinates (Angstroms)
 Number     Number       Type             X           Y           Z
 ---------------------------------------------------------------------
      1          8           0        4.255704   -4.932242   -1.883289
      2          8           0       -2.735842   -4.785993   -1.047360
      3          8           0       -7.045510   -1.700944   -1.937462
      4          8           0       -3.881570   -3.076229    0.085033
      5          8           0       -7.578410   -0.513372   -0.043879
      6          8           0        3.140824    2.475929    0.460538
      7          7           0        0.227167   -0.522935    0.704362
      8          7           0       -1.564168    1.874394    0.409681
      9          7           0        3.274162   -3.301705   -0.634809
     10          7           0        0.869475    2.925006    0.033387
     11          6           0       -0.648800   -2.297871    1.422717
     12          6           0       -0.949841   -1.035032    1.085088
     13          6           0        0.682643   -2.640334    1.310798
     14          6           0        1.215924   -1.403642    0.796176
     15          6           0       -3.753777    1.587719    0.206787
     16          6           0       -2.485208    0.913352    0.606872
     17          6           0       -2.226651   -0.425362    0.920424
     18          6           0       -3.422105    2.814631   -0.160303
     19          6           0       -1.726217   -3.201581    2.067767
     20          6           0        5.471822   -2.767918   -1.435841
     21          6           0        3.468191   -1.918055   -0.120266
     22          6           0       -2.052577    3.091089    0.030740
     23          6           0        4.884636   -1.716792   -0.572698
     24          6           0       -5.087489    0.886108    0.200196
     25          6           0        2.561613   -1.061570    0.401940
     26          6           0        1.381568   -3.886992    1.903959
     27          6           0        4.268807   -3.785071   -1.412218
     28          6           0       -2.140610   -4.443292    1.236910
     29          6           0       -5.376746   -0.122016   -0.932263
     30          6           0       -4.410687    3.949848   -0.660173
     31          6           0       -1.234856    4.163424   -0.300716
     32          6           0        6.737083   -3.539482   -0.980016
     33          6           0        5.718304   -0.669000   -0.164168
     34          6           0        0.232374    4.044409   -0.240887
     35          6           0        1.101973    5.142868   -0.433635
     36          6           0        2.334584    4.624995   -0.324087
     37          6           0       -3.057975   -3.922171    0.071200
     38          6           0        5.309418    0.451363    0.722547
     39          6           0       -6.774509   -0.804726   -0.871094
     40          6           0        3.781271    5.289918   -0.392064
     41          6           0        2.182789    3.210522    0.067340
     42          6           0        0.688802    6.615240   -0.532349
     43          6           0        4.361841    5.532951    0.997921
     44          1           0        0.391446    0.390705    0.190475
     45          1           0       -3.098807   -1.101421    0.889032
     46          1           0       -2.579215   -2.578063    2.460591
     47          1           0       -1.080066   -3.577520    2.893099
     48          1           0        5.544132   -2.395340   -2.495707
     49          1           0       -5.178798    0.436989    1.358864
     50          1           0       -5.891889    1.674417    0.142771
     51          1           0        2.940360   -0.131649    0.565985
     52          1           0       -0.544172    1.910502    0.495644
     53          1           0        1.393542   -4.675091    1.216935
     54          1           0        2.590025   -3.554277    1.983999
     55          1           0        0.852056   -4.466098    2.775569
     56          1           0        2.443716   -3.829654   -0.549378
     57          1           0       -1.148717   -4.888612    0.712198
     58          1           0       -2.840914   -5.272828    1.697369
     59          1           0       -4.637445   -0.989669   -1.147680
     60          1           0       -5.284422    0.260740   -1.925178
     61          1           0       -4.207483    4.848106   -0.183951
     62          1           0       -5.508596    3.740579   -0.658450
     63          1           0       -3.979396    4.168851   -1.675824
     64          1           0       -1.491647    5.273513   -0.434057
     65          1           0        7.469686   -2.990040   -1.115242
     66          1           0        6.851771   -4.511352   -1.662779
     67          1           0        6.782181   -4.016118    0.034342
     68          1           0        6.705910   -0.618064   -0.806426
     69          1           0        4.766077    1.165724    0.065839
     70          1           0        6.328890    0.856563    1.053269
     71          1           0        4.936914    0.234615    1.592545
     72          1           0        3.636493    6.289995   -0.940230
     73          1           0        4.537721    4.688819   -0.844489
     74          1           0        0.037439    6.724935   -1.469283
     75          1           0        1.480754    7.148015   -0.685468
     76          1           0        0.210587    7.199828    0.302662
     77          1           0        3.540261    6.057338    1.588765
     78          1           0        5.267338    6.076151    1.120427
     79          1           0        4.775250    4.391605    1.244019
     80          1           0       -3.282115   -4.385783   -1.735245
     81          1           0       -7.830457   -2.182101   -1.811613
 ---------------------------------------------------------------------

 SCF Done:  E(RB3LYP) =  -1949.09254259     A.U. after   17 cycles

 Excitation energies and oscillator strengths:

 Excited State   1:      Singlet-A      1.7541 eV  706.84 nm  f=0.2754  <S**2>=0.000
     156 ->157         0.70661
     156 <-157        -0.11780
 This state for optimization and/or second-order correction.
 Total Energy, E(TD-HF/TD-DFT) =  -1949.02808159
 Copying the excited state density for this state as the 1-particle RhoCI density.

 The electronic state is 1-A.
 Alpha  occ. eigenvalues --  -19.18309 -19.17192 -19.16722 -19.13446 -19.10624
 Alpha  occ. eigenvalues --  -19.09551 -14.38513 -14.36647 -14.36561 -14.29376
 Alpha  occ. eigenvalues --  -10.34051 -10.32745 -10.28134 -10.26581 -10.25341
 Alpha  occ. eigenvalues --  -10.24586 -10.24110 -10.24100 -10.23707 -10.23402
 Alpha  occ. eigenvalues --  -10.22608 -10.22335 -10.22235 -10.22168 -10.21793
 Alpha  occ. eigenvalues --  -10.21195 -10.20813 -10.20722 -10.20563 -10.20460
 Alpha  occ. eigenvalues --  -10.20219 -10.20103 -10.20087 -10.19860 -10.19779
 Alpha  occ. eigenvalues --  -10.19598 -10.19559 -10.19395 -10.19134 -10.19048
 Alpha  occ. eigenvalues --  -10.18510 -10.17878 -10.16693  -1.10553  -1.08582
 Alpha  occ. eigenvalues --   -1.02460  -1.01567  -1.01439  -1.01221  -1.00406
 Alpha  occ. eigenvalues --   -0.99745  -0.93987  -0.93131  -0.82850  -0.82270
 Alpha  occ. eigenvalues --   -0.81953  -0.81314  -0.79846  -0.79694  -0.77275
 Alpha  occ. eigenvalues --   -0.77156  -0.76794  -0.75379  -0.74764  -0.72654
 Alpha  occ. eigenvalues --   -0.71324  -0.70126  -0.70038  -0.68977  -0.68416
 Alpha  occ. eigenvalues --   -0.67565  -0.66708  -0.64394  -0.62920  -0.61165
 Alpha  occ. eigenvalues --   -0.60592  -0.59659  -0.58653  -0.58254  -0.57881
 Alpha  occ. eigenvalues --   -0.56705  -0.56165  -0.54619  -0.54166  -0.53722
 Alpha  occ. eigenvalues --   -0.52969  -0.51884  -0.51283  -0.50403  -0.50000
 Alpha  occ. eigenvalues --   -0.49643  -0.48806  -0.48077  -0.47761  -0.47622
 Alpha  occ. eigenvalues --   -0.47335  -0.46931  -0.46017  -0.45817  -0.45629
 Alpha  occ. eigenvalues --   -0.45233  -0.44865  -0.44610  -0.44373  -0.43821
 Alpha  occ. eigenvalues --   -0.43590  -0.43164  -0.43032  -0.42620  -0.42417
 Alpha  occ. eigenvalues --   -0.42191  -0.41820  -0.41417  -0.41256  -0.41160
 Alpha  occ. eigenvalues --   -0.40908  -0.40637  -0.40415  -0.40302  -0.40185
 Alpha  occ. eigenvalues --   -0.40014  -0.39669  -0.38983  -0.38710  -0.38587
 Alpha  occ. eigenvalues --   -0.38433  -0.38057  -0.37905  -0.37353  -0.36753
 Alpha  occ. eigenvalues --   -0.36471  -0.36201  -0.35543  -0.35256  -0.34401
 Alpha  occ. eigenvalues --   -0.34159  -0.33965  -0.33756  -0.33501  -0.33164
 Alpha  occ. eigenvalues --   -0.32764  -0.32745  -0.31066  -0.30519  -0.30364
 Alpha  occ. eigenvalues --   -0.28557  -0.28446  -0.26778  -0.26523  -0.25870
 Alpha  occ. eigenvalues --   -0.24948  -0.24593  -0.24446  -0.24167  -0.22528
 Alpha  occ. eigenvalues --   -0.18474
 Alpha virt. eigenvalues --   -0.11412  -0.06296  -0.04282  -0.01821   0.00253
 Alpha virt. eigenvalues --    0.00678   0.02373   0.03100   0.03828   0.04189
 Alpha virt. eigenvalues --    0.04618   0.05229   0.05478   0.06003   0.06317

 Mulliken charges:
               1
     1  O   -0.252131
     2  O   -0.238438
     3  O   -0.227705
     4  O   -0.171373
     5  O   -0.188399
     6  O   -0.261905
     7  N   -0.017635
     8  N   -0.058100
     9  N   -0.129707
    10  N   -0.240530
    11  C   -0.140497
    12  C    0.063672
    13  C   -0.120209
    14  C    0.031967
    15  C   -0.085991
    16  C    0.052038
    17  C   -0.079432
    18  C   -0.134734
    19  C    0.082336
    20  C   -0.057302
    21  C    0.139300
    22  C    0.122428
    23  C   -0.081423
    24  C    0.067136
    25  C   -0.037751
    26  C    0.041069
    27  C    0.097323
    28  C   -0.043712
    29  C    0.001141
    30  C    0.131770
    31  C   -0.118918
    32  C    0.134099
    33  C   -0.188420
    34  C   -0.004494
    35  C   -0.111734
    36  C   -0.157313
    37  C    0.146977
    38  C    0.145700
    39  C    0.151476
    40  C    0.093290
    41  C    0.145085
    42  C    0.157376
    43  C   -0.059562
    44  H    0.154494
    45  H    0.026201
    46  H    0.030803
    47  H    0.012935
    48  H    0.044017
    49  H    0.056578
    50  H    0.017696
    51  H   -0.052455
    52  H    0.122825
    53  H    0.006436
    54  H    0.066520
    55  H    0.041219
    56  H    0.108252
    57  H    0.068463
    58  H    0.074101
    59  H    0.042799
    60  H    0.015971
    61  H   -0.004407
    62  H    0.034112
    63  H    0.015896
    64  H    0.006514
    65  H   -0.062367
    66  H    0.039818
    67  H    0.020518
    68  H    0.019321
    69  H    0.092051
    70  H   -0.000717
    71  H   -0.015631
    72  H    0.004678
    73  H    0.001680
    74  H    0.025534
    75  H   -0.060548
    76  H    0.039568
    77  H    0.023680
    78  H    0.005485
    79  H    0.052465
    80  H    0.165588
    81  H    0.163141
 Sum of Mulliken charges =  -0.00000

 Dipole moment (field-independent basis, Debye):
    X=             -2.7435    Y=              2.2510    Z=             -0.1207  Tot=              3.5508
 Quadrupole moment (field-independent basis, Debye-Ang):
   XX=           -256.5739   YY=           -243.8631   ZZ=           -257.1649
   XY=             17.5230   XZ=             11.7341   YZ=            -16.2036

 Normal termination of Gaussian 16 at Sat Jun 29 22:56:51 2019.
