 Gaussian 16, Revision A.03,
 Gaussian 16:  ES64L-G16RevA.03 25-Dec-2016

 --------------------------
 # td=(NStates=1) B3LYP/SVP
 --------------------------

 --
 TD
 --
 Symbolic Z-matrix:
 Charge =  0 Multiplicity = 1

                         Standard orientation:
 ---------------------------------------------------------------------
 Center     Atomic      Atomic             Coordinates (Angstroms)
 Number     Number       Type             X           Y           Z
 ---------------------------------------------------------------------
      1          8           0        4.249592   -5.029626   -1.648300
      2          8           0       -3.278907   -4.820858   -1.076611
      3          8           0       -6.943141   -1.437064   -1.791570
      4          8           0       -4.021570   -3.092983    0.067151
      5          8           0       -7.807177    0.002645   -0.157846
      6          8           0        3.063193    2.326420    0.516755
      7          7           0        0.269702   -0.617696    0.470264
      8          7           0       -1.437411    1.968181    0.306645
      9          7           0        3.145636   -3.317564   -0.690630
     10          7           0        0.859441    2.876837    0.152983
     11          6           0       -0.835519   -2.372015    1.374334
     12          6           0       -1.054620   -1.010859    0.877199
     13          6           0        0.560049   -2.673322    1.258495
     14          6           0        1.167451   -1.460072    0.719476
     15          6           0       -3.693969    1.685543    0.317450
     16          6           0       -2.465137    0.996712    0.485237
     17          6           0       -2.285610   -0.279504    0.889544
     18          6           0       -3.441223    2.942660    0.030857
     19          6           0       -1.825594   -3.355368    1.948693
     20          6           0        5.380179   -2.921926   -1.392009
     21          6           0        3.488475   -1.942358   -0.203724
     22          6           0       -1.915459    3.047269   -0.104663
     23          6           0        4.856665   -1.702642   -0.474332
     24          6           0       -4.932220    0.996629    0.317997
     25          6           0        2.511525   -1.114838    0.303258
     26          6           0        1.378369   -3.855905    1.778990
     27          6           0        4.193381   -3.944765   -1.290483
     28          6           0       -2.378343   -4.445075    1.050511
     29          6           0       -5.317094    0.141302   -0.832034
     30          6           0       -4.311351    4.056897   -0.336065
     31          6           0       -1.082291    4.197726   -0.331793
     32          6           0        6.730364   -3.762658   -0.895451
     33          6           0        5.762830   -0.753196   -0.189170
     34          6           0        0.397853    4.017590   -0.272635
     35          6           0        1.472659    5.053916   -0.554003
     36          6           0        2.643530    4.556291   -0.230530
     37          6           0       -3.285924   -4.012445   -0.037475
     38          6           0        5.479025    0.430337    0.751193
     39          6           0       -6.779488   -0.422468   -0.803497
     40          6           0        3.932288    5.077211   -0.315206
     41          6           0        2.228483    3.094719    0.121636
     42          6           0        1.023142    6.395738   -0.904396
     43          6           0        4.614385    5.466142    1.084433
     44          1           0        0.604486    0.313168    0.170767
     45          1           0       -3.224437   -0.899903    1.108805
     46          1           0       -2.636287   -2.694610    2.260549
     47          1           0       -1.332737   -3.756964    2.847105
     48          1           0        5.530670   -2.683926   -2.273011
     49          1           0       -4.776941    0.494809    1.272151
     50          1           0       -5.615479    1.794708    0.381782
     51          1           0        2.568917    0.030893    0.414020
     52          1           0       -0.352169    1.866730    0.527039
     53          1           0        0.982085   -4.709970    1.131444
     54          1           0        2.497188   -3.852219    1.925489
     55          1           0        0.889057   -4.024747    2.876937
     56          1           0        2.166395   -3.609655   -0.647786
     57          1           0       -1.412163   -4.979337    0.531385
     58          1           0       -2.962114   -5.215430    1.642424
     59          1           0       -4.729291   -0.927749   -0.818372
     60          1           0       -5.287308    0.673644   -1.778119
     61          1           0       -3.976839    5.053040    0.204324
     62          1           0       -5.434898    3.863656    0.188048
     63          1           0       -4.541949    4.076680   -1.385722
     64          1           0       -1.439589    5.195985   -0.443502
     65          1           0        7.591738   -3.242545   -1.106158
     66          1           0        6.704360   -4.909918   -1.155016
     67          1           0        6.719442   -3.837857    0.271395
     68          1           0        6.718830   -0.829112   -0.816356
     69          1           0        4.994657    1.484770    0.185181
     70          1           0        6.407394    0.914671    1.223499
     71          1           0        4.827441    0.329922    1.464376
     72          1           0        3.897798    5.964544   -0.956628
     73          1           0        4.588756    4.446464   -0.841392
     74          1           0        0.322845    6.491842   -1.847014
     75          1           0        1.876219    7.128308   -1.195102
     76          1           0        0.587093    6.746139   -0.135281
     77          1           0        4.191078    6.498503    1.459284
     78          1           0        5.621808    5.564606    1.019363
     79          1           0        4.417217    4.682012    1.824782
     80          1           0       -4.208646   -4.655863   -1.512013
     81          1           0       -8.032984   -1.505462   -1.821165
 ---------------------------------------------------------------------

 SCF Done:  E(RB3LYP) =  -1949.03502383     A.U. after   16 cycles

 Excitation energies and oscillator strengths:

 Excited State   1:      Singlet-A      1.9742 eV  628.03 nm  f=0.2815  <S**2>=0.000
     156 ->157         0.70476
 This state for optimization and/or second-order correction.
 Total Energy, E(TD-HF/TD-DFT) =  -1948.96247419
 Copying the excited state density for this state as the 1-particle RhoCI density.

 The electronic state is 1-A.
 Alpha  occ. eigenvalues --  -19.20034 -19.18769 -19.13969 -19.13431 -19.11116
 Alpha  occ. eigenvalues --  -19.10110 -14.38465 -14.35975 -14.35790 -14.30449
 Alpha  occ. eigenvalues --  -10.33270 -10.32827 -10.27707 -10.27295 -10.24732
 Alpha  occ. eigenvalues --  -10.23851 -10.23673 -10.23633 -10.22710 -10.22705
 Alpha  occ. eigenvalues --  -10.22600 -10.22075 -10.21725 -10.21456 -10.21305
 Alpha  occ. eigenvalues --  -10.20685 -10.20583 -10.20536 -10.19735 -10.19733
 Alpha  occ. eigenvalues --  -10.19631 -10.19626 -10.19387 -10.19085 -10.19022
 Alpha  occ. eigenvalues --  -10.18949 -10.18827 -10.18827 -10.18821 -10.18625
 Alpha  occ. eigenvalues --  -10.18610 -10.18501 -10.17928  -1.12488  -1.06226
 Alpha  occ. eigenvalues --   -1.05290  -1.03645  -1.02937  -1.00447  -0.99788
 Alpha  occ. eigenvalues --   -0.96817  -0.94168  -0.93244  -0.85082  -0.82617
 Alpha  occ. eigenvalues --   -0.82346  -0.80686  -0.80406  -0.78027  -0.77706
 Alpha  occ. eigenvalues --   -0.77421  -0.76500  -0.74676  -0.73205  -0.72143
 Alpha  occ. eigenvalues --   -0.71039  -0.70101  -0.69299  -0.68421  -0.67905
 Alpha  occ. eigenvalues --   -0.66703  -0.64660  -0.64091  -0.63899  -0.61757
 Alpha  occ. eigenvalues --   -0.60721  -0.59230  -0.58286  -0.57985  -0.56738
 Alpha  occ. eigenvalues --   -0.56321  -0.55076  -0.54717  -0.53937  -0.52821
 Alpha  occ. eigenvalues --   -0.52196  -0.51690  -0.51079  -0.50924  -0.50272
 Alpha  occ. eigenvalues --   -0.49415  -0.49019  -0.48012  -0.47958  -0.47485
 Alpha  occ. eigenvalues --   -0.47242  -0.46625  -0.46107  -0.45768  -0.45446
 Alpha  occ. eigenvalues --   -0.45389  -0.45026  -0.44696  -0.44181  -0.43980
 Alpha  occ. eigenvalues --   -0.43892  -0.43412  -0.43360  -0.43001  -0.42932
 Alpha  occ. eigenvalues --   -0.42503  -0.42224  -0.42122  -0.41320  -0.41061
 Alpha  occ. eigenvalues --   -0.40994  -0.40472  -0.40330  -0.39594  -0.39323
 Alpha  occ. eigenvalues --   -0.39249  -0.39060  -0.38936  -0.38501  -0.38171
 Alpha  occ. eigenvalues --   -0.37440  -0.37345  -0.37153  -0.36935  -0.36588
 Alpha  occ. eigenvalues --   -0.36168  -0.36100  -0.35934  -0.35281  -0.34763
 Alpha  occ. eigenvalues --   -0.34382  -0.34208  -0.34093  -0.33842  -0.33498
 Alpha  occ. eigenvalues --   -0.33117  -0.32147  -0.31361  -0.31044  -0.29662
 Alpha  occ. eigenvalues --   -0.29153  -0.27724  -0.26700  -0.25943  -0.25352
 Alpha  occ. eigenvalues --   -0.25127  -0.24984  -0.24654  -0.23683  -0.21448
 Alpha  occ. eigenvalues --   -0.17552
 Alpha virt. eigenvalues --   -0.09199  -0.05689  -0.04044  -0.02210  -0.00908
 Alpha virt. eigenvalues --    0.02187   0.02242   0.02552   0.03076   0.03393
 Alpha virt. eigenvalues --    0.04185   0.04553   0.05001   0.05405   0.06138

 Mulliken charges:
               1
     1  O   -0.136531
     2  O   -0.181275
     3  O   -0.288974
     4  O   -0.204431
     5  O   -0.287536
     6  O   -0.195444
     7  N   -0.016871
     8  N   -0.066018
     9  N   -0.158729
    10  N   -0.268747
    11  C   -0.154464
    12  C    0.071198
    13  C   -0.188432
    14  C   -0.029973
    15  C   -0.061331
    16  C    0.099554
    17  C   -0.130913
    18  C   -0.139464
    19  C    0.147059
    20  C   -0.033860
    21  C    0.160380
    22  C    0.070012
    23  C    0.021693
    24  C    0.167693
    25  C   -0.141944
    26  C    0.019011
    27  C    0.098560
    28  C   -0.020109
    29  C   -0.008866
    30  C    0.015287
    31  C   -0.124383
    32  C   -0.004743
    33  C   -0.111273
    34  C    0.022046
    35  C   -0.075448
    36  C   -0.131706
    37  C    0.103040
    38  C    0.029076
    39  C    0.194178
    40  C    0.068773
    41  C    0.134468
    42  C    0.124949
    43  C    0.014905
    44  H    0.128966
    45  H    0.042852
    46  H   -0.001667
    47  H    0.005348
    48  H   -0.040597
    49  H    0.017505
    50  H   -0.030374
    51  H    0.047684
    52  H    0.189134
    53  H    0.031689
    54  H    0.064820
    55  H    0.033532
    56  H    0.129092
    57  H    0.052010
    58  H    0.060254
    59  H    0.092188
    60  H    0.040528
    61  H    0.049607
    62  H    0.030549
    63  H    0.037458
    64  H   -0.038673
    65  H   -0.000605
    66  H    0.061789
    67  H    0.011133
    68  H    0.016207
    69  H    0.077589
    70  H    0.008565
    71  H   -0.018295
    72  H   -0.010581
    73  H   -0.003329
    74  H    0.034110
    75  H    0.013688
    76  H   -0.020517
    77  H    0.021765
    78  H   -0.009602
    79  H    0.028946
    80  H    0.216400
    81  H    0.230412
 Sum of Mulliken charges =  -0.00000

 Dipole moment (field-independent basis, Debye):
    X=             -2.1668    Y=              1.6999    Z=             -0.6892  Tot=              2.8389
 Quadrupole moment (field-independent basis, Debye-Ang):
   XX=           -259.7294   YY=           -239.9198   ZZ=           -253.3141
   XY=             28.0191   XZ=             11.8955   YZ=            -13.2486

 Normal termination of Gaussian 16 at Tue Jul  2 12:16:17 2019.
