 Gaussian 16, Revision A.03,
 Gaussian 16:  ES64L-G16RevA.03 25-Dec-2016

 --------------------------
 # td=(NStates=1) B3LYP/SVP
 --------------------------

 --
 TD
 --
 Symbolic Z-matrix:
 Charge =  0 Multiplicity = 1

                         Standard orientation:
 ---------------------------------------------------------------------
 Center     Atomic      Atomic             Coordinates (Angstroms)
 Number     Number       Type             X           Y           Z
 ---------------------------------------------------------------------
      1          8           0        4.161602   -4.996741   -1.773914
      2          8           0       -3.139001   -4.985880   -0.921673
      3          8           0       -6.822282   -1.639644   -1.722343
      4          8           0       -4.018196   -3.157249    0.105895
      5          8           0       -7.677598   -0.207578   -0.174797
      6          8           0        3.103912    2.426131    0.498556
      7          7           0        0.218702   -0.488004    0.597051
      8          7           0       -1.441760    1.877978    0.138817
      9          7           0        3.213186   -3.289963   -0.698727
     10          7           0        0.841040    2.935821    0.046560
     11          6           0       -0.767568   -2.348686    1.429761
     12          6           0       -1.034835   -1.058498    0.958188
     13          6           0        0.664268   -2.652609    1.212695
     14          6           0        1.207227   -1.510507    0.740233
     15          6           0       -3.689361    1.570976    0.303750
     16          6           0       -2.394995    0.994909    0.519096
     17          6           0       -2.307134   -0.384079    0.745945
     18          6           0       -3.450036    2.922433   -0.123856
     19          6           0       -1.666634   -3.332090    2.075961
     20          6           0        5.476006   -2.947407   -1.305725
     21          6           0        3.558171   -2.042927   -0.244759
     22          6           0       -1.977602    3.120527   -0.114558
     23          6           0        4.949758   -1.752516   -0.498057
     24          6           0       -5.000542    0.904331    0.275149
     25          6           0        2.558026   -1.213683    0.372390
     26          6           0        1.356445   -3.860040    1.699587
     27          6           0        4.303418   -3.899920   -1.270450
     28          6           0       -2.157614   -4.562392    1.144102
     29          6           0       -5.355174    0.121698   -0.960450
     30          6           0       -4.484581    4.001864   -0.434489
     31          6           0       -1.207462    4.259724   -0.278986
     32          6           0        6.755317   -3.629580   -0.976203
     33          6           0        5.722409   -0.660111   -0.163271
     34          6           0        0.213072    4.057104   -0.274170
     35          6           0        1.235789    5.242675   -0.380811
     36          6           0        2.443995    4.732778   -0.187067
     37          6           0       -3.218899   -4.060998    0.125389
     38          6           0        5.443262    0.565456    0.532967
     39          6           0       -6.754135   -0.628816   -0.877505
     40          6           0        3.867075    5.259915   -0.207102
     41          6           0        2.225934    3.352516    0.139176
     42          6           0        0.741923    6.631002   -0.714564
     43          6           0        4.426559    5.398550    1.164425
     44          1           0        0.592631    0.336555    0.092997
     45          1           0       -3.161816   -1.081135    0.981358
     46          1           0       -2.599582   -2.850623    2.464947
     47          1           0       -1.450178   -3.758999    3.079273
     48          1           0        5.658283   -2.634747   -2.361965
     49          1           0       -5.008203    0.282775    1.359645
     50          1           0       -5.738774    1.830599    0.352176
     51          1           0        2.948006   -0.128367    0.404847
     52          1           0       -0.308674    1.997723    0.185619
     53          1           0        0.950718   -4.805617    1.167506
     54          1           0        2.609043   -3.767910    1.620175
     55          1           0        1.057006   -3.921981    2.718969
     56          1           0        2.407618   -3.492025   -0.569200
     57          1           0       -1.329676   -5.291516    0.744194
     58          1           0       -2.857804   -5.239094    1.838011
     59          1           0       -4.533155   -0.557496   -1.373958
     60          1           0       -5.207046    0.855743   -1.809926
     61          1           0       -4.145133    4.877991    0.002771
     62          1           0       -5.395507    3.648069    0.046274
     63          1           0       -4.760317    4.166726   -1.606676
     64          1           0       -1.531349    5.298906   -0.406315
     65          1           0        7.603850   -2.971263   -1.265964
     66          1           0        6.553327   -4.636463   -1.575874
     67          1           0        6.950022   -3.733415    0.359894
     68          1           0        6.614491   -0.666542   -0.672500
     69          1           0        4.760822    1.440950   -0.001473
     70          1           0        6.398324    0.905126    0.913470
     71          1           0        4.940547    0.369262    1.637035
     72          1           0        4.209456    6.252453   -0.748503
     73          1           0        4.477770    4.603791   -0.857798
     74          1           0        0.392129    6.518932   -1.879852
     75          1           0        1.641408    7.219537   -0.800498
     76          1           0       -0.028694    6.953257   -0.091750
     77          1           0        3.922508    6.287461    1.609167
     78          1           0        5.624391    5.581975    1.045814
     79          1           0        4.431626    4.405813    1.630330
     80          1           0       -3.707942   -4.794007   -1.580229
     81          1           0       -7.758299   -1.815187   -1.892448
 ---------------------------------------------------------------------

 SCF Done:  E(RB3LYP) =  -1949.05447317     A.U. after   17 cycles

 Excitation energies and oscillator strengths:

 Excited State   1:      Singlet-A      1.5148 eV  818.50 nm  f=0.2115  <S**2>=0.000
     156 ->157         0.70616
     156 <-157        -0.10541
 This state for optimization and/or second-order correction.
 Total Energy, E(TD-HF/TD-DFT) =  -1948.99880625
 Copying the excited state density for this state as the 1-particle RhoCI density.

 The electronic state is 1-A.
 Alpha  occ. eigenvalues --  -19.19624 -19.17183 -19.15090 -19.12718 -19.10857
 Alpha  occ. eigenvalues --  -19.10786 -14.36462 -14.35425 -14.34836 -14.31217
 Alpha  occ. eigenvalues --  -10.33934 -10.32946 -10.29176 -10.28303 -10.23997
 Alpha  occ. eigenvalues --  -10.23902 -10.23890 -10.23737 -10.23529 -10.23104
 Alpha  occ. eigenvalues --  -10.22393 -10.21776 -10.21719 -10.21604 -10.21570
 Alpha  occ. eigenvalues --  -10.21455 -10.21431 -10.21099 -10.20874 -10.20823
 Alpha  occ. eigenvalues --  -10.20165 -10.20146 -10.20087 -10.20082 -10.20037
 Alpha  occ. eigenvalues --  -10.20025 -10.19950 -10.19651 -10.19140 -10.18838
 Alpha  occ. eigenvalues --  -10.18743 -10.18734 -10.18358  -1.10915  -1.09955
 Alpha  occ. eigenvalues --   -1.04382  -1.02169  -1.00225  -0.98414  -0.97129
 Alpha  occ. eigenvalues --   -0.96929  -0.95319  -0.91825  -0.82912  -0.82428
 Alpha  occ. eigenvalues --   -0.81261  -0.81087  -0.80240  -0.78429  -0.77069
 Alpha  occ. eigenvalues --   -0.76678  -0.76156  -0.76027  -0.74181  -0.72580
 Alpha  occ. eigenvalues --   -0.71101  -0.70645  -0.70462  -0.68573  -0.67741
 Alpha  occ. eigenvalues --   -0.66983  -0.65508  -0.64293  -0.61823  -0.61458
 Alpha  occ. eigenvalues --   -0.60757  -0.60061  -0.58824  -0.58625  -0.56364
 Alpha  occ. eigenvalues --   -0.55313  -0.55010  -0.54651  -0.54146  -0.52866
 Alpha  occ. eigenvalues --   -0.52229  -0.50718  -0.50295  -0.50187  -0.49921
 Alpha  occ. eigenvalues --   -0.48910  -0.48781  -0.48467  -0.47956  -0.47611
 Alpha  occ. eigenvalues --   -0.47082  -0.46393  -0.45981  -0.45877  -0.45327
 Alpha  occ. eigenvalues --   -0.44790  -0.44597  -0.44297  -0.43813  -0.43538
 Alpha  occ. eigenvalues --   -0.43185  -0.43160  -0.42971  -0.42540  -0.42096
 Alpha  occ. eigenvalues --   -0.41884  -0.41705  -0.41271  -0.41061  -0.40904
 Alpha  occ. eigenvalues --   -0.40399  -0.40242  -0.39742  -0.39687  -0.39337
 Alpha  occ. eigenvalues --   -0.39141  -0.38713  -0.38502  -0.38410  -0.37895
 Alpha  occ. eigenvalues --   -0.37478  -0.37335  -0.37146  -0.37042  -0.36546
 Alpha  occ. eigenvalues --   -0.36379  -0.35157  -0.34878  -0.34279  -0.33578
 Alpha  occ. eigenvalues --   -0.33395  -0.33322  -0.33109  -0.32776  -0.32478
 Alpha  occ. eigenvalues --   -0.32118  -0.32076  -0.31765  -0.30012  -0.29538
 Alpha  occ. eigenvalues --   -0.28489  -0.28092  -0.26673  -0.26178  -0.25839
 Alpha  occ. eigenvalues --   -0.25053  -0.24802  -0.24359  -0.23931  -0.21205
 Alpha  occ. eigenvalues --   -0.17384
 Alpha virt. eigenvalues --   -0.10915  -0.06488  -0.04829  -0.01544  -0.00895
 Alpha virt. eigenvalues --   -0.00673   0.02083   0.03126   0.03435   0.03914
 Alpha virt. eigenvalues --    0.04712   0.04881   0.05214   0.05554   0.05964

 Mulliken charges:
               1
     1  O   -0.208200
     2  O   -0.179842
     3  O   -0.139846
     4  O   -0.196941
     5  O   -0.244098
     6  O   -0.306170
     7  N   -0.158985
     8  N   -0.158967
     9  N    0.095595
    10  N   -0.288689
    11  C   -0.047241
    12  C    0.092790
    13  C   -0.154725
    14  C    0.089453
    15  C   -0.122008
    16  C    0.162146
    17  C   -0.101432
    18  C   -0.157702
    19  C    0.034092
    20  C   -0.054521
    21  C   -0.055666
    22  C    0.131043
    23  C    0.002637
    24  C    0.031603
    25  C   -0.119469
    26  C    0.029164
    27  C    0.128464
    28  C   -0.066327
    29  C   -0.013086
    30  C    0.108202
    31  C   -0.114123
    32  C   -0.052924
    33  C   -0.102806
    34  C    0.033960
    35  C   -0.166153
    36  C   -0.061774
    37  C    0.158491
    38  C    0.001667
    39  C    0.172371
    40  C    0.024849
    41  C    0.194000
    42  C    0.115705
    43  C   -0.021303
    44  H    0.154477
    45  H    0.036603
    46  H    0.000457
    47  H    0.012027
    48  H    0.051100
    49  H    0.046233
    50  H    0.034307
    51  H    0.034646
    52  H    0.198982
    53  H    0.033047
    54  H    0.067849
    55  H    0.021212
    56  H   -0.003548
    57  H    0.075199
    58  H    0.058871
    59  H    0.032593
    60  H    0.032456
    61  H    0.005546
    62  H    0.005543
    63  H    0.044441
    64  H   -0.019829
    65  H    0.030628
    66  H    0.073274
    67  H    0.030184
    68  H   -0.040263
    69  H    0.127043
    70  H   -0.005087
    71  H    0.037074
    72  H    0.005721
    73  H    0.009703
    74  H    0.049891
    75  H    0.014845
    76  H    0.036342
    77  H    0.027460
    78  H    0.012160
    79  H    0.041341
    80  H    0.132524
    81  H    0.181714
 Sum of Mulliken charges =  -0.00000

 Dipole moment (field-independent basis, Debye):
    X=             -2.0277    Y=              2.2571    Z=             -1.7381  Tot=              3.4967
 Quadrupole moment (field-independent basis, Debye-Ang):
   XX=           -255.0439   YY=           -237.7725   ZZ=           -251.0498
   XY=             22.7244   XZ=             12.1249   YZ=            -15.1545

 Normal termination of Gaussian 16 at Sun Jun 30 04:50:28 2019.
