 Gaussian 16, Revision A.03,
 Gaussian 16:  ES64L-G16RevA.03 25-Dec-2016

 --------------------------
 # td=(NStates=1) B3LYP/SVP
 --------------------------

 --
 TD
 --
 Symbolic Z-matrix:
 Charge =  0 Multiplicity = 1

                         Standard orientation:
 ---------------------------------------------------------------------
 Center     Atomic      Atomic             Coordinates (Angstroms)
 Number     Number       Type             X           Y           Z
 ---------------------------------------------------------------------
      1          8           0       -4.276471   -4.759447    1.992168
      2          8           0        2.857475   -4.889766    1.082593
      3          8           0        7.121000   -1.490621    1.992189
      4          8           0        3.758837   -3.121172   -0.060049
      5          8           0        7.633874   -0.527095    0.054468
      6          8           0       -2.990462    2.403041   -0.425303
      7          7           0       -0.282506   -0.428818   -0.778870
      8          7           0        1.539800    1.822215   -0.407989
      9          7           0       -3.287854   -3.016960    0.828950
     10          7           0       -0.791548    2.834037   -0.066809
     11          6           0        0.629714   -2.409774   -1.503615
     12          6           0        0.898586   -1.058053   -1.042049
     13          6           0       -0.793758   -2.494498   -1.488389
     14          6           0       -1.329063   -1.416200   -0.809835
     15          6           0        3.760178    1.447294   -0.300075
     16          6           0        2.477438    0.787444   -0.589897
     17          6           0        2.154116   -0.456061   -0.950827
     18          6           0        3.560778    2.754156    0.020179
     19          6           0        1.574758   -3.416123   -2.057055
     20          6           0       -5.502653   -2.666209    1.366391
     21          6           0       -3.562414   -1.820410    0.196463
     22          6           0        2.104199    3.003486   -0.011242
     23          6           0       -5.002337   -1.514346    0.499246
     24          6           0        5.059687    0.668507   -0.374293
     25          6           0       -2.652837   -1.048940   -0.467627
     26          6           0       -1.605233   -3.770744   -1.697087
     27          6           0       -4.294783   -3.703218    1.478393
     28          6           0        1.878843   -4.516819   -1.104251
     29          6           0        5.454533   -0.209995    0.875215
     30          6           0        4.527821    3.789711    0.479952
     31          6           0        1.300064    4.077530    0.270170
     32          6           0       -6.731640   -3.537527    0.971163
     33          6           0       -5.718545   -0.483660    0.160137
     34          6           0       -0.113751    4.024741    0.264621
     35          6           0       -1.019609    5.138630    0.456915
     36          6           0       -2.245416    4.658713    0.276977
     37          6           0        2.973044   -4.062162    0.040987
     38          6           0       -5.449934    0.509141   -0.870309
     39          6           0        6.846340   -0.645162    0.931830
     40          6           0       -3.596378    5.292710    0.459498
     41          6           0       -2.063691    3.163001   -0.106303
     42          6           0       -0.665500    6.576634    0.658385
     43          6           0       -4.349045    5.461015   -0.873792
     44          1           0       -0.495121    0.533007   -0.452826
     45          1           0        2.912836   -1.239416   -1.261106
     46          1           0        2.537277   -3.059907   -2.175749
     47          1           0        0.995674   -3.791167   -2.858215
     48          1           0       -5.761984   -2.197612    2.559340
     49          1           0        5.181119   -0.063210   -1.219274
     50          1           0        5.846360    1.424486   -0.467698
     51          1           0       -2.763009    0.116453   -0.562941
     52          1           0        0.449520    1.880038   -0.502663
     53          1           0       -1.455600   -4.605415   -1.058987
     54          1           0       -2.551290   -3.465098   -2.069715
     55          1           0       -1.133259   -4.184613   -2.719731
     56          1           0       -2.263244   -3.339807    0.836325
     57          1           0        0.975131   -4.964825   -0.872409
     58          1           0        2.477754   -5.430586   -1.668826
     59          1           0        4.845585   -1.211353    0.801162
     60          1           0        5.291341    0.469623    1.887566
     61          1           0        4.254058    4.699682   -0.027853
     62          1           0        5.497728    3.639852    0.185054
     63          1           0        4.524779    3.938385    1.718390
     64          1           0        1.712658    5.179345    0.472965
     65          1           0       -7.532866   -2.856733    1.088589
     66          1           0       -6.908707   -4.403551    1.610843
     67          1           0       -6.755800   -3.859677   -0.128514
     68          1           0       -6.815747   -0.482662    0.629684
     69          1           0       -5.020137    1.452556   -0.251867
     70          1           0       -6.467986    0.849629   -1.191152
     71          1           0       -4.789967    0.258007   -1.689260
     72          1           0       -3.402790    6.345692    0.999355
     73          1           0       -4.065415    4.590528    1.237377
     74          1           0        0.025709    6.803361    1.667131
     75          1           0       -1.511392    7.179590    0.789007
     76          1           0       -0.188891    6.924593   -0.336381
     77          1           0       -3.633889    6.037135   -1.555973
     78          1           0       -5.409258    6.147026   -0.839375
     79          1           0       -4.556464    4.605288   -1.316071
     80          1           0        3.634168   -4.625422    1.681754
     81          1           0        8.220773   -1.422938    1.987304
 ---------------------------------------------------------------------

 SCF Done:  E(RB3LYP) =  -1949.12978627     A.U. after   16 cycles

 Excitation energies and oscillator strengths:

 Excited State   1:      Singlet-A      1.8129 eV  683.91 nm  f=0.3312  <S**2>=0.000
     156 ->157         0.70692
     156 <-157        -0.11098
 This state for optimization and/or second-order correction.
 Total Energy, E(TD-HF/TD-DFT) =  -1949.06316474
 Copying the excited state density for this state as the 1-particle RhoCI density.

 The electronic state is 1-A.
 Alpha  occ. eigenvalues --  -19.21632 -19.17670 -19.16074 -19.12610 -19.11896
 Alpha  occ. eigenvalues --  -19.09204 -14.37484 -14.36900 -14.35372 -14.29311
 Alpha  occ. eigenvalues --  -10.35397 -10.31208 -10.29283 -10.25652 -10.24606
 Alpha  occ. eigenvalues --  -10.24102 -10.23384 -10.22952 -10.22882 -10.22878
 Alpha  occ. eigenvalues --  -10.22730 -10.21874 -10.21759 -10.20779 -10.20746
 Alpha  occ. eigenvalues --  -10.20675 -10.20474 -10.20451 -10.20309 -10.20203
 Alpha  occ. eigenvalues --  -10.20137 -10.20036 -10.19874 -10.19760 -10.19682
 Alpha  occ. eigenvalues --  -10.19265 -10.19199 -10.19140 -10.18760 -10.18699
 Alpha  occ. eigenvalues --  -10.18675 -10.18409 -10.17991  -1.11942  -1.08847
 Alpha  occ. eigenvalues --   -1.05597  -1.02950  -1.00274  -0.99307  -0.97479
 Alpha  occ. eigenvalues --   -0.96423  -0.95653  -0.91794  -0.83227  -0.82006
 Alpha  occ. eigenvalues --   -0.81427  -0.81161  -0.80202  -0.79123  -0.77389
 Alpha  occ. eigenvalues --   -0.77096  -0.76374  -0.74974  -0.74281  -0.72091
 Alpha  occ. eigenvalues --   -0.71297  -0.69527  -0.68685  -0.68227  -0.67846
 Alpha  occ. eigenvalues --   -0.67068  -0.65806  -0.63831  -0.62887  -0.61800
 Alpha  occ. eigenvalues --   -0.61034  -0.58761  -0.57439  -0.56469  -0.56364
 Alpha  occ. eigenvalues --   -0.55695  -0.54779  -0.53704  -0.53289  -0.52665
 Alpha  occ. eigenvalues --   -0.52204  -0.51732  -0.51492  -0.51065  -0.49561
 Alpha  occ. eigenvalues --   -0.49168  -0.48688  -0.48334  -0.47985  -0.47341
 Alpha  occ. eigenvalues --   -0.47116  -0.46452  -0.46189  -0.45775  -0.45580
 Alpha  occ. eigenvalues --   -0.45110  -0.44716  -0.44370  -0.43935  -0.43852
 Alpha  occ. eigenvalues --   -0.43716  -0.43393  -0.42775  -0.42486  -0.42142
 Alpha  occ. eigenvalues --   -0.41942  -0.41647  -0.41410  -0.40930  -0.40543
 Alpha  occ. eigenvalues --   -0.40406  -0.40375  -0.39791  -0.39569  -0.39366
 Alpha  occ. eigenvalues --   -0.39195  -0.38823  -0.38729  -0.38116  -0.37892
 Alpha  occ. eigenvalues --   -0.37436  -0.37015  -0.36744  -0.36556  -0.36419
 Alpha  occ. eigenvalues --   -0.35996  -0.35886  -0.35507  -0.35294  -0.35065
 Alpha  occ. eigenvalues --   -0.34835  -0.34521  -0.34145  -0.34039  -0.32968
 Alpha  occ. eigenvalues --   -0.32849  -0.32722  -0.31885  -0.30862  -0.29967
 Alpha  occ. eigenvalues --   -0.28465  -0.27833  -0.26623  -0.26111  -0.25598
 Alpha  occ. eigenvalues --   -0.25062  -0.24783  -0.23847  -0.23608  -0.21892
 Alpha  occ. eigenvalues --   -0.17712
 Alpha virt. eigenvalues --   -0.10408  -0.05402  -0.03492  -0.02284  -0.00001
 Alpha virt. eigenvalues --    0.00089   0.02019   0.02052   0.02668   0.03001
 Alpha virt. eigenvalues --    0.03414   0.04339   0.04776   0.05589   0.05755

 Mulliken charges:
               1
     1  O   -0.154851
     2  O   -0.165711
     3  O   -0.280085
     4  O   -0.234736
     5  O   -0.202714
     6  O   -0.252646
     7  N   -0.127948
     8  N   -0.165778
     9  N   -0.142085
    10  N   -0.291973
    11  C   -0.146091
    12  C    0.040895
    13  C   -0.177501
    14  C    0.059694
    15  C   -0.047259
    16  C    0.163181
    17  C   -0.082739
    18  C   -0.135226
    19  C    0.249389
    20  C   -0.211780
    21  C    0.130980
    22  C    0.124488
    23  C    0.062914
    24  C    0.101039
    25  C   -0.183133
    26  C    0.089076
    27  C    0.158081
    28  C   -0.040546
    29  C   -0.078623
    30  C    0.120075
    31  C   -0.162543
    32  C    0.076540
    33  C   -0.216668
    34  C    0.064430
    35  C   -0.086807
    36  C   -0.179210
    37  C    0.167873
    38  C    0.059110
    39  C    0.128480
    40  C    0.034308
    41  C    0.132706
    42  C    0.070471
    43  C    0.010248
    44  H    0.144263
    45  H    0.012810
    46  H   -0.018655
    47  H   -0.004457
    48  H    0.058478
    49  H    0.027645
    50  H   -0.000618
    51  H    0.079875
    52  H    0.174938
    53  H    0.041223
    54  H    0.020190
    55  H   -0.004011
    56  H    0.150736
    57  H   -0.005136
    58  H    0.052344
    59  H    0.090584
    60  H    0.054067
    61  H    0.012126
    62  H   -0.018371
    63  H    0.051104
    64  H    0.012250
    65  H   -0.009797
    66  H    0.036777
    67  H    0.019134
    68  H    0.014441
    69  H    0.085959
    70  H    0.008607
    71  H    0.037916
    72  H    0.014584
    73  H    0.035751
    74  H    0.042703
    75  H   -0.011498
    76  H    0.043311
    77  H    0.015095
    78  H    0.025945
    79  H    0.001695
    80  H    0.204717
    81  H    0.225952
 Sum of Mulliken charges =  -0.00000

 Dipole moment (field-independent basis, Debye):
    X=              2.7713    Y=              0.4943    Z=              0.5922  Tot=              2.8767
 Quadrupole moment (field-independent basis, Debye-Ang):
   XX=           -251.9469   YY=           -237.7818   ZZ=           -255.7465
   XY=            -11.1352   XZ=             16.0184   YZ=             12.7247

 Normal termination of Gaussian 16 at Sat Jun 29 17:04:10 2019.
