 Gaussian 16, Revision A.03,
 Gaussian 16:  ES64L-G16RevA.03 25-Dec-2016

 --------------------------
 # td=(NStates=1) B3LYP/SVP
 --------------------------

 --
 TD
 --
 Symbolic Z-matrix:
 Charge =  0 Multiplicity = 1

                         Standard orientation:
 ---------------------------------------------------------------------
 Center     Atomic      Atomic             Coordinates (Angstroms)
 Number     Number       Type             X           Y           Z
 ---------------------------------------------------------------------
      1          8           0        4.227086   -4.869753   -1.789130
      2          8           0       -3.043821   -4.877456   -1.038086
      3          8           0       -6.912508   -1.444547   -2.021543
      4          8           0       -3.785036   -2.946222   -0.052119
      5          8           0       -7.581783   -0.501631   -0.051146
      6          8           0        3.076312    2.240719    0.308181
      7          7           0        0.250761   -0.525637    0.610514
      8          7           0       -1.547717    1.910618    0.342304
      9          7           0        3.288084   -3.157510   -0.617952
     10          7           0        0.798971    2.849061   -0.009665
     11          6           0       -0.691138   -2.422006    1.366145
     12          6           0       -1.040742   -1.054487    0.881919
     13          6           0        0.665835   -2.619176    1.302638
     14          6           0        1.222274   -1.413605    0.677030
     15          6           0       -3.784490    1.492621    0.351981
     16          6           0       -2.516358    0.933536    0.592608
     17          6           0       -2.257575   -0.377844    0.942641
     18          6           0       -3.580826    2.847841   -0.007794
     19          6           0       -1.681456   -3.325473    2.042778
     20          6           0        5.461529   -2.842286   -1.287028
     21          6           0        3.578972   -1.868921   -0.266270
     22          6           0       -2.147670    3.095337    0.046589
     23          6           0        4.893176   -1.595510   -0.565933
     24          6           0       -5.156488    0.884446    0.361851
     25          6           0        2.604650   -1.054836    0.286294
     26          6           0        1.401648   -3.766769    1.802929
     27          6           0        4.208100   -3.787940   -1.329299
     28          6           0       -2.176029   -4.411513    1.096798
     29          6           0       -5.323751   -0.115144   -0.789563
     30          6           0       -4.561530    4.021409   -0.411998
     31          6           0       -1.264651    4.170285   -0.181605
     32          6           0        6.769003   -3.407471   -0.792708
     33          6           0        5.784227   -0.557192   -0.135925
     34          6           0        0.124730    3.970089   -0.161296
     35          6           0        1.176431    5.003736   -0.455449
     36          6           0        2.425943    4.475952   -0.375160
     37          6           0       -2.988907   -3.972223   -0.029629
     38          6           0        5.547421    0.569926    0.760129
     39          6           0       -6.657324   -0.748512   -0.912481
     40          6           0        3.761107    5.083452   -0.433200
     41          6           0        2.146445    3.003459    0.059510
     42          6           0        0.829176    6.526894   -0.659807
     43          6           0        4.409312    5.602463    0.987323
     44          1           0        0.389695    0.260031    0.080514
     45          1           0       -2.848561   -1.030048    1.285313
     46          1           0       -2.402635   -2.802588    2.724286
     47          1           0       -1.033496   -3.882569    2.687424
     48          1           0        5.574731   -2.523628   -2.508677
     49          1           0       -5.045286    0.368032    1.215667
     50          1           0       -5.959044    1.544440    0.510501
     51          1           0        2.642503    0.081062    0.317162
     52          1           0       -0.498036    1.943319    0.456180
     53          1           0        1.260189   -4.663931    1.161699
     54          1           0        2.563984   -3.900424    1.769503
     55          1           0        1.337840   -3.827230    2.851609
     56          1           0        2.141775   -3.502834   -0.512825
     57          1           0       -1.311240   -5.058705    0.730084
     58          1           0       -2.858281   -5.135962    1.594220
     59          1           0       -4.590020   -0.841809   -0.812187
     60          1           0       -5.148122    0.422848   -1.825556
     61          1           0       -4.367327    4.784610    0.135613
     62          1           0       -5.460963    3.580462   -0.360220
     63          1           0       -4.298502    4.104913   -1.579116
     64          1           0       -1.634452    4.988967   -0.704794
     65          1           0        7.678954   -2.640088   -0.933390
     66          1           0        7.058830   -4.507930   -1.289782
     67          1           0        6.699100   -3.677830    0.353568
     68          1           0        6.715512   -0.613095   -0.644427
     69          1           0        4.926892    1.332386    0.164934
     70          1           0        6.688992    0.874192    0.846327
     71          1           0        4.981268    0.384405    1.751874
     72          1           0        3.639295    5.993025   -1.072946
     73          1           0        4.488361    4.352735   -0.909481
     74          1           0        0.061720    6.674636   -1.555768
     75          1           0        1.722965    6.988188   -0.878787
     76          1           0        0.378558    7.163481    0.257378
     77          1           0        3.848440    6.599352    1.441000
     78          1           0        5.479722    5.653941    0.782949
     79          1           0        4.277672    4.724658    1.991112
     80          1           0       -3.934404   -4.616275   -1.379109
     81          1           0       -7.625595   -1.982581   -1.851615
 ---------------------------------------------------------------------

 SCF Done:  E(RB3LYP) =  -1949.04202615     A.U. after   17 cycles

 Excitation energies and oscillator strengths:

 Excited State   1:      Singlet-A      1.7717 eV  699.78 nm  f=0.3455  <S**2>=0.000
     156 ->157         0.70895
     156 <-157        -0.11862
 This state for optimization and/or second-order correction.
 Total Energy, E(TD-HF/TD-DFT) =  -1948.97691559
 Copying the excited state density for this state as the 1-particle RhoCI density.

 The electronic state is 1-A.
 Alpha  occ. eigenvalues --  -19.20879 -19.18750 -19.14719 -19.11448 -19.10775
 Alpha  occ. eigenvalues --  -19.10577 -14.38500 -14.38163 -14.34669 -14.28553
 Alpha  occ. eigenvalues --  -10.34752 -10.32127 -10.28763 -10.26656 -10.24929
 Alpha  occ. eigenvalues --  -10.24538 -10.23711 -10.23668 -10.22919 -10.22892
 Alpha  occ. eigenvalues --  -10.22455 -10.21889 -10.21672 -10.21613 -10.21390
 Alpha  occ. eigenvalues --  -10.21356 -10.20938 -10.20885 -10.20675 -10.20349
 Alpha  occ. eigenvalues --  -10.20228 -10.19982 -10.19882 -10.19750 -10.19686
 Alpha  occ. eigenvalues --  -10.19603 -10.19542 -10.19208 -10.19032 -10.18680
 Alpha  occ. eigenvalues --  -10.18639 -10.17916 -10.17622  -1.11258  -1.10581
 Alpha  occ. eigenvalues --   -1.05550  -1.01178  -0.99905  -0.99132  -0.97597
 Alpha  occ. eigenvalues --   -0.97208  -0.97095  -0.92441  -0.84674  -0.82738
 Alpha  occ. eigenvalues --   -0.81386  -0.81016  -0.80224  -0.78366  -0.78085
 Alpha  occ. eigenvalues --   -0.77113  -0.76633  -0.74792  -0.73803  -0.72628
 Alpha  occ. eigenvalues --   -0.71734  -0.70782  -0.70420  -0.69029  -0.68004
 Alpha  occ. eigenvalues --   -0.66688  -0.65823  -0.63065  -0.62328  -0.61821
 Alpha  occ. eigenvalues --   -0.61276  -0.60427  -0.60090  -0.58589  -0.57718
 Alpha  occ. eigenvalues --   -0.56186  -0.55699  -0.55263  -0.53358  -0.52862
 Alpha  occ. eigenvalues --   -0.52708  -0.51607  -0.51403  -0.50794  -0.50168
 Alpha  occ. eigenvalues --   -0.49968  -0.49194  -0.48936  -0.48276  -0.47879
 Alpha  occ. eigenvalues --   -0.47327  -0.46910  -0.46546  -0.46268  -0.46151
 Alpha  occ. eigenvalues --   -0.45238  -0.44782  -0.44486  -0.44421  -0.43703
 Alpha  occ. eigenvalues --   -0.43382  -0.43237  -0.43152  -0.42950  -0.42737
 Alpha  occ. eigenvalues --   -0.42231  -0.42000  -0.41842  -0.41538  -0.41122
 Alpha  occ. eigenvalues --   -0.40722  -0.40294  -0.40041  -0.39815  -0.39615
 Alpha  occ. eigenvalues --   -0.39435  -0.38886  -0.38420  -0.37999  -0.37772
 Alpha  occ. eigenvalues --   -0.37750  -0.37492  -0.37375  -0.36699  -0.36435
 Alpha  occ. eigenvalues --   -0.36055  -0.35944  -0.35709  -0.35654  -0.35088
 Alpha  occ. eigenvalues --   -0.34606  -0.33956  -0.33640  -0.33335  -0.32924
 Alpha  occ. eigenvalues --   -0.32389  -0.31881  -0.30918  -0.30622  -0.29768
 Alpha  occ. eigenvalues --   -0.27158  -0.26722  -0.26666  -0.26277  -0.25721
 Alpha  occ. eigenvalues --   -0.24830  -0.24152  -0.23309  -0.22692  -0.21516
 Alpha  occ. eigenvalues --   -0.17572
 Alpha virt. eigenvalues --   -0.10430  -0.06302  -0.04894  -0.04184  -0.01063
 Alpha virt. eigenvalues --    0.00316   0.00848   0.01971   0.03488   0.04134
 Alpha virt. eigenvalues --    0.04297   0.04937   0.05491   0.05641   0.06018

 Mulliken charges:
               1
     1  O   -0.167224
     2  O   -0.173917
     3  O   -0.121068
     4  O   -0.311938
     5  O   -0.306939
     6  O   -0.237209
     7  N    0.004293
     8  N   -0.121833
     9  N   -0.138325
    10  N   -0.285922
    11  C   -0.140594
    12  C   -0.018223
    13  C   -0.136128
    14  C   -0.014713
    15  C   -0.152983
    16  C    0.178656
    17  C    0.078441
    18  C   -0.209542
    19  C    0.165845
    20  C   -0.140026
    21  C    0.122618
    22  C    0.077747
    23  C   -0.026177
    24  C    0.278131
    25  C   -0.123457
    26  C    0.013868
    27  C    0.098691
    28  C    0.010744
    29  C    0.009976
    30  C    0.238577
    31  C   -0.092113
    32  C   -0.033738
    33  C   -0.098650
    34  C    0.094501
    35  C   -0.108172
    36  C   -0.156624
    37  C    0.160432
    38  C    0.021530
    39  C    0.143381
    40  C    0.047649
    41  C    0.164733
    42  C    0.056105
    43  C   -0.097011
    44  H    0.109680
    45  H   -0.142325
    46  H    0.042845
    47  H   -0.018876
    48  H    0.054572
    49  H   -0.035215
    50  H   -0.002927
    51  H    0.033619
    52  H    0.140730
    53  H    0.028974
    54  H    0.032292
    55  H    0.033715
    56  H    0.192615
    57  H    0.048121
    58  H    0.058881
    59  H    0.017368
    60  H    0.039405
    61  H   -0.008396
    62  H   -0.029863
    63  H    0.037311
    64  H   -0.039396
    65  H    0.044451
    66  H    0.056450
    67  H    0.028845
    68  H   -0.011937
    69  H    0.104942
    70  H    0.023928
    71  H    0.055862
    72  H    0.012778
    73  H    0.022722
    74  H    0.030300
    75  H   -0.020659
    76  H    0.041398
    77  H    0.047418
    78  H    0.033594
    79  H    0.039981
    80  H    0.191226
    81  H    0.152181
 Sum of Mulliken charges =  -0.00000

 Dipole moment (field-independent basis, Debye):
    X=             -1.2343    Y=             -2.3090    Z=              0.7779  Tot=              2.7313
 Quadrupole moment (field-independent basis, Debye-Ang):
   XX=           -261.4559   YY=           -241.6829   ZZ=           -254.5739
   XY=             22.0132   XZ=             11.7531   YZ=            -16.7860

 Normal termination of Gaussian 16 at Tue Jul  2 07:33:34 2019.
