 Gaussian 16, Revision A.03,
 Gaussian 16:  ES64L-G16RevA.03 25-Dec-2016

 --------------------------
 # td=(NStates=1) B3LYP/SVP
 --------------------------

 --
 TD
 --
 Symbolic Z-matrix:
 Charge =  0 Multiplicity = 1

                         Standard orientation:
 ---------------------------------------------------------------------
 Center     Atomic      Atomic             Coordinates (Angstroms)
 Number     Number       Type             X           Y           Z
 ---------------------------------------------------------------------
      1          8           0        3.760430   -5.062018   -1.961969
      2          8           0       -3.581616   -4.722632   -1.030991
      3          8           0       -6.983356   -1.294698   -1.781834
      4          8           0       -4.027868   -2.777968    0.089750
      5          8           0       -7.513078   -0.153519    0.137181
      6          8           0        3.202418    2.111814    0.392333
      7          7           0        0.248206   -0.447295    0.602617
      8          7           0       -1.361066    1.932286    0.279715
      9          7           0        3.002971   -3.369867   -0.507648
     10          7           0        0.996908    2.860504   -0.022541
     11          6           0       -0.809202   -2.327527    1.371688
     12          6           0       -1.022313   -0.963670    0.905386
     13          6           0        0.553433   -2.651421    1.234926
     14          6           0        1.189516   -1.423452    0.717542
     15          6           0       -3.567777    1.793693    0.264822
     16          6           0       -2.348394    1.040871    0.526803
     17          6           0       -2.294681   -0.243876    0.811583
     18          6           0       -3.317650    3.225446   -0.056535
     19          6           0       -1.885491   -3.230115    1.992858
     20          6           0        5.305618   -3.148633   -1.325839
     21          6           0        3.380584   -2.177844   -0.133452
     22          6           0       -1.768747    3.188875   -0.003204
     23          6           0        4.848529   -1.907947   -0.508331
     24          6           0       -4.977439    1.119266    0.262636
     25          6           0        2.461678   -1.174594    0.330302
     26          6           0        1.214860   -3.804014    1.719861
     27          6           0        3.976506   -4.034179   -1.384497
     28          6           0       -2.352708   -4.406890    1.029855
     29          6           0       -5.260522    0.148321   -0.807873
     30          6           0       -4.148153    4.309014   -0.526505
     31          6           0       -0.949778    4.240881   -0.274882
     32          6           0        6.527597   -3.833540   -0.802124
     33          6           0        5.667529   -0.882290   -0.178085
     34          6           0        0.467828    4.058539   -0.316122
     35          6           0        1.539450    5.065910   -0.431759
     36          6           0        2.675827    4.453324   -0.198244
     37          6           0       -3.415118   -3.873601    0.017725
     38          6           0        5.403833    0.356124    0.733849
     39          6           0       -6.723871   -0.481805   -0.730475
     40          6           0        4.079687    4.964140   -0.261170
     41          6           0        2.407589    3.029583    0.048122
     42          6           0        1.203687    6.475160   -0.918844
     43          6           0        4.675992    5.121267    1.138354
     44          1           0        0.464854    0.485435    0.213270
     45          1           0       -3.292406   -0.842917    1.028576
     46          1           0       -2.826434   -2.779543    2.548263
     47          1           0       -1.383371   -3.560772    2.823089
     48          1           0        5.533874   -2.760326   -2.392064
     49          1           0       -5.077115    0.602487    1.090777
     50          1           0       -5.719400    1.870122    0.226592
     51          1           0        2.718784   -0.245292    0.296469
     52          1           0       -0.357781    2.139894    0.535985
     53          1           0        0.723281   -4.727622    0.922547
     54          1           0        2.319638   -3.834808    1.609499
     55          1           0        0.748899   -3.852028    2.798552
     56          1           0        2.013728   -3.730019   -0.254607
     57          1           0       -1.466105   -5.055235    0.489351
     58          1           0       -2.941460   -5.265646    1.551880
     59          1           0       -4.470838   -0.677778   -1.034137
     60          1           0       -5.263870    0.578462   -1.889804
     61          1           0       -4.103654    5.243881    0.019983
     62          1           0       -5.244480    4.039902   -0.627879
     63          1           0       -3.931831    4.573936   -1.492107
     64          1           0       -1.366731    5.291728   -0.361536
     65          1           0        7.473129   -3.185296   -0.750807
     66          1           0        6.814070   -4.806371   -1.418857
     67          1           0        6.521519   -4.178181    0.113942
     68          1           0        6.788062   -1.031103   -0.493122
     69          1           0        4.791124    1.058989    0.358572
     70          1           0        6.183604    0.920534    1.406828
     71          1           0        4.861945   -0.259486    1.582335
     72          1           0        4.344438    5.999281   -0.802763
     73          1           0        4.768962    4.191521   -0.845198
     74          1           0        0.469067    6.435712   -1.690310
     75          1           0        2.033879    6.929339   -1.017670
     76          1           0        0.487445    7.002578   -0.271578
     77          1           0        3.994885    5.913100    1.475016
     78          1           0        5.708299    5.461902    1.140328
     79          1           0        4.445176    4.223849    1.855958
     80          1           0       -4.373333   -4.455999   -1.690793
     81          1           0       -7.881829   -1.501546   -1.765553
 ---------------------------------------------------------------------

 SCF Done:  E(RB3LYP) =  -1949.05589871     A.U. after   17 cycles

 Excitation energies and oscillator strengths:

 Excited State   1:      Singlet-A      1.6324 eV  759.54 nm  f=0.3048  <S**2>=0.000
     156 ->157         0.71280
     156 <-157        -0.13191
 This state for optimization and/or second-order correction.
 Total Energy, E(TD-HF/TD-DFT) =  -1948.99591034
 Copying the excited state density for this state as the 1-particle RhoCI density.

 The electronic state is 1-A.
 Alpha  occ. eigenvalues --  -19.20069 -19.18435 -19.14131 -19.13423 -19.12624
 Alpha  occ. eigenvalues --  -19.10427 -14.38061 -14.37003 -14.34635 -14.28742
 Alpha  occ. eigenvalues --  -10.34327 -10.32175 -10.31324 -10.26819 -10.24718
 Alpha  occ. eigenvalues --  -10.24532 -10.23304 -10.22913 -10.22613 -10.22489
 Alpha  occ. eigenvalues --  -10.22440 -10.22285 -10.21976 -10.21745 -10.20973
 Alpha  occ. eigenvalues --  -10.20767 -10.20688 -10.20686 -10.20619 -10.20370
 Alpha  occ. eigenvalues --  -10.20138 -10.20125 -10.19551 -10.19269 -10.19259
 Alpha  occ. eigenvalues --  -10.19007 -10.18826 -10.18400 -10.18139 -10.17783
 Alpha  occ. eigenvalues --  -10.17693 -10.17307 -10.16513  -1.09899  -1.08583
 Alpha  occ. eigenvalues --   -1.05395  -1.00833  -0.99648  -0.99604  -0.97952
 Alpha  occ. eigenvalues --   -0.97075  -0.96338  -0.91789  -0.82226  -0.82036
 Alpha  occ. eigenvalues --   -0.81105  -0.80147  -0.79915  -0.78672  -0.77097
 Alpha  occ. eigenvalues --   -0.76707  -0.76017  -0.75095  -0.73982  -0.72062
 Alpha  occ. eigenvalues --   -0.70917  -0.70062  -0.68915  -0.68177  -0.67667
 Alpha  occ. eigenvalues --   -0.66987  -0.65439  -0.63951  -0.62247  -0.60684
 Alpha  occ. eigenvalues --   -0.60371  -0.59740  -0.58961  -0.58635  -0.56631
 Alpha  occ. eigenvalues --   -0.55755  -0.54861  -0.54540  -0.52987  -0.52917
 Alpha  occ. eigenvalues --   -0.51855  -0.51459  -0.50376  -0.49822  -0.48797
 Alpha  occ. eigenvalues --   -0.48516  -0.48294  -0.47991  -0.47712  -0.47336
 Alpha  occ. eigenvalues --   -0.46970  -0.46317  -0.46130  -0.45526  -0.45161
 Alpha  occ. eigenvalues --   -0.44959  -0.44619  -0.44289  -0.44041  -0.43802
 Alpha  occ. eigenvalues --   -0.43551  -0.43303  -0.43038  -0.42809  -0.42309
 Alpha  occ. eigenvalues --   -0.42180  -0.41843  -0.41582  -0.41301  -0.40742
 Alpha  occ. eigenvalues --   -0.40452  -0.40349  -0.40155  -0.39883  -0.39382
 Alpha  occ. eigenvalues --   -0.39341  -0.39070  -0.38879  -0.38583  -0.38347
 Alpha  occ. eigenvalues --   -0.38237  -0.37890  -0.37532  -0.37181  -0.36264
 Alpha  occ. eigenvalues --   -0.36157  -0.35803  -0.34935  -0.34863  -0.34369
 Alpha  occ. eigenvalues --   -0.33749  -0.33633  -0.32961  -0.32866  -0.32736
 Alpha  occ. eigenvalues --   -0.32388  -0.31215  -0.30427  -0.29912  -0.29135
 Alpha  occ. eigenvalues --   -0.27648  -0.27635  -0.27175  -0.26283  -0.25440
 Alpha  occ. eigenvalues --   -0.24625  -0.24500  -0.23840  -0.23650  -0.20922
 Alpha  occ. eigenvalues --   -0.16258
 Alpha virt. eigenvalues --   -0.09805  -0.05708  -0.03583  -0.02433  -0.01378
 Alpha virt. eigenvalues --    0.00707   0.01058   0.01427   0.03299   0.03976
 Alpha virt. eigenvalues --    0.04133   0.04712   0.05433   0.05544   0.06073

 Mulliken charges:
               1
     1  O   -0.162928
     2  O   -0.238453
     3  O   -0.153430
     4  O   -0.259265
     5  O   -0.233144
     6  O   -0.244338
     7  N   -0.085431
     8  N   -0.068966
     9  N   -0.144205
    10  N   -0.342455
    11  C   -0.097408
    12  C    0.041478
    13  C   -0.172162
    14  C    0.107434
    15  C   -0.173861
    16  C    0.191488
    17  C   -0.147018
    18  C   -0.100259
    19  C    0.139812
    20  C   -0.064952
    21  C    0.027780
    22  C    0.035754
    23  C   -0.019640
    24  C    0.283608
    25  C    0.039850
    26  C   -0.032705
    27  C    0.172054
    28  C   -0.082188
    29  C   -0.112246
    30  C    0.133623
    31  C   -0.125024
    32  C    0.068685
    33  C   -0.158334
    34  C    0.064639
    35  C   -0.115565
    36  C   -0.151292
    37  C    0.188026
    38  C    0.036341
    39  C    0.149044
    40  C   -0.015424
    41  C    0.196852
    42  C    0.269076
    43  C   -0.007813
    44  H    0.150200
    45  H    0.072531
    46  H    0.038276
    47  H   -0.036547
    48  H    0.060485
    49  H   -0.039916
    50  H   -0.018176
    51  H   -0.145908
    52  H    0.163883
    53  H    0.037314
    54  H    0.055588
    55  H    0.070004
    56  H    0.166388
    57  H    0.072984
    58  H    0.058737
    59  H    0.061659
    60  H    0.021673
    61  H    0.015042
    62  H    0.012254
    63  H   -0.004709
    64  H   -0.015929
    65  H    0.026092
    66  H    0.034265
    67  H   -0.033742
    68  H    0.013687
    69  H    0.039777
    70  H    0.023103
    71  H    0.026032
    72  H    0.018142
    73  H    0.025671
    74  H   -0.006417
    75  H   -0.041978
    76  H   -0.005024
    77  H   -0.003403
    78  H    0.017745
    79  H    0.043268
    80  H    0.238950
    81  H    0.150963
 Sum of Mulliken charges =  -0.00000

 Dipole moment (field-independent basis, Debye):
    X=             -1.9619    Y=             -0.7069    Z=             -0.6808  Tot=              2.1937
 Quadrupole moment (field-independent basis, Debye-Ang):
   XX=           -244.1832   YY=           -230.0301   ZZ=           -254.7356
   XY=             13.5134   XZ=             17.1621   YZ=            -14.4660

 Normal termination of Gaussian 16 at Sat Jun 29 15:42:51 2019.
