 Gaussian 16, Revision A.03,
 Gaussian 16:  ES64L-G16RevA.03 25-Dec-2016

 --------------------------
 # td=(NStates=1) B3LYP/SVP
 --------------------------

 --
 TD
 --
 Symbolic Z-matrix:
 Charge =  0 Multiplicity = 1

                         Standard orientation:
 ---------------------------------------------------------------------
 Center     Atomic      Atomic             Coordinates (Angstroms)
 Number     Number       Type             X           Y           Z
 ---------------------------------------------------------------------
      1          8           0        4.600923   -4.725431   -1.921239
      2          8           0       -2.908714   -5.150114   -0.951761
      3          8           0       -6.859289   -1.687672   -1.889874
      4          8           0       -3.606739   -3.197076    0.038131
      5          8           0       -7.724915   -0.359439   -0.177383
      6          8           0        2.991514    2.472597    0.516000
      7          7           0        0.097858   -0.437498    0.540116
      8          7           0       -1.646709    1.675557    0.342099
      9          7           0        3.423258   -3.055047   -0.840019
     10          7           0        0.739483    2.846143    0.123760
     11          6           0       -0.657589   -2.355428    1.436411
     12          6           0       -0.981036   -1.079371    1.036374
     13          6           0        0.801102   -2.589913    1.223220
     14          6           0        1.230160   -1.380320    0.606848
     15          6           0       -3.855461    1.430570    0.277201
     16          6           0       -2.549949    0.729860    0.593005
     17          6           0       -2.325172   -0.595209    0.850248
     18          6           0       -3.603225    2.754492   -0.102676
     19          6           0       -1.506673   -3.350268    2.092434
     20          6           0        5.663736   -2.674641   -1.324024
     21          6           0        3.582214   -1.818564   -0.259024
     22          6           0       -2.128948    2.823924   -0.079411
     23          6           0        4.978821   -1.447856   -0.453902
     24          6           0       -5.176978    0.775062    0.410445
     25          6           0        2.632231   -0.950908    0.250250
     26          6           0        1.626678   -3.670055    1.817840
     27          6           0        4.524564   -3.666229   -1.313348
     28          6           0       -1.938788   -4.524573    1.135551
     29          6           0       -5.346283   -0.230804   -0.791304
     30          6           0       -4.531773    3.689308   -0.557076
     31          6           0       -1.368083    4.015143   -0.270884
     32          6           0        6.995748   -3.428870   -0.819993
     33          6           0        5.797020   -0.395041   -0.090983
     34          6           0       -0.021310    3.963706   -0.285522
     35          6           0        0.988610    5.151272   -0.467488
     36          6           0        2.163685    4.672648   -0.175915
     37          6           0       -2.911541   -4.180206   -0.002038
     38          6           0        5.435116    0.772917    0.768286
     39          6           0       -6.800786   -0.751822   -0.858434
     40          6           0        3.501556    5.354597   -0.190924
     41          6           0        2.066448    3.214687    0.170786
     42          6           0        0.643962    6.651633   -0.920036
     43          6           0        4.135794    5.656103    1.034582
     44          1           0        0.468638    0.417547    0.303417
     45          1           0       -2.955824   -1.240322    1.188825
     46          1           0       -2.567874   -2.637827    2.201832
     47          1           0       -1.161161   -3.758367    3.125528
     48          1           0        5.768822   -2.252966   -2.286266
     49          1           0       -5.272617    0.281263    1.489152
     50          1           0       -5.819143    1.717681    0.221721
     51          1           0        2.784196    0.086268    0.408285
     52          1           0       -0.664976    1.592344    0.584869
     53          1           0        1.620104   -4.654947    1.014066
     54          1           0        2.707920   -3.350000    1.972128
     55          1           0        1.200501   -4.221205    2.745232
     56          1           0        2.383799   -3.502930   -0.728294
     57          1           0       -1.195921   -5.238307    0.739670
     58          1           0       -2.384689   -5.235335    1.784401
     59          1           0       -4.507880   -1.124943   -0.751018
     60          1           0       -5.154719    0.234754   -1.724495
     61          1           0       -4.489971    4.740628    0.029057
     62          1           0       -5.651838    3.381809   -0.719736
     63          1           0       -4.341004    3.981555   -1.626438
     64          1           0       -2.015595    4.933966   -0.303001
     65          1           0        7.761259   -2.647549   -1.125917
     66          1           0        7.074496   -4.197018   -1.359105
     67          1           0        6.862498   -3.563236    0.090391
     68          1           0        6.824059   -0.283890   -0.815873
     69          1           0        4.836388    1.646200    0.169515
     70          1           0        6.329506    1.113917    1.238625
     71          1           0        4.392885    0.363425    1.382137
     72          1           0        3.255969    6.242587   -0.721541
     73          1           0        4.255223    4.944377   -1.048567
     74          1           0       -0.048687    6.470073   -1.709163
     75          1           0        1.525178    7.251938   -0.981438
     76          1           0       -0.137270    6.868570    0.011666
     77          1           0        3.610619    6.341583    1.540871
     78          1           0        5.136938    6.072722    0.891728
     79          1           0        4.286469    4.776215    1.633909
     80          1           0       -3.720039   -4.805061   -1.402645
     81          1           0       -7.618820   -2.167577   -1.979212
 ---------------------------------------------------------------------

 SCF Done:  E(RB3LYP) =  -1949.00386081     A.U. after   16 cycles

 Excitation energies and oscillator strengths:

 Excited State   1:      Singlet-A      1.7698 eV  700.56 nm  f=0.2532  <S**2>=0.000
     156 ->157         0.70408
 This state for optimization and/or second-order correction.
 Total Energy, E(TD-HF/TD-DFT) =  -1948.93882219
 Copying the excited state density for this state as the 1-particle RhoCI density.

 The electronic state is 1-A.
 Alpha  occ. eigenvalues --  -19.21253 -19.17637 -19.15737 -19.13878 -19.09750
 Alpha  occ. eigenvalues --  -19.09675 -14.38133 -14.37602 -14.36968 -14.28737
 Alpha  occ. eigenvalues --  -10.34546 -10.33120 -10.28016 -10.25635 -10.25358
 Alpha  occ. eigenvalues --  -10.24598 -10.24000 -10.23847 -10.23672 -10.23397
 Alpha  occ. eigenvalues --  -10.23362 -10.22574 -10.21969 -10.21741 -10.21736
 Alpha  occ. eigenvalues --  -10.21656 -10.21314 -10.21070 -10.20891 -10.20756
 Alpha  occ. eigenvalues --  -10.20703 -10.20256 -10.19913 -10.19896 -10.19655
 Alpha  occ. eigenvalues --  -10.19585 -10.19366 -10.19186 -10.18355 -10.17925
 Alpha  occ. eigenvalues --  -10.17270 -10.15932 -10.15348  -1.12546  -1.08772
 Alpha  occ. eigenvalues --   -1.03961  -1.02527  -1.01678  -1.01458  -1.00096
 Alpha  occ. eigenvalues --   -0.97230  -0.95327  -0.89992  -0.83372  -0.82800
 Alpha  occ. eigenvalues --   -0.82041  -0.80211  -0.79361  -0.78938  -0.77777
 Alpha  occ. eigenvalues --   -0.77158  -0.76653  -0.75246  -0.74118  -0.72749
 Alpha  occ. eigenvalues --   -0.72128  -0.69755  -0.69006  -0.68669  -0.68378
 Alpha  occ. eigenvalues --   -0.68068  -0.66676  -0.63257  -0.61925  -0.61810
 Alpha  occ. eigenvalues --   -0.61064  -0.60774  -0.59825  -0.58515  -0.58098
 Alpha  occ. eigenvalues --   -0.56136  -0.55448  -0.54736  -0.53617  -0.52340
 Alpha  occ. eigenvalues --   -0.51927  -0.51821  -0.51110  -0.50439  -0.49976
 Alpha  occ. eigenvalues --   -0.49845  -0.48836  -0.48695  -0.47946  -0.47613
 Alpha  occ. eigenvalues --   -0.47516  -0.47084  -0.46240  -0.45988  -0.45765
 Alpha  occ. eigenvalues --   -0.45437  -0.45221  -0.44789  -0.44471  -0.43949
 Alpha  occ. eigenvalues --   -0.43861  -0.43574  -0.43254  -0.42935  -0.42251
 Alpha  occ. eigenvalues --   -0.42073  -0.41689  -0.41569  -0.41323  -0.41055
 Alpha  occ. eigenvalues --   -0.40763  -0.40663  -0.40407  -0.39932  -0.39664
 Alpha  occ. eigenvalues --   -0.39534  -0.39487  -0.39274  -0.38428  -0.38204
 Alpha  occ. eigenvalues --   -0.38158  -0.37882  -0.37509  -0.37124  -0.36475
 Alpha  occ. eigenvalues --   -0.36109  -0.35355  -0.35272  -0.34987  -0.34215
 Alpha  occ. eigenvalues --   -0.33594  -0.33514  -0.33207  -0.32998  -0.32814
 Alpha  occ. eigenvalues --   -0.32387  -0.31668  -0.31052  -0.30279  -0.29806
 Alpha  occ. eigenvalues --   -0.28960  -0.26960  -0.26191  -0.25774  -0.24759
 Alpha  occ. eigenvalues --   -0.24533  -0.24418  -0.23746  -0.23362  -0.21399
 Alpha  occ. eigenvalues --   -0.18371
 Alpha virt. eigenvalues --   -0.10885  -0.05141  -0.04237  -0.02025  -0.00620
 Alpha virt. eigenvalues --    0.00144   0.01593   0.01995   0.02879   0.03224
 Alpha virt. eigenvalues --    0.03526   0.03816   0.04877   0.05231   0.06013

 Mulliken charges:
               1
     1  O   -0.232726
     2  O   -0.167519
     3  O   -0.194400
     4  O   -0.215564
     5  O   -0.206472
     6  O   -0.242712
     7  N   -0.112529
     8  N    0.032423
     9  N   -0.112081
    10  N   -0.351256
    11  C   -0.079086
    12  C    0.061540
    13  C   -0.108997
    14  C   -0.021382
    15  C   -0.139098
    16  C    0.084071
    17  C    0.090455
    18  C   -0.046834
    19  C   -0.031998
    20  C   -0.121961
    21  C    0.149812
    22  C    0.031898
    23  C   -0.073468
    24  C    0.077150
    25  C   -0.082549
    26  C   -0.015613
    27  C    0.113088
    28  C    0.044087
    29  C   -0.074719
    30  C   -0.026752
    31  C   -0.141776
    32  C    0.247306
    33  C   -0.160157
    34  C    0.151815
    35  C   -0.130634
    36  C   -0.194507
    37  C    0.143382
    38  C   -0.032311
    39  C    0.181628
    40  C    0.071255
    41  C    0.176215
    42  C    0.121301
    43  C    0.123868
    44  H    0.112948
    45  H   -0.097073
    46  H    0.041254
    47  H    0.045605
    48  H    0.033035
    49  H    0.056525
    50  H    0.022225
    51  H    0.007592
    52  H    0.131618
    53  H    0.027218
    54  H    0.062713
    55  H    0.034578
    56  H    0.178418
    57  H    0.020604
    58  H    0.019974
    59  H    0.096566
    60  H    0.022128
    61  H    0.046574
    62  H    0.042768
    63  H    0.031606
    64  H   -0.005980
    65  H    0.012891
    66  H   -0.026115
    67  H   -0.053986
    68  H    0.030533
    69  H    0.105579
    70  H    0.017629
    71  H    0.053638
    72  H   -0.059828
    73  H    0.012917
    74  H    0.019077
    75  H    0.036214
    76  H    0.038033
    77  H   -0.032376
    78  H   -0.006686
    79  H    0.013137
    80  H    0.180000
    81  H    0.144249
 Sum of Mulliken charges =  -0.00000

 Dipole moment (field-independent basis, Debye):
    X=             -5.0901    Y=              0.4255    Z=             -0.0434  Tot=              5.1080
 Quadrupole moment (field-independent basis, Debye-Ang):
   XX=           -261.8457   YY=           -236.3601   ZZ=           -254.9059
   XY=             22.5540   XZ=             14.8266   YZ=            -17.4664

 Normal termination of Gaussian 16 at Thu Jun 27 15:00:52 2019.
