 Gaussian 16, Revision A.03,
 Gaussian 16:  ES64L-G16RevA.03 25-Dec-2016

 --------------------------
 # td=(NStates=1) B3LYP/SVP
 --------------------------

 --
 TD
 --
 Symbolic Z-matrix:
 Charge =  0 Multiplicity = 1

                         Standard orientation:
 ---------------------------------------------------------------------
 Center     Atomic      Atomic             Coordinates (Angstroms)
 Number     Number       Type             X           Y           Z
 ---------------------------------------------------------------------
      1          8           0        4.134040   -4.990799   -1.737367
      2          8           0       -2.943246   -5.084437   -1.048783
      3          8           0       -6.955623   -1.530154   -1.796789
      4          8           0       -3.785541   -3.178494   -0.096703
      5          8           0       -7.510957   -0.488862    0.059569
      6          8           0        3.118937    2.541805    0.375109
      7          7           0        0.148918   -0.591149    0.391039
      8          7           0       -1.513056    1.900856    0.298985
      9          7           0        3.307865   -3.249990   -0.579216
     10          7           0        0.852502    2.975077    0.110079
     11          6           0       -0.693732   -2.384442    1.385918
     12          6           0       -0.992875   -1.070374    0.821580
     13          6           0        0.644864   -2.593831    1.201030
     14          6           0        1.213621   -1.452343    0.652825
     15          6           0       -3.819673    1.619419    0.202308
     16          6           0       -2.519546    0.921139    0.503775
     17          6           0       -2.236580   -0.421756    0.839607
     18          6           0       -3.476272    2.912788   -0.036264
     19          6           0       -1.756537   -3.266225    2.061212
     20          6           0        5.412771   -2.835938   -1.394571
     21          6           0        3.640003   -1.895875   -0.131714
     22          6           0       -1.999371    3.096163   -0.006400
     23          6           0        4.983842   -1.616608   -0.525322
     24          6           0       -5.174735    0.897222    0.355959
     25          6           0        2.616349   -1.086632    0.361350
     26          6           0        1.489577   -3.821539    1.794604
     27          6           0        4.298025   -3.856056   -1.345615
     28          6           0       -2.072637   -4.460807    1.170680
     29          6           0       -5.420941   -0.145225   -0.767580
     30          6           0       -4.476766    3.957778   -0.476195
     31          6           0       -1.204914    4.168801   -0.357908
     32          6           0        6.706241   -3.492406   -0.873119
     33          6           0        5.766120   -0.566664   -0.133079
     34          6           0        0.179490    4.132938   -0.208339
     35          6           0        1.125924    5.205284   -0.503131
     36          6           0        2.401670    4.678449   -0.224002
     37          6           0       -2.984315   -4.055329   -0.067574
     38          6           0        5.482669    0.558794    0.766309
     39          6           0       -6.639184   -0.735580   -0.752390
     40          6           0        3.771967    5.213329   -0.311535
     41          6           0        2.185492    3.342812    0.177903
     42          6           0        0.649173    6.609938   -0.869641
     43          6           0        4.319732    5.378358    1.104517
     44          1           0        0.411390    0.184560   -0.245666
     45          1           0       -3.220144   -1.157642    0.693534
     46          1           0       -2.829722   -2.681925    2.202667
     47          1           0       -1.386844   -3.355851    3.100084
     48          1           0        5.515888   -2.672348   -2.467645
     49          1           0       -5.275639    0.282129    1.375852
     50          1           0       -5.976753    1.705923    0.477218
     51          1           0        2.894167   -0.017603    0.672579
     52          1           0       -0.415194    1.863212    0.300240
     53          1           0        1.772511   -4.692671    1.083353
     54          1           0        2.515105   -3.537050    2.182473
     55          1           0        0.679542   -4.274691    2.644206
     56          1           0        2.338628   -3.910034   -0.174990
     57          1           0       -1.040857   -5.231948    0.663137
     58          1           0       -3.017767   -5.020889    1.856345
     59          1           0       -4.582128   -0.998340   -0.799065
     60          1           0       -5.179665    0.153029   -1.925785
     61          1           0       -4.346060    4.872445    0.007599
     62          1           0       -5.531085    3.644456   -0.506304
     63          1           0       -4.199521    4.174640   -1.506975
     64          1           0       -1.643732    5.221941   -0.644209
     65          1           0        7.654779   -2.836987   -0.766184
     66          1           0        6.946291   -4.477898   -1.333589
     67          1           0        6.701974   -3.741513    0.114830
     68          1           0        6.825695   -0.501275   -0.665417
     69          1           0        4.844055    1.245682    0.144502
     70          1           0        6.408869    1.019456    0.952034
     71          1           0        4.939486    0.202849    1.496164
     72          1           0        3.491624    6.212729   -0.768260
     73          1           0        4.424548    4.523533   -0.808644
     74          1           0        0.020711    6.630549   -1.705842
     75          1           0        1.504843    7.265925   -0.940314
     76          1           0        0.184258    7.008377    0.032712
     77          1           0        3.570707    6.061175    1.707807
     78          1           0        5.377134    5.854234    1.099026
     79          1           0        4.212129    4.524674    1.762993
     80          1           0       -3.349826   -4.733511   -1.774270
     81          1           0       -7.790585   -1.818858   -1.613876
 ---------------------------------------------------------------------

 SCF Done:  E(RB3LYP) =  -1949.06281002     A.U. after   20 cycles

 Excitation energies and oscillator strengths:

 Excited State   1:      Singlet-A      1.7522 eV  707.60 nm  f=0.2933  <S**2>=0.000
     156 ->157         0.70618
     156 <-157        -0.11162
 This state for optimization and/or second-order correction.
 Total Energy, E(TD-HF/TD-DFT) =  -1948.99841847
 Copying the excited state density for this state as the 1-particle RhoCI density.

 The electronic state is 1-A.
 Alpha  occ. eigenvalues --  -19.18417 -19.16977 -19.16439 -19.11519 -19.10246
 Alpha  occ. eigenvalues --  -19.09622 -14.38533 -14.36365 -14.36118 -14.28597
 Alpha  occ. eigenvalues --  -10.34953 -10.30873 -10.28340 -10.26560 -10.25198
 Alpha  occ. eigenvalues --  -10.24590 -10.24536 -10.24264 -10.23595 -10.23531
 Alpha  occ. eigenvalues --  -10.23326 -10.23063 -10.22757 -10.22627 -10.22453
 Alpha  occ. eigenvalues --  -10.22065 -10.21259 -10.21183 -10.20941 -10.20847
 Alpha  occ. eigenvalues --  -10.20568 -10.20314 -10.20313 -10.20213 -10.19901
 Alpha  occ. eigenvalues --  -10.19780 -10.19439 -10.19315 -10.18836 -10.18545
 Alpha  occ. eigenvalues --  -10.18523 -10.18455 -10.16498  -1.11298  -1.10764
 Alpha  occ. eigenvalues --   -1.03672  -1.02727  -1.00252  -1.00116  -1.00035
 Alpha  occ. eigenvalues --   -0.97904  -0.92170  -0.91312  -0.82373  -0.82214
 Alpha  occ. eigenvalues --   -0.81083  -0.80714  -0.80079  -0.79140  -0.78574
 Alpha  occ. eigenvalues --   -0.77305  -0.76837  -0.75768  -0.74404  -0.72652
 Alpha  occ. eigenvalues --   -0.71324  -0.69625  -0.69441  -0.68508  -0.68204
 Alpha  occ. eigenvalues --   -0.67836  -0.65722  -0.64379  -0.62235  -0.61269
 Alpha  occ. eigenvalues --   -0.60588  -0.59567  -0.58892  -0.57012  -0.56286
 Alpha  occ. eigenvalues --   -0.56127  -0.55590  -0.55204  -0.53808  -0.52497
 Alpha  occ. eigenvalues --   -0.51807  -0.51518  -0.51053  -0.50824  -0.49836
 Alpha  occ. eigenvalues --   -0.49093  -0.48673  -0.48263  -0.47960  -0.47638
 Alpha  occ. eigenvalues --   -0.47139  -0.46871  -0.46279  -0.45384  -0.45311
 Alpha  occ. eigenvalues --   -0.44872  -0.44617  -0.44320  -0.44040  -0.43846
 Alpha  occ. eigenvalues --   -0.43622  -0.43136  -0.42914  -0.42513  -0.42038
 Alpha  occ. eigenvalues --   -0.41858  -0.41612  -0.41428  -0.41156  -0.40986
 Alpha  occ. eigenvalues --   -0.40611  -0.40519  -0.40259  -0.39953  -0.39811
 Alpha  occ. eigenvalues --   -0.39496  -0.39189  -0.39005  -0.38689  -0.38225
 Alpha  occ. eigenvalues --   -0.38054  -0.37492  -0.37323  -0.37190  -0.36987
 Alpha  occ. eigenvalues --   -0.36893  -0.36283  -0.35415  -0.34726  -0.34553
 Alpha  occ. eigenvalues --   -0.34203  -0.34084  -0.33818  -0.33624  -0.33098
 Alpha  occ. eigenvalues --   -0.32971  -0.32305  -0.31686  -0.30559  -0.29574
 Alpha  occ. eigenvalues --   -0.27689  -0.27557  -0.26828  -0.26101  -0.25559
 Alpha  occ. eigenvalues --   -0.25273  -0.24961  -0.24104  -0.22943  -0.21669
 Alpha  occ. eigenvalues --   -0.18096
 Alpha virt. eigenvalues --   -0.10974  -0.06325  -0.04283  -0.03126  -0.00758
 Alpha virt. eigenvalues --    0.00316   0.01411   0.02013   0.03095   0.03448
 Alpha virt. eigenvalues --    0.04169   0.04504   0.04957   0.05377   0.05740

 Mulliken charges:
               1
     1  O   -0.211563
     2  O   -0.187833
     3  O   -0.141408
     4  O   -0.184920
     5  O   -0.250389
     6  O   -0.249813
     7  N   -0.027338
     8  N   -0.120105
     9  N   -0.281607
    10  N   -0.320762
    11  C   -0.124663
    12  C    0.043526
    13  C   -0.119241
    14  C    0.044851
    15  C   -0.034416
    16  C    0.039922
    17  C   -0.117653
    18  C   -0.174900
    19  C    0.051741
    20  C   -0.012806
    21  C    0.120406
    22  C    0.122229
    23  C    0.022837
    24  C    0.070191
    25  C   -0.152276
    26  C   -0.038616
    27  C    0.121937
    28  C   -0.103376
    29  C   -0.077344
    30  C    0.147527
    31  C   -0.158078
    32  C    0.050763
    33  C   -0.248781
    34  C    0.073027
    35  C   -0.142738
    36  C   -0.184482
    37  C    0.163499
    38  C    0.200210
    39  C    0.116941
    40  C    0.160857
    41  C    0.141921
    42  C    0.160750
    43  C   -0.050564
    44  H    0.154418
    45  H    0.086077
    46  H    0.046126
    47  H    0.040721
    48  H    0.034509
    49  H    0.053693
    50  H    0.036823
    51  H    0.045319
    52  H    0.161484
    53  H    0.044332
    54  H    0.058218
    55  H    0.050504
    56  H    0.202895
    57  H    0.097069
    58  H    0.082313
    59  H    0.078077
    60  H    0.061691
    61  H   -0.000892
    62  H    0.018214
    63  H    0.011170
    64  H    0.004992
    65  H    0.015848
    66  H    0.030784
    67  H   -0.028642
    68  H    0.017099
    69  H    0.082135
    70  H   -0.000475
    71  H   -0.012173
    72  H    0.003023
    73  H    0.011504
    74  H    0.022063
    75  H   -0.004730
    76  H    0.022038
    77  H   -0.003713
    78  H    0.028815
    79  H    0.030028
    80  H    0.144527
    81  H    0.136651
 Sum of Mulliken charges =  -0.00000

 Dipole moment (field-independent basis, Debye):
    X=             -1.7246    Y=              1.8942    Z=             -0.1300  Tot=              2.5649
 Quadrupole moment (field-independent basis, Debye-Ang):
   XX=           -259.2837   YY=           -247.7990   ZZ=           -254.0682
   XY=             11.0925   XZ=             13.4944   YZ=            -16.5294

 Normal termination of Gaussian 16 at Mon Jul  1 11:54:08 2019.
