 Gaussian 16, Revision A.03,
 Gaussian 16:  ES64L-G16RevA.03 25-Dec-2016

 --------------------------
 # td=(NStates=1) B3LYP/SVP
 --------------------------

 --
 TD
 --
 Symbolic Z-matrix:
 Charge =  0 Multiplicity = 1

                         Standard orientation:
 ---------------------------------------------------------------------
 Center     Atomic      Atomic             Coordinates (Angstroms)
 Number     Number       Type             X           Y           Z
 ---------------------------------------------------------------------
      1          8           0        4.579049   -4.783397   -1.678478
      2          8           0       -2.771970   -4.936051   -1.166239
      3          8           0       -6.984790   -1.794280   -1.871930
      4          8           0       -3.589015   -3.131930   -0.195913
      5          8           0       -7.642288   -0.722190    0.042613
      6          8           0        2.914883    2.538629    0.440635
      7          7           0        0.293523   -0.485226    0.515123
      8          7           0       -1.633902    1.753719    0.467850
      9          7           0        3.478355   -2.950885   -0.605642
     10          7           0        0.662514    2.925142    0.097851
     11          6           0       -0.587118   -2.460739    1.357060
     12          6           0       -0.947813   -1.099237    0.912684
     13          6           0        0.779890   -2.589150    1.272653
     14          6           0        1.325077   -1.380062    0.611766
     15          6           0       -3.876920    1.365706    0.396190
     16          6           0       -2.616674    0.797834    0.660479
     17          6           0       -2.226215   -0.501754    0.864198
     18          6           0       -3.702310    2.726331    0.068105
     19          6           0       -1.499479   -3.388421    1.967532
     20          6           0        5.703501   -2.570772   -1.264756
     21          6           0        3.713180   -1.696830   -0.199876
     22          6           0       -2.224249    2.905163    0.087497
     23          6           0        5.147516   -1.437027   -0.476986
     24          6           0       -5.192221    0.624165    0.413973
     25          6           0        2.648897   -0.999957    0.352661
     26          6           0        1.561036   -3.868963    1.738959
     27          6           0        4.611151   -3.644778   -1.301404
     28          6           0       -1.947663   -4.560993    1.039485
     29          6           0       -5.454719   -0.236972   -0.853328
     30          6           0       -4.638073    3.702914   -0.438539
     31          6           0       -1.473645    3.981259   -0.282346
     32          6           0        7.077088   -3.206071   -0.832427
     33          6           0        5.821591   -0.334190   -0.052858
     34          6           0       -0.102912    3.984645   -0.263933
     35          6           0        0.846072    5.162546   -0.482206
     36          6           0        2.121217    4.694427   -0.258168
     37          6           0       -2.803436   -4.110977   -0.182072
     38          6           0        5.459606    0.820585    0.728227
     39          6           0       -6.786957   -0.906751   -0.804711
     40          6           0        3.528608    5.364423   -0.403373
     41          6           0        2.017959    3.262379    0.092742
     42          6           0        0.371520    6.527892   -0.886070
     43          6           0        4.219997    5.512107    0.933913
     44          1           0        0.282349    0.481275    0.087960
     45          1           0       -3.184708   -1.183451    1.052403
     46          1           0       -2.432877   -2.778513    2.399642
     47          1           0       -1.066250   -3.896581    2.849784
     48          1           0        5.837505   -2.228139   -2.238687
     49          1           0       -5.281490    0.115728    1.404266
     50          1           0       -5.827296    1.449366    0.603535
     51          1           0        2.830926    0.148505    0.541914
     52          1           0       -0.663499    1.812321    0.680080
     53          1           0        1.418954   -4.694824    0.942217
     54          1           0        2.658453   -3.752288    1.918690
     55          1           0        1.155728   -3.880566    2.689351
     56          1           0        2.467237   -3.265567   -0.893287
     57          1           0       -1.061874   -5.167462    0.592834
     58          1           0       -2.375161   -5.213945    1.737509
     59          1           0       -4.405387   -0.983082   -1.160640
     60          1           0       -5.359112    0.669147   -1.718475
     61          1           0       -4.942997    4.462776    0.435865
     62          1           0       -5.625675    3.189862   -0.790494
     63          1           0       -4.291217    4.013032   -1.314036
     64          1           0       -2.057873    4.838693   -0.594405
     65          1           0        7.920634   -2.428713   -0.758531
     66          1           0        7.249085   -4.081544   -1.412838
     67          1           0        7.106767   -3.396319    0.239542
     68          1           0        6.875641   -0.055886   -0.662021
     69          1           0        4.945660    1.554382    0.026311
     70          1           0        6.320871    1.157398    1.387986
     71          1           0        4.664887    0.673981    1.482336
     72          1           0        3.274931    6.295939   -0.981126
     73          1           0        4.106802    4.837111   -1.176067
     74          1           0       -0.193971    6.731877   -1.892018
     75          1           0        1.230927    7.263178   -1.001995
     76          1           0       -0.348266    6.894616   -0.045822
     77          1           0        3.463081    6.227695    1.873593
     78          1           0        5.199103    6.033697    0.897291
     79          1           0        4.400588    4.381517    1.297038
     80          1           0       -3.427842   -4.746848   -1.810861
     81          1           0       -7.756021   -2.176255   -1.671042
 ---------------------------------------------------------------------

 SCF Done:  E(RB3LYP) =  -1949.11665768     A.U. after   17 cycles

 Excitation energies and oscillator strengths:

 Excited State   1:      Singlet-A      1.7722 eV  699.61 nm  f=0.3591  <S**2>=0.000
     156 ->157         0.70965
     156 <-157        -0.12245
 This state for optimization and/or second-order correction.
 Total Energy, E(TD-HF/TD-DFT) =  -1949.05153051
 Copying the excited state density for this state as the 1-particle RhoCI density.

 The electronic state is 1-A.
 Alpha  occ. eigenvalues --  -19.20807 -19.17055 -19.13960 -19.13544 -19.13361
 Alpha  occ. eigenvalues --  -19.09596 -14.37873 -14.36972 -14.34829 -14.27287
 Alpha  occ. eigenvalues --  -10.34060 -10.32750 -10.31140 -10.25123 -10.24385
 Alpha  occ. eigenvalues --  -10.24040 -10.23618 -10.23231 -10.22603 -10.22452
 Alpha  occ. eigenvalues --  -10.21791 -10.21729 -10.21435 -10.21427 -10.21397
 Alpha  occ. eigenvalues --  -10.21047 -10.20805 -10.20349 -10.20322 -10.20076
 Alpha  occ. eigenvalues --  -10.19917 -10.19902 -10.19801 -10.19778 -10.19721
 Alpha  occ. eigenvalues --  -10.19716 -10.19674 -10.19581 -10.19075 -10.18510
 Alpha  occ. eigenvalues --  -10.18152 -10.17990 -10.17282  -1.13823  -1.09464
 Alpha  occ. eigenvalues --   -1.05530  -1.01518  -1.01087  -1.00171  -0.98078
 Alpha  occ. eigenvalues --   -0.96325  -0.95512  -0.90091  -0.82725  -0.82067
 Alpha  occ. eigenvalues --   -0.82028  -0.80767  -0.78431  -0.77763  -0.77391
 Alpha  occ. eigenvalues --   -0.76905  -0.76316  -0.74449  -0.73363  -0.72306
 Alpha  occ. eigenvalues --   -0.71556  -0.70160  -0.69367  -0.68411  -0.68017
 Alpha  occ. eigenvalues --   -0.66932  -0.65181  -0.64094  -0.63276  -0.61694
 Alpha  occ. eigenvalues --   -0.59855  -0.58872  -0.58493  -0.57512  -0.56843
 Alpha  occ. eigenvalues --   -0.55647  -0.54972  -0.54379  -0.53069  -0.52606
 Alpha  occ. eigenvalues --   -0.52093  -0.51174  -0.50679  -0.50146  -0.49806
 Alpha  occ. eigenvalues --   -0.48921  -0.48793  -0.48441  -0.48090  -0.47569
 Alpha  occ. eigenvalues --   -0.46527  -0.46148  -0.45936  -0.45539  -0.45435
 Alpha  occ. eigenvalues --   -0.45205  -0.44840  -0.44475  -0.43913  -0.43661
 Alpha  occ. eigenvalues --   -0.43374  -0.42938  -0.42541  -0.42265  -0.41963
 Alpha  occ. eigenvalues --   -0.41739  -0.41602  -0.41238  -0.40861  -0.40484
 Alpha  occ. eigenvalues --   -0.40429  -0.40219  -0.39819  -0.39667  -0.39144
 Alpha  occ. eigenvalues --   -0.39021  -0.38992  -0.38174  -0.38122  -0.37819
 Alpha  occ. eigenvalues --   -0.37646  -0.37481  -0.37343  -0.36947  -0.36627
 Alpha  occ. eigenvalues --   -0.36171  -0.35807  -0.35419  -0.34878  -0.34604
 Alpha  occ. eigenvalues --   -0.34403  -0.33573  -0.33001  -0.32564  -0.32425
 Alpha  occ. eigenvalues --   -0.32130  -0.31937  -0.31028  -0.29416  -0.28951
 Alpha  occ. eigenvalues --   -0.28716  -0.28114  -0.26370  -0.25879  -0.25525
 Alpha  occ. eigenvalues --   -0.25222  -0.24631  -0.23009  -0.22703  -0.20890
 Alpha  occ. eigenvalues --   -0.16719
 Alpha virt. eigenvalues --   -0.09626  -0.05508  -0.03724  -0.02391  -0.01818
 Alpha virt. eigenvalues --   -0.01577   0.01933   0.02480   0.03760   0.04278
 Alpha virt. eigenvalues --    0.04665   0.04734   0.05087   0.05355   0.06427

 Mulliken charges:
               1
     1  O   -0.164060
     2  O   -0.086513
     3  O   -0.164075
     4  O   -0.275173
     5  O   -0.222183
     6  O   -0.209428
     7  N   -0.115993
     8  N   -0.055257
     9  N   -0.214722
    10  N   -0.341415
    11  C   -0.046745
    12  C    0.075477
    13  C   -0.192912
    14  C    0.090056
    15  C   -0.125242
    16  C    0.067022
    17  C   -0.096989
    18  C   -0.135172
    19  C    0.031849
    20  C   -0.007050
    21  C    0.106583
    22  C    0.045304
    23  C    0.005307
    24  C    0.140603
    25  C   -0.199618
    26  C    0.099170
    27  C    0.156996
    28  C    0.002468
    29  C   -0.124958
    30  C    0.105483
    31  C   -0.129926
    32  C    0.054904
    33  C   -0.215522
    34  C    0.123833
    35  C   -0.066632
    36  C   -0.191820
    37  C    0.138883
    38  C    0.045528
    39  C    0.198909
    40  C    0.107253
    41  C    0.150585
    42  C    0.009397
    43  C   -0.090468
    44  H    0.150327
    45  H    0.051892
    46  H    0.039538
    47  H    0.004957
    48  H    0.025321
    49  H    0.015359
    50  H   -0.007090
    51  H    0.058849
    52  H    0.116023
    53  H    0.051386
    54  H    0.025628
    55  H    0.007916
    56  H    0.167144
    57  H    0.040807
    58  H    0.030195
    59  H    0.116590
    60  H    0.068817
    61  H    0.056236
    62  H    0.012834
    63  H   -0.004610
    64  H   -0.044499
    65  H    0.020509
    66  H    0.038667
    67  H    0.003856
    68  H    0.025019
    69  H    0.084013
    70  H    0.026148
    71  H    0.027435
    72  H   -0.017130
    73  H    0.011439
    74  H    0.038836
    75  H    0.019384
    76  H    0.038116
    77  H    0.025075
    78  H    0.024028
    79  H    0.067187
    80  H    0.175223
    81  H    0.124836
 Sum of Mulliken charges =  -0.00000

 Dipole moment (field-independent basis, Debye):
    X=             -1.0504    Y=             -2.0342    Z=             -1.7452  Tot=              2.8787
 Quadrupole moment (field-independent basis, Debye-Ang):
   XX=           -251.6791   YY=           -241.0259   ZZ=           -251.0527
   XY=             10.6219   XZ=              7.6400   YZ=            -10.8971

 Normal termination of Gaussian 16 at Tue Jul  2 01:33:21 2019.
