 Gaussian 16, Revision A.03,
 Gaussian 16:  ES64L-G16RevA.03 25-Dec-2016

 --------------------------
 # td=(NStates=1) B3LYP/SVP
 --------------------------

 --
 TD
 --
 Symbolic Z-matrix:
 Charge =  0 Multiplicity = 1

                         Standard orientation:
 ---------------------------------------------------------------------
 Center     Atomic      Atomic             Coordinates (Angstroms)
 Number     Number       Type             X           Y           Z
 ---------------------------------------------------------------------
      1          8           0        4.204795   -4.771207   -1.973243
      2          8           0       -2.882133   -4.883739   -1.054731
      3          8           0       -6.989212   -1.417897   -2.100729
      4          8           0       -3.752607   -3.191298    0.142146
      5          8           0       -7.656360   -0.588693   -0.054911
      6          8           0        3.071009    2.346957    0.124313
      7          7           0        0.325742   -0.472242    0.651710
      8          7           0       -1.547262    1.824869    0.497903
      9          7           0        3.220009   -3.081513   -0.719808
     10          7           0        0.746547    2.846891    0.150101
     11          6           0       -0.510579   -2.346109    1.343211
     12          6           0       -0.882279   -1.074975    1.007543
     13          6           0        0.774930   -2.551762    1.306127
     14          6           0        1.345947   -1.354719    0.849131
     15          6           0       -3.816012    1.469654    0.464740
     16          6           0       -2.486752    0.827973    0.622359
     17          6           0       -2.163885   -0.558831    0.841261
     18          6           0       -3.558144    2.775261    0.063716
     19          6           0       -1.559938   -3.324003    2.008557
     20          6           0        5.432183   -2.681550   -1.359501
     21          6           0        3.575072   -1.801678   -0.259495
     22          6           0       -2.195655    2.918341    0.140572
     23          6           0        5.025002   -1.583046   -0.572457
     24          6           0       -5.161691    0.654712    0.362236
     25          6           0        2.652368   -0.933857    0.373586
     26          6           0        1.561945   -3.676309    1.874380
     27          6           0        4.245840   -3.688820   -1.428919
     28          6           0       -1.921226   -4.450476    1.096891
     29          6           0       -5.456406   -0.023381   -0.917548
     30          6           0       -4.579857    3.801216   -0.326194
     31          6           0       -1.315185    4.024089   -0.295776
     32          6           0        6.895081   -3.267148   -1.033212
     33          6           0        5.850476   -0.541460   -0.108061
     34          6           0        0.071580    3.987009   -0.248275
     35          6           0        1.011176    5.017444   -0.406158
     36          6           0        2.303193    4.626829   -0.260493
     37          6           0       -2.998945   -4.062126    0.068799
     38          6           0        5.440734    0.531088    0.872474
     39          6           0       -6.818404   -0.688152   -0.953101
     40          6           0        3.588893    5.310915   -0.359252
     41          6           0        2.109408    3.174484    0.048967
     42          6           0        0.594093    6.469035   -0.997059
     43          6           0        4.418630    5.393062    1.045446
     44          1           0        0.343569    0.372791   -0.012061
     45          1           0       -3.065588   -1.238430    0.880087
     46          1           0       -2.534387   -2.716064    2.399103
     47          1           0       -1.337988   -3.625751    3.136731
     48          1           0        5.245324   -2.199399   -2.404663
     49          1           0       -5.235380   -0.129816    1.145483
     50          1           0       -5.994659    1.337659    0.682664
     51          1           0        2.806373    0.125608    0.396439
     52          1           0       -0.508384    2.019553    0.750780
     53          1           0        1.738429   -4.574677    1.292157
     54          1           0        2.579400   -3.348208    2.278466
     55          1           0        1.102270   -4.028254    2.771645
     56          1           0        2.263139   -3.571571   -0.684529
     57          1           0       -0.985433   -4.929168    0.552236
     58          1           0       -2.370170   -5.338576    1.738461
     59          1           0       -4.703000   -0.959859   -1.096001
     60          1           0       -5.140739    0.473449   -1.820013
     61          1           0       -4.267197    4.706154    0.263214
     62          1           0       -5.530665    3.640311   -0.224649
     63          1           0       -4.182399    4.165374   -1.291913
     64          1           0       -1.838833    4.942444   -0.605487
     65          1           0        7.597503   -2.542764   -1.347399
     66          1           0        7.018780   -4.264276   -1.473817
     67          1           0        6.900753   -3.419597    0.217693
     68          1           0        6.924585   -0.717338   -0.251340
     69          1           0        5.107769    1.352233    0.261487
     70          1           0        6.306953    0.837496    1.521134
     71          1           0        4.817762    0.230930    1.547882
     72          1           0        3.406938    6.335644   -0.861431
     73          1           0        4.220705    4.657339   -1.000707
     74          1           0       -0.234954    6.147564   -1.789838
     75          1           0        1.538463    6.989767   -1.188403
     76          1           0       -0.115896    6.885156   -0.271305
     77          1           0        3.924325    6.199295    1.834295
     78          1           0        5.492118    5.776816    0.954160
     79          1           0        4.240001    4.509436    1.625165
     80          1           0       -3.511898   -4.254721   -1.583479
     81          1           0       -8.026324   -1.861831   -2.251327
 ---------------------------------------------------------------------

 SCF Done:  E(RB3LYP) =  -1949.10878789     A.U. after   19 cycles

 Excitation energies and oscillator strengths:

 Excited State   1:      Singlet-A      1.8135 eV  683.69 nm  f=0.3503  <S**2>=0.000
     156 ->157         0.70890
     156 <-157        -0.12111
 This state for optimization and/or second-order correction.
 Total Energy, E(TD-HF/TD-DFT) =  -1949.04214472
 Copying the excited state density for this state as the 1-particle RhoCI density.

 The electronic state is 1-A.
 Alpha  occ. eigenvalues --  -19.19262 -19.19187 -19.16356 -19.12897 -19.11559
 Alpha  occ. eigenvalues --  -19.09015 -14.38200 -14.37849 -14.35294 -14.28153
 Alpha  occ. eigenvalues --  -10.33807 -10.32769 -10.29686 -10.25656 -10.25574
 Alpha  occ. eigenvalues --  -10.23841 -10.23492 -10.23349 -10.23059 -10.22674
 Alpha  occ. eigenvalues --  -10.22598 -10.22230 -10.21596 -10.21470 -10.21212
 Alpha  occ. eigenvalues --  -10.21067 -10.20970 -10.20811 -10.20443 -10.20239
 Alpha  occ. eigenvalues --  -10.20001 -10.19877 -10.19874 -10.19782 -10.19584
 Alpha  occ. eigenvalues --  -10.19373 -10.19269 -10.19216 -10.19049 -10.18987
 Alpha  occ. eigenvalues --  -10.18844 -10.17948 -10.16009  -1.13065  -1.07049
 Alpha  occ. eigenvalues --   -1.03862  -1.03085  -0.99653  -0.99011  -0.98894
 Alpha  occ. eigenvalues --   -0.97922  -0.95475  -0.90611  -0.83088  -0.82166
 Alpha  occ. eigenvalues --   -0.81966  -0.81400  -0.79048  -0.78777  -0.78100
 Alpha  occ. eigenvalues --   -0.77155  -0.75713  -0.74260  -0.73330  -0.72208
 Alpha  occ. eigenvalues --   -0.71482  -0.69760  -0.68768  -0.67618  -0.66889
 Alpha  occ. eigenvalues --   -0.66561  -0.65519  -0.64496  -0.62527  -0.61361
 Alpha  occ. eigenvalues --   -0.59163  -0.58799  -0.58078  -0.57630  -0.57160
 Alpha  occ. eigenvalues --   -0.56202  -0.55489  -0.54350  -0.54120  -0.53689
 Alpha  occ. eigenvalues --   -0.51697  -0.51519  -0.51259  -0.51021  -0.50223
 Alpha  occ. eigenvalues --   -0.49825  -0.49331  -0.48899  -0.47947  -0.47312
 Alpha  occ. eigenvalues --   -0.46916  -0.46817  -0.46036  -0.45681  -0.45332
 Alpha  occ. eigenvalues --   -0.45077  -0.44754  -0.44285  -0.44228  -0.43740
 Alpha  occ. eigenvalues --   -0.43196  -0.43133  -0.42757  -0.42573  -0.42096
 Alpha  occ. eigenvalues --   -0.41960  -0.41837  -0.41484  -0.41279  -0.41042
 Alpha  occ. eigenvalues --   -0.40960  -0.40670  -0.40200  -0.39839  -0.39619
 Alpha  occ. eigenvalues --   -0.39602  -0.39122  -0.38814  -0.38256  -0.37854
 Alpha  occ. eigenvalues --   -0.37446  -0.37367  -0.36959  -0.36681  -0.36648
 Alpha  occ. eigenvalues --   -0.36201  -0.36005  -0.35218  -0.34915  -0.34703
 Alpha  occ. eigenvalues --   -0.34404  -0.34092  -0.34056  -0.33408  -0.32835
 Alpha  occ. eigenvalues --   -0.32318  -0.32133  -0.31786  -0.31141  -0.29987
 Alpha  occ. eigenvalues --   -0.28328  -0.27543  -0.26915  -0.26808  -0.25744
 Alpha  occ. eigenvalues --   -0.25406  -0.24428  -0.23166  -0.22448  -0.20962
 Alpha  occ. eigenvalues --   -0.17816
 Alpha virt. eigenvalues --   -0.10586  -0.05952  -0.04341  -0.01732  -0.00800
 Alpha virt. eigenvalues --   -0.00250   0.00346   0.01757   0.02715   0.03440
 Alpha virt. eigenvalues --    0.04239   0.04588   0.05389   0.05793   0.06123

 Mulliken charges:
               1
     1  O   -0.201902
     2  O   -0.236045
     3  O   -0.291883
     4  O   -0.158947
     5  O   -0.240023
     6  O   -0.278717
     7  N   -0.108314
     8  N   -0.067549
     9  N   -0.159071
    10  N   -0.362154
    11  C   -0.035050
    12  C    0.093575
    13  C   -0.164730
    14  C    0.061133
    15  C   -0.096150
    16  C    0.018924
    17  C   -0.085358
    18  C   -0.169507
    19  C   -0.034933
    20  C   -0.069431
    21  C    0.097448
    22  C    0.029482
    23  C   -0.043506
    24  C    0.098178
    25  C   -0.078976
    26  C    0.098960
    27  C    0.107651
    28  C   -0.014235
    29  C   -0.034532
    30  C    0.227149
    31  C   -0.118063
    32  C    0.032893
    33  C   -0.154674
    34  C    0.140433
    35  C   -0.141775
    36  C   -0.134744
    37  C    0.136340
    38  C    0.155126
    39  C    0.192803
    40  C    0.073506
    41  C    0.159724
    42  C    0.090506
    43  C   -0.050203
    44  H    0.176557
    45  H    0.041375
    46  H    0.032619
    47  H    0.035566
    48  H    0.065221
    49  H    0.016569
    50  H    0.022489
    51  H    0.010719
    52  H    0.180779
    53  H    0.014303
    54  H    0.032038
    55  H   -0.004219
    56  H    0.166346
    57  H    0.060810
    58  H    0.059876
    59  H    0.047962
    60  H    0.025084
    61  H    0.012190
    62  H   -0.026662
    63  H    0.011277
    64  H   -0.042360
    65  H    0.032985
    66  H    0.042781
    67  H    0.043482
    68  H   -0.003012
    69  H    0.064981
    70  H   -0.006420
    71  H   -0.027253
    72  H    0.010315
    73  H    0.025149
    74  H    0.031816
    75  H    0.032023
    76  H    0.010571
    77  H    0.006108
    78  H    0.036019
    79  H    0.032616
    80  H    0.189127
    81  H    0.256808
 Sum of Mulliken charges =  -0.00000

 Dipole moment (field-independent basis, Debye):
    X=             -2.5287    Y=             -0.7222    Z=             -0.3143  Tot=              2.6485
 Quadrupole moment (field-independent basis, Debye-Ang):
   XX=           -244.8682   YY=           -252.2080   ZZ=           -252.7112
   XY=              9.4290   XZ=             18.8103   YZ=            -14.6408

 Normal termination of Gaussian 16 at Thu Jun 27 22:04:15 2019.
