 Gaussian 16, Revision A.03,
 Gaussian 16:  ES64L-G16RevA.03 25-Dec-2016

 --------------------------
 # td=(NStates=1) B3LYP/SVP
 --------------------------

 --
 TD
 --
 Symbolic Z-matrix:
 Charge =  0 Multiplicity = 1

                         Standard orientation:
 ---------------------------------------------------------------------
 Center     Atomic      Atomic             Coordinates (Angstroms)
 Number     Number       Type             X           Y           Z
 ---------------------------------------------------------------------
      1          8           0        4.281081   -4.895388   -1.853947
      2          8           0       -2.846655   -4.911405   -1.079388
      3          8           0       -6.571942   -1.824420   -1.758909
      4          8           0       -3.750271   -3.097795   -0.008777
      5          8           0       -7.476480   -0.812619   -0.062589
      6          8           0        2.974593    2.421818    0.342320
      7          7           0        0.304495   -0.430093    0.531453
      8          7           0       -1.617751    1.862775    0.356831
      9          7           0        3.291976   -3.261179   -0.627579
     10          7           0        0.737069    2.953219    0.021006
     11          6           0       -0.685401   -2.316765    1.514990
     12          6           0       -0.933183   -1.009467    0.996843
     13          6           0        0.688256   -2.599630    1.226960
     14          6           0        1.293113   -1.408063    0.623262
     15          6           0       -3.862644    1.580574    0.225919
     16          6           0       -2.541029    0.868226    0.490298
     17          6           0       -2.288552   -0.354577    0.940975
     18          6           0       -3.549736    2.919127   -0.099224
     19          6           0       -1.739654   -3.205297    2.094741
     20          6           0        5.512151   -2.932192   -1.186651
     21          6           0        3.410603   -1.908502   -0.220970
     22          6           0       -2.134451    3.090140   -0.046037
     23          6           0        4.870752   -1.669026   -0.527283
     24          6           0       -5.096405    0.874737    0.310220
     25          6           0        2.578030   -0.967202    0.316457
     26          6           0        1.439190   -3.689174    1.785721
     27          6           0        4.313057   -3.823936   -1.324865
     28          6           0       -2.093882   -4.446415    1.120571
     29          6           0       -5.312229   -0.103832   -0.886712
     30          6           0       -4.483875    3.935687   -0.538155
     31          6           0       -1.303263    4.130578   -0.324156
     32          6           0        6.748331   -3.630787   -0.751095
     33          6           0        5.723743   -0.707560   -0.148650
     34          6           0        0.159502    4.068797   -0.375749
     35          6           0        1.118342    5.201917   -0.493346
     36          6           0        2.299489    4.709156   -0.177595
     37          6           0       -2.974033   -4.035278    0.002821
     38          6           0        5.502387    0.616604    0.628416
     39          6           0       -6.585942   -0.895905   -0.846832
     40          6           0        3.631651    5.267197   -0.237268
     41          6           0        2.088158    3.226809    0.069658
     42          6           0        0.725827    6.616418   -0.869611
     43          6           0        4.229930    5.619296    1.143472
     44          1           0        0.625227    0.503636    0.049911
     45          1           0       -3.101714   -1.164801    1.196587
     46          1           0       -2.579186   -2.613864    2.203441
     47          1           0       -1.385091   -3.704464    2.918194
     48          1           0        5.546060   -2.445855   -2.230014
     49          1           0       -5.044341    0.338174    1.287048
     50          1           0       -5.841062    1.629824    0.415258
     51          1           0        2.869435   -0.054785    0.689073
     52          1           0       -0.594631    1.805800    0.574082
     53          1           0        1.283739   -4.768196    1.238644
     54          1           0        2.385314   -3.470833    2.009166
     55          1           0        0.669960   -4.053172    2.609609
     56          1           0        2.453501   -3.681883   -0.460744
     57          1           0       -1.260377   -5.107128    0.817407
     58          1           0       -2.803143   -5.103822    1.734866
     59          1           0       -4.531415   -0.871442   -0.903745
     60          1           0       -5.070734    0.515576   -1.650248
     61          1           0       -4.338462    4.825417    0.035193
     62          1           0       -5.533337    3.769495   -0.314637
     63          1           0       -4.524398    4.052776   -1.609631
     64          1           0       -1.817523    5.054092   -0.548354
     65          1           0        7.538489   -2.894199   -1.034948
     66          1           0        6.938865   -4.455034   -1.438070
     67          1           0        6.584447   -3.969057    0.331622
     68          1           0        6.756831   -0.811428   -0.278183
     69          1           0        4.908019    1.397579    0.100273
     70          1           0        6.549942    1.111510    0.829899
     71          1           0        4.902150    0.489209    1.518195
     72          1           0        3.507463    6.264868   -0.795047
     73          1           0        4.257778    4.789077   -0.789653
     74          1           0       -0.027533    6.622649   -1.727377
     75          1           0        1.592433    7.207224   -1.271547
     76          1           0        0.427257    7.092513    0.073027
     77          1           0        3.406496    6.447331    1.440281
     78          1           0        5.126023    6.126604    1.354298
     79          1           0        4.371327    4.879904    1.880539
     80          1           0       -3.237896   -4.411913   -1.862511
     81          1           0       -7.392433   -2.385906   -1.616287
 ---------------------------------------------------------------------

 SCF Done:  E(RB3LYP) =  -1949.14398595     A.U. after   16 cycles

 Excitation energies and oscillator strengths:

 Excited State   1:      Singlet-A      1.7586 eV  705.01 nm  f=0.2755  <S**2>=0.000
     156 ->157         0.70822
     156 <-157        -0.10956
 This state for optimization and/or second-order correction.
 Total Energy, E(TD-HF/TD-DFT) =  -1949.07935808
 Copying the excited state density for this state as the 1-particle RhoCI density.

 The electronic state is 1-A.
 Alpha  occ. eigenvalues --  -19.18827 -19.18240 -19.14816 -19.11770 -19.10968
 Alpha  occ. eigenvalues --  -19.10354 -14.37563 -14.36689 -14.35291 -14.29492
 Alpha  occ. eigenvalues --  -10.33681 -10.31292 -10.28211 -10.26700 -10.24748
 Alpha  occ. eigenvalues --  -10.23838 -10.23768 -10.23676 -10.22691 -10.22672
 Alpha  occ. eigenvalues --  -10.22514 -10.21475 -10.20888 -10.20769 -10.20595
 Alpha  occ. eigenvalues --  -10.20268 -10.20177 -10.20132 -10.19829 -10.19725
 Alpha  occ. eigenvalues --  -10.19521 -10.19420 -10.19405 -10.19377 -10.19317
 Alpha  occ. eigenvalues --  -10.19021 -10.18883 -10.18545 -10.18458 -10.18316
 Alpha  occ. eigenvalues --  -10.18235 -10.17946 -10.17645  -1.11356  -1.09253
 Alpha  occ. eigenvalues --   -1.04263  -1.01806  -1.01144  -1.00732  -0.97334
 Alpha  occ. eigenvalues --   -0.95772  -0.94981  -0.93322  -0.82858  -0.82626
 Alpha  occ. eigenvalues --   -0.81678  -0.81275  -0.81105  -0.79685  -0.78122
 Alpha  occ. eigenvalues --   -0.77441  -0.76079  -0.75451  -0.74168  -0.72802
 Alpha  occ. eigenvalues --   -0.72183  -0.69826  -0.69605  -0.68694  -0.68314
 Alpha  occ. eigenvalues --   -0.67478  -0.65600  -0.64410  -0.63518  -0.62159
 Alpha  occ. eigenvalues --   -0.60750  -0.59605  -0.58824  -0.58013  -0.56549
 Alpha  occ. eigenvalues --   -0.55876  -0.55418  -0.54847  -0.53520  -0.53175
 Alpha  occ. eigenvalues --   -0.52869  -0.52190  -0.51351  -0.51073  -0.50297
 Alpha  occ. eigenvalues --   -0.49323  -0.48891  -0.48724  -0.48419  -0.48016
 Alpha  occ. eigenvalues --   -0.47940  -0.47327  -0.46836  -0.46443  -0.45929
 Alpha  occ. eigenvalues --   -0.45674  -0.45412  -0.44583  -0.44280  -0.44049
 Alpha  occ. eigenvalues --   -0.43801  -0.42999  -0.42953  -0.42696  -0.42556
 Alpha  occ. eigenvalues --   -0.42258  -0.41927  -0.41680  -0.41586  -0.41398
 Alpha  occ. eigenvalues --   -0.41136  -0.40450  -0.39752  -0.39511  -0.39380
 Alpha  occ. eigenvalues --   -0.39247  -0.39038  -0.38773  -0.38728  -0.38522
 Alpha  occ. eigenvalues --   -0.38148  -0.37771  -0.37545  -0.36962  -0.36660
 Alpha  occ. eigenvalues --   -0.36457  -0.36412  -0.36162  -0.35595  -0.34959
 Alpha  occ. eigenvalues --   -0.34161  -0.34088  -0.33568  -0.33438  -0.33314
 Alpha  occ. eigenvalues --   -0.32702  -0.32260  -0.31740  -0.30289  -0.29831
 Alpha  occ. eigenvalues --   -0.28628  -0.27964  -0.26576  -0.25517  -0.25298
 Alpha  occ. eigenvalues --   -0.24967  -0.24715  -0.24041  -0.23813  -0.21680
 Alpha  occ. eigenvalues --   -0.17551
 Alpha virt. eigenvalues --   -0.10405  -0.05383  -0.03619  -0.02253   0.01203
 Alpha virt. eigenvalues --    0.01616   0.01970   0.02865   0.03995   0.04120
 Alpha virt. eigenvalues --    0.04171   0.04618   0.05332   0.05496   0.06326

 Mulliken charges:
               1
     1  O   -0.189398
     2  O   -0.237315
     3  O   -0.162044
     4  O   -0.221991
     5  O   -0.214753
     6  O   -0.210267
     7  N   -0.189952
     8  N   -0.109147
     9  N   -0.075604
    10  N   -0.273260
    11  C   -0.118525
    12  C    0.043866
    13  C   -0.151082
    14  C    0.098822
    15  C   -0.131779
    16  C    0.131053
    17  C   -0.118245
    18  C   -0.110582
    19  C    0.222107
    20  C   -0.101243
    21  C    0.145014
    22  C    0.111686
    23  C   -0.027263
    24  C    0.146326
    25  C   -0.117303
    26  C    0.073771
    27  C    0.074820
    28  C   -0.018275
    29  C    0.022079
    30  C    0.130139
    31  C   -0.121164
    32  C    0.121597
    33  C   -0.160705
    34  C    0.076681
    35  C   -0.104959
    36  C   -0.168401
    37  C    0.146325
    38  C    0.022971
    39  C    0.126327
    40  C    0.170146
    41  C    0.148356
    42  C    0.088100
    43  C   -0.014271
    44  H    0.187197
    45  H    0.058936
    46  H   -0.016068
    47  H   -0.021019
    48  H    0.043756
    49  H    0.017313
    50  H   -0.012400
    51  H   -0.005014
    52  H    0.143336
    53  H    0.022039
    54  H    0.011784
    55  H    0.005664
    56  H    0.086974
    57  H    0.041590
    58  H    0.056843
    59  H    0.045732
    60  H    0.001815
    61  H    0.010956
    62  H   -0.012071
    63  H    0.025479
    64  H   -0.044224
    65  H    0.019908
    66  H    0.024559
    67  H    0.039516
    68  H   -0.029787
    69  H    0.060182
    70  H    0.010804
    71  H    0.025596
    72  H   -0.013716
    73  H   -0.040192
    74  H    0.037619
    75  H    0.017781
    76  H    0.040203
    77  H    0.006744
    78  H   -0.007136
    79  H    0.013929
    80  H    0.201974
    81  H    0.190741
 Sum of Mulliken charges =  -0.00000

 Dipole moment (field-independent basis, Debye):
    X=             -2.0704    Y=              1.7425    Z=             -0.2791  Tot=              2.7205
 Quadrupole moment (field-independent basis, Debye-Ang):
   XX=           -256.9028   YY=           -238.0857   ZZ=           -252.5173
   XY=             14.3094   XZ=             13.2452   YZ=            -16.0606

 Normal termination of Gaussian 16 at Sun Jun 30 18:36:50 2019.
