 Gaussian 16, Revision A.03,
 Gaussian 16:  ES64L-G16RevA.03 25-Dec-2016

 --------------------------
 # td=(NStates=1) B3LYP/SVP
 --------------------------

 --
 TD
 --
 Symbolic Z-matrix:
 Charge =  0 Multiplicity = 1

                         Standard orientation:
 ---------------------------------------------------------------------
 Center     Atomic      Atomic             Coordinates (Angstroms)
 Number     Number       Type             X           Y           Z
 ---------------------------------------------------------------------
      1          8           0        4.100540   -4.948358   -1.873019
      2          8           0       -2.798908   -4.886521   -1.054740
      3          8           0       -7.119898   -1.388039   -1.960394
      4          8           0       -3.827278   -3.085035    0.103410
      5          8           0       -7.588888   -0.559046    0.162579
      6          8           0        3.109156    2.341153    0.513401
      7          7           0        0.338218   -0.532544    0.662458
      8          7           0       -1.548754    1.816770    0.240802
      9          7           0        3.215038   -3.082501   -0.696142
     10          7           0        0.864199    2.878529    0.091949
     11          6           0       -0.578054   -2.342960    1.494361
     12          6           0       -0.936475   -1.025358    1.069754
     13          6           0        0.762404   -2.589816    1.270532
     14          6           0        1.386988   -1.438983    0.722396
     15          6           0       -3.763306    1.477020    0.273630
     16          6           0       -2.562598    0.871778    0.519974
     17          6           0       -2.221859   -0.429988    0.892478
     18          6           0       -3.463638    2.887763   -0.184550
     19          6           0       -1.630590   -3.302229    2.098901
     20          6           0        5.406770   -2.849019   -1.525728
     21          6           0        3.594512   -1.815752   -0.112773
     22          6           0       -2.061540    3.007630   -0.230470
     23          6           0        5.012344   -1.559331   -0.664751
     24          6           0       -5.134598    0.815544    0.415385
     25          6           0        2.704447   -0.959871    0.491654
     26          6           0        1.484149   -3.758945    1.774578
     27          6           0        4.194847   -3.754837   -1.355376
     28          6           0       -2.086035   -4.408776    1.199162
     29          6           0       -5.454326   -0.156555   -0.894232
     30          6           0       -4.523357    3.878375   -0.629699
     31          6           0       -1.251774    4.059202   -0.470063
     32          6           0        6.682002   -3.512231   -1.074481
     33          6           0        5.834119   -0.551591   -0.223045
     34          6           0        0.114716    3.982356   -0.321967
     35          6           0        1.105719    5.135081   -0.407027
     36          6           0        2.321184    4.680058   -0.180850
     37          6           0       -3.003887   -4.030431    0.042956
     38          6           0        5.547355    0.511702    0.714406
     39          6           0       -6.822971   -0.843292   -0.738218
     40          6           0        3.661443    5.256555   -0.106811
     41          6           0        2.132719    3.218071    0.125171
     42          6           0        0.728246    6.504762   -1.010106
     43          6           0        4.271035    5.539872    1.315933
     44          1           0        0.549663    0.278055    0.151201
     45          1           0       -3.095281   -0.999093    1.047258
     46          1           0       -2.521335   -2.674064    2.370941
     47          1           0       -1.169756   -3.608807    3.037163
     48          1           0        5.467275   -2.605153   -2.637682
     49          1           0       -4.957191    0.133636    1.288614
     50          1           0       -6.005782    1.512024    0.757189
     51          1           0        3.057849    0.142031    0.584352
     52          1           0       -0.511205    1.736336    0.396639
     53          1           0        1.315476   -4.726585    1.198525
     54          1           0        2.515903   -3.567844    1.906765
     55          1           0        1.261551   -4.050490    3.009580
     56          1           0        2.344902   -3.596100   -0.418344
     57          1           0       -1.297537   -4.737881    0.683893
     58          1           0       -2.454542   -5.186409    1.753529
     59          1           0       -4.751184   -0.959937   -1.132071
     60          1           0       -5.518906    0.587395   -1.702650
     61          1           0       -4.452963    4.762748    0.234659
     62          1           0       -5.461446    3.242270   -0.779608
     63          1           0       -4.164592    4.321565   -1.486100
     64          1           0       -1.673760    4.960408   -0.870285
     65          1           0        7.576634   -2.760926   -0.957215
     66          1           0        6.817672   -4.162018   -1.933570
     67          1           0        6.497272   -4.077998   -0.139906
     68          1           0        6.959616   -0.636125   -0.483295
     69          1           0        4.988777    1.205017    0.083614
     70          1           0        6.481017    0.873068    1.056449
     71          1           0        4.782846    0.381494    1.309074
     72          1           0        3.277038    6.272187   -0.772081
     73          1           0        4.587538    4.692812   -0.666782
     74          1           0        0.139060    6.302570   -1.864003
     75          1           0        1.630395    7.245802   -0.969614
     76          1           0       -0.048488    6.892758   -0.308819
     77          1           0        3.738474    6.028341    1.946588
     78          1           0        5.201101    6.123509    1.193664
     79          1           0        4.368794    4.456344    1.843758
     80          1           0       -3.233109   -4.441844   -1.925710
     81          1           0       -8.020402   -1.688942   -1.775835
 ---------------------------------------------------------------------

 SCF Done:  E(RB3LYP) =  -1949.07952677     A.U. after   23 cycles

 Excitation energies and oscillator strengths:

 Excited State   1:      Singlet-A      1.7214 eV  720.24 nm  f=0.2732  <S**2>=0.000
     154 ->157        -0.12301
     156 ->157         0.69793
     156 <-157        -0.11960
 This state for optimization and/or second-order correction.
 Total Energy, E(TD-HF/TD-DFT) =  -1949.01626572
 Copying the excited state density for this state as the 1-particle RhoCI density.

 The electronic state is 1-A.
 Alpha  occ. eigenvalues --  -19.21050 -19.19543 -19.15716 -19.14106 -19.10239
 Alpha  occ. eigenvalues --  -19.08084 -14.38407 -14.37784 -14.35069 -14.28671
 Alpha  occ. eigenvalues --  -10.35133 -10.32867 -10.29360 -10.25858 -10.24992
 Alpha  occ. eigenvalues --  -10.24977 -10.24716 -10.23335 -10.23197 -10.23040
 Alpha  occ. eigenvalues --  -10.22668 -10.22025 -10.21684 -10.21537 -10.21353
 Alpha  occ. eigenvalues --  -10.21352 -10.21163 -10.21111 -10.21050 -10.20882
 Alpha  occ. eigenvalues --  -10.20793 -10.20672 -10.20628 -10.20618 -10.20357
 Alpha  occ. eigenvalues --  -10.20151 -10.19814 -10.19340 -10.19201 -10.18889
 Alpha  occ. eigenvalues --  -10.17854 -10.17201 -10.15914  -1.10257  -1.08235
 Alpha  occ. eigenvalues --   -1.01920  -1.00914  -0.99952  -0.98406  -0.96929
 Alpha  occ. eigenvalues --   -0.95277  -0.93112  -0.88816  -0.83675  -0.82615
 Alpha  occ. eigenvalues --   -0.81165  -0.80866  -0.79792  -0.79440  -0.79246
 Alpha  occ. eigenvalues --   -0.77695  -0.76437  -0.76126  -0.74250  -0.73158
 Alpha  occ. eigenvalues --   -0.71723  -0.69958  -0.69220  -0.68928  -0.67935
 Alpha  occ. eigenvalues --   -0.67556  -0.65885  -0.64859  -0.62749  -0.61463
 Alpha  occ. eigenvalues --   -0.60816  -0.59322  -0.58853  -0.58017  -0.56913
 Alpha  occ. eigenvalues --   -0.56191  -0.55363  -0.54542  -0.53839  -0.53284
 Alpha  occ. eigenvalues --   -0.52288  -0.51937  -0.51096  -0.50281  -0.50001
 Alpha  occ. eigenvalues --   -0.49710  -0.49470  -0.48922  -0.48559  -0.48019
 Alpha  occ. eigenvalues --   -0.47528  -0.47314  -0.46876  -0.46032  -0.45538
 Alpha  occ. eigenvalues --   -0.45313  -0.44587  -0.44094  -0.43627  -0.43609
 Alpha  occ. eigenvalues --   -0.43112  -0.43031  -0.42632  -0.42283  -0.42236
 Alpha  occ. eigenvalues --   -0.42058  -0.41836  -0.41258  -0.41080  -0.40869
 Alpha  occ. eigenvalues --   -0.40588  -0.40455  -0.40248  -0.40123  -0.39852
 Alpha  occ. eigenvalues --   -0.39638  -0.39394  -0.38983  -0.38447  -0.38138
 Alpha  occ. eigenvalues --   -0.37972  -0.37239  -0.37058  -0.36659  -0.36595
 Alpha  occ. eigenvalues --   -0.36383  -0.36108  -0.36006  -0.35523  -0.35297
 Alpha  occ. eigenvalues --   -0.34790  -0.34229  -0.34112  -0.33638  -0.33510
 Alpha  occ. eigenvalues --   -0.32394  -0.31951  -0.30646  -0.30264  -0.29074
 Alpha  occ. eigenvalues --   -0.28926  -0.26404  -0.26174  -0.25739  -0.25035
 Alpha  occ. eigenvalues --   -0.24849  -0.23751  -0.23663  -0.22502  -0.22103
 Alpha  occ. eigenvalues --   -0.18623
 Alpha virt. eigenvalues --   -0.11638  -0.06176  -0.04470  -0.03847  -0.01869
 Alpha virt. eigenvalues --   -0.00612   0.00762   0.01704   0.02223   0.03553
 Alpha virt. eigenvalues --    0.03671   0.04344   0.04907   0.05278   0.05554

 Mulliken charges:
               1
     1  O   -0.307543
     2  O   -0.263660
     3  O   -0.181904
     4  O   -0.251907
     5  O   -0.224796
     6  O   -0.378393
     7  N   -0.107208
     8  N   -0.154408
     9  N   -0.131734
    10  N   -0.252421
    11  C   -0.138740
    12  C    0.129761
    13  C   -0.127813
    14  C    0.085739
    15  C   -0.081583
    16  C    0.077737
    17  C   -0.001968
    18  C   -0.190069
    19  C    0.107263
    20  C   -0.054387
    21  C    0.093007
    22  C    0.166743
    23  C   -0.026183
    24  C    0.023181
    25  C   -0.134897
    26  C   -0.013151
    27  C    0.135866
    28  C    0.166070
    29  C   -0.008674
    30  C    0.099573
    31  C   -0.126730
    32  C    0.046844
    33  C   -0.213096
    34  C    0.099847
    35  C   -0.148540
    36  C   -0.069783
    37  C    0.166643
    38  C    0.211076
    39  C    0.166191
    40  C   -0.067619
    41  C    0.158094
    42  C    0.117076
    43  C    0.053580
    44  H    0.117323
    45  H   -0.024753
    46  H    0.016053
    47  H    0.007395
    48  H    0.053485
    49  H    0.022418
    50  H    0.054396
    51  H    0.074597
    52  H    0.146050
    53  H    0.053560
    54  H    0.019333
    55  H    0.040144
    56  H    0.146229
    57  H   -0.021114
    58  H    0.023308
    59  H    0.044825
    60  H    0.043505
    61  H    0.049507
    62  H    0.045014
    63  H    0.004059
    64  H   -0.044741
    65  H    0.035668
    66  H    0.027383
    67  H    0.024345
    68  H    0.012124
    69  H    0.058662
    70  H    0.007575
    71  H   -0.026260
    72  H    0.003570
    73  H    0.047007
    74  H    0.014446
    75  H    0.047763
    76  H    0.006309
    77  H   -0.045362
    78  H    0.015899
    79  H    0.048116
    80  H    0.239692
    81  H    0.165384
 Sum of Mulliken charges =  -0.00000

 Dipole moment (field-independent basis, Debye):
    X=             -3.5878    Y=             -0.0890    Z=             -0.4846  Tot=              3.6215
 Quadrupole moment (field-independent basis, Debye-Ang):
   XX=           -248.8917   YY=           -251.5055   ZZ=           -253.7007
   XY=             13.8528   XZ=             17.3740   YZ=            -15.8732

 Normal termination of Gaussian 16 at Tue Jul  2 07:11:00 2019.
