 Gaussian 16, Revision A.03,
 Gaussian 16:  ES64L-G16RevA.03 25-Dec-2016

 --------------------------
 # td=(NStates=1) B3LYP/SVP
 --------------------------

 --
 TD
 --
 Symbolic Z-matrix:
 Charge =  0 Multiplicity = 1

                         Standard orientation:
 ---------------------------------------------------------------------
 Center     Atomic      Atomic             Coordinates (Angstroms)
 Number     Number       Type             X           Y           Z
 ---------------------------------------------------------------------
      1          8           0        4.099399   -4.936649   -1.817805
      2          8           0       -2.911005   -4.725188   -1.256387
      3          8           0       -6.933650   -1.340390   -1.800584
      4          8           0       -3.814330   -3.119870    0.083992
      5          8           0       -7.786062   -0.343651    0.037155
      6          8           0        3.044373    2.256373    0.505899
      7          7           0        0.208258   -0.511695    0.560662
      8          7           0       -1.486968    1.934242    0.450076
      9          7           0        3.244686   -3.165417   -0.551770
     10          7           0        0.856647    2.906362    0.203283
     11          6           0       -0.736605   -2.398442    1.353200
     12          6           0       -0.960763   -1.097169    0.953421
     13          6           0        0.634198   -2.579442    1.269330
     14          6           0        1.225613   -1.387102    0.713269
     15          6           0       -3.714350    1.572595    0.300733
     16          6           0       -2.484145    0.927733    0.608098
     17          6           0       -2.201068   -0.426939    0.869147
     18          6           0       -3.427013    2.836068   -0.080742
     19          6           0       -1.635042   -3.368279    1.963975
     20          6           0        5.278638   -2.843046   -1.365150
     21          6           0        3.566861   -1.879186   -0.187907
     22          6           0       -1.995014    3.088788    0.029376
     23          6           0        4.924434   -1.676776   -0.495424
     24          6           0       -5.033825    0.860845    0.358025
     25          6           0        2.602536   -1.107871    0.337703
     26          6           0        1.331571   -3.841125    1.802918
     27          6           0        4.181520   -3.848102   -1.333199
     28          6           0       -2.148165   -4.504476    0.996406
     29          6           0       -5.448730   -0.003687   -0.801865
     30          6           0       -4.420530    3.848023   -0.491300
     31          6           0       -1.200230    4.164498   -0.409825
     32          6           0        6.607252   -3.508872   -1.036328
     33          6           0        5.793918   -0.693240   -0.066029
     34          6           0        0.218658    4.062392   -0.268939
     35          6           0        1.222636    5.105777   -0.457014
     36          6           0        2.450184    4.582464   -0.192307
     37          6           0       -3.064921   -4.058367   -0.063684
     38          6           0        5.547136    0.495446    0.750012
     39          6           0       -6.767945   -0.622939   -0.735125
     40          6           0        3.806019    5.162978   -0.264628
     41          6           0        2.251607    3.129674    0.241033
     42          6           0        0.914761    6.480979   -0.988714
     43          6           0        4.283260    5.604568    1.075607
     44          1           0        0.327023    0.398111    0.091207
     45          1           0       -3.176692   -1.129877    0.792587
     46          1           0       -2.445468   -3.127415    2.715044
     47          1           0       -1.144478   -3.949826    2.839316
     48          1           0        5.410883   -2.464173   -2.369720
     49          1           0       -5.014422    0.431313    1.374527
     50          1           0       -5.920159    1.646130    0.430202
     51          1           0        2.739579    0.034702    0.513658
     52          1           0       -0.513126    1.869530    0.500265
     53          1           0        1.252260   -4.604079    0.991610
     54          1           0        2.588773   -3.686951    1.770492
     55          1           0        0.992597   -4.126332    2.728069
     56          1           0        2.267100   -3.291804   -0.466090
     57          1           0       -1.272355   -4.913872    0.715507
     58          1           0       -2.633875   -5.303521    1.677704
     59          1           0       -4.513255   -0.795699   -1.066218
     60          1           0       -5.392621    0.500480   -1.842875
     61          1           0       -4.432926    4.719771    0.334293
     62          1           0       -5.435420    3.338787   -0.670250
     63          1           0       -4.079935    4.425713   -1.535836
     64          1           0       -1.811659    4.947007   -1.273116
     65          1           0        7.598881   -2.889311   -1.491567
     66          1           0        6.957320   -4.537990   -1.287814
     67          1           0        6.827870   -3.740726    0.175752
     68          1           0        6.827453   -0.951075   -0.535307
     69          1           0        4.938832    1.322863    0.122063
     70          1           0        6.492658    0.870598    1.070657
     71          1           0        4.998903    0.213527    1.570956
     72          1           0        3.768035    5.867836   -1.202977
     73          1           0        4.621876    4.325138   -0.583196
     74          1           0        0.427129    6.534837   -1.903735
     75          1           0        1.720591    6.995062   -1.115031
     76          1           0        0.278352    6.992862   -0.339834
     77          1           0        3.583235    6.468004    1.429322
     78          1           0        5.317509    5.967567    0.880690
     79          1           0        4.429689    4.860497    1.777824
     80          1           0       -3.701529   -4.414437   -1.834847
     81          1           0       -7.841551   -1.739278   -1.941682
 ---------------------------------------------------------------------

 SCF Done:  E(RB3LYP) =  -1949.08630002     A.U. after   16 cycles

 Excitation energies and oscillator strengths:

 Excited State   1:      Singlet-A      1.7852 eV  694.53 nm  f=0.2766  <S**2>=0.000
     156 ->157         0.70532
     156 <-157        -0.10246
 This state for optimization and/or second-order correction.
 Total Energy, E(TD-HF/TD-DFT) =  -1949.02069645
 Copying the excited state density for this state as the 1-particle RhoCI density.

 The electronic state is 1-A.
 Alpha  occ. eigenvalues --  -19.19977 -19.19447 -19.14656 -19.11611 -19.11588
 Alpha  occ. eigenvalues --  -19.11028 -14.38356 -14.35946 -14.35530 -14.28219
 Alpha  occ. eigenvalues --  -10.33715 -10.32624 -10.29442 -10.26565 -10.23879
 Alpha  occ. eigenvalues --  -10.23865 -10.23348 -10.23220 -10.23173 -10.22922
 Alpha  occ. eigenvalues --  -10.22609 -10.22193 -10.21721 -10.21700 -10.21446
 Alpha  occ. eigenvalues --  -10.21189 -10.20949 -10.20873 -10.20609 -10.20468
 Alpha  occ. eigenvalues --  -10.20445 -10.20099 -10.19958 -10.19581 -10.19576
 Alpha  occ. eigenvalues --  -10.19509 -10.19469 -10.19358 -10.18642 -10.18620
 Alpha  occ. eigenvalues --  -10.18162 -10.17408 -10.16834  -1.10571  -1.10207
 Alpha  occ. eigenvalues --   -1.04657  -1.02282  -1.01865  -0.99931  -0.98440
 Alpha  occ. eigenvalues --   -0.96954  -0.95903  -0.90014  -0.83414  -0.82940
 Alpha  occ. eigenvalues --   -0.82164  -0.80811  -0.79768  -0.78756  -0.78391
 Alpha  occ. eigenvalues --   -0.78149  -0.76634  -0.76001  -0.74359  -0.72543
 Alpha  occ. eigenvalues --   -0.71114  -0.70043  -0.69612  -0.69133  -0.68863
 Alpha  occ. eigenvalues --   -0.67534  -0.65807  -0.64740  -0.62771  -0.62016
 Alpha  occ. eigenvalues --   -0.60925  -0.60277  -0.58915  -0.58325  -0.57435
 Alpha  occ. eigenvalues --   -0.56191  -0.55846  -0.54882  -0.53560  -0.52710
 Alpha  occ. eigenvalues --   -0.52556  -0.52044  -0.51274  -0.50363  -0.50076
 Alpha  occ. eigenvalues --   -0.49736  -0.49588  -0.49136  -0.48087  -0.47852
 Alpha  occ. eigenvalues --   -0.47396  -0.46970  -0.46356  -0.45815  -0.45319
 Alpha  occ. eigenvalues --   -0.44833  -0.44632  -0.44526  -0.44234  -0.44032
 Alpha  occ. eigenvalues --   -0.43814  -0.43619  -0.42871  -0.42599  -0.42364
 Alpha  occ. eigenvalues --   -0.42147  -0.42053  -0.41233  -0.40650  -0.40544
 Alpha  occ. eigenvalues --   -0.40372  -0.39836  -0.39700  -0.39622  -0.39496
 Alpha  occ. eigenvalues --   -0.39325  -0.39170  -0.38855  -0.38751  -0.38657
 Alpha  occ. eigenvalues --   -0.38147  -0.38034  -0.37744  -0.37233  -0.36567
 Alpha  occ. eigenvalues --   -0.36402  -0.36090  -0.35398  -0.34752  -0.33889
 Alpha  occ. eigenvalues --   -0.33786  -0.33482  -0.33053  -0.32889  -0.32217
 Alpha  occ. eigenvalues --   -0.32099  -0.32072  -0.30452  -0.30066  -0.29955
 Alpha  occ. eigenvalues --   -0.27228  -0.27136  -0.26964  -0.26487  -0.26062
 Alpha  occ. eigenvalues --   -0.25499  -0.24604  -0.23966  -0.22918  -0.21354
 Alpha  occ. eigenvalues --   -0.17810
 Alpha virt. eigenvalues --   -0.10396  -0.06169  -0.04102  -0.02598  -0.02004
 Alpha virt. eigenvalues --    0.00105   0.01960   0.02448   0.03006   0.03721
 Alpha virt. eigenvalues --    0.03950   0.04346   0.05126   0.05339   0.05730

 Mulliken charges:
               1
     1  O   -0.170216
     2  O   -0.220551
     3  O   -0.155885
     4  O   -0.221034
     5  O   -0.321278
     6  O   -0.193718
     7  N   -0.027404
     8  N   -0.035960
     9  N   -0.113254
    10  N   -0.374004
    11  C    0.013044
    12  C    0.043088
    13  C   -0.197245
    14  C    0.001093
    15  C   -0.048036
    16  C    0.055009
    17  C   -0.112952
    18  C   -0.131348
    19  C   -0.005125
    20  C   -0.006579
    21  C    0.074968
    22  C    0.072864
    23  C   -0.011325
    24  C    0.073240
    25  C   -0.154689
    26  C    0.064351
    27  C    0.160790
    28  C    0.064293
    29  C   -0.074244
    30  C   -0.013439
    31  C   -0.171196
    32  C   -0.091357
    33  C   -0.159363
    34  C    0.100869
    35  C   -0.124070
    36  C   -0.187327
    37  C    0.160658
    38  C    0.129293
    39  C    0.190944
    40  C   -0.021990
    41  C    0.182897
    42  C    0.278119
    43  C    0.054628
    44  H    0.136851
    45  H    0.079049
    46  H    0.016597
    47  H   -0.003998
    48  H    0.041783
    49  H    0.034350
    50  H    0.028289
    51  H    0.051736
    52  H    0.077179
    53  H    0.035437
    54  H    0.051266
    55  H    0.015011
    56  H    0.106875
    57  H   -0.018607
    58  H    0.052655
    59  H    0.064604
    60  H    0.056652
    61  H    0.054557
    62  H    0.038761
    63  H    0.033897
    64  H    0.051222
    65  H    0.030807
    66  H    0.036801
    67  H    0.024790
    68  H    0.000003
    69  H    0.100210
    70  H   -0.002046
    71  H    0.009069
    72  H    0.024437
    73  H    0.020353
    74  H   -0.012561
    75  H   -0.061516
    76  H   -0.008292
    77  H    0.023165
    78  H    0.006766
    79  H    0.011334
    80  H    0.209855
    81  H    0.206099
 Sum of Mulliken charges =  -0.00000

 Dipole moment (field-independent basis, Debye):
    X=             -1.6316    Y=             -0.0380    Z=             -1.9852  Tot=              2.5700
 Quadrupole moment (field-independent basis, Debye-Ang):
   XX=           -257.7837   YY=           -243.6738   ZZ=           -249.6038
   XY=             23.1895   XZ=             19.9588   YZ=            -15.7510

 Normal termination of Gaussian 16 at Sat Jun 29 16:15:41 2019.
