 Gaussian 16, Revision A.03,
 Gaussian 16:  ES64L-G16RevA.03 25-Dec-2016

 --------------------------
 # td=(NStates=1) B3LYP/SVP
 --------------------------

 --
 TD
 --
 Symbolic Z-matrix:
 Charge =  0 Multiplicity = 1

                         Standard orientation:
 ---------------------------------------------------------------------
 Center     Atomic      Atomic             Coordinates (Angstroms)
 Number     Number       Type             X           Y           Z
 ---------------------------------------------------------------------
      1          8           0        4.458544   -4.889932   -1.765712
      2          8           0       -3.018057   -4.692096   -1.104093
      3          8           0       -6.986809   -1.543623   -2.020990
      4          8           0       -3.780161   -3.099868    0.230471
      5          8           0       -7.515174   -0.704028    0.052383
      6          8           0        3.060154    2.497920    0.379760
      7          7           0        0.273934   -0.525337    0.537072
      8          7           0       -1.528471    1.806600    0.320864
      9          7           0        3.323098   -3.099206   -0.700613
     10          7           0        0.750564    2.917255    0.033764
     11          6           0       -0.555437   -2.418670    1.437319
     12          6           0       -0.918660   -1.118245    0.874604
     13          6           0        0.775518   -2.672899    1.203461
     14          6           0        1.312948   -1.458465    0.591129
     15          6           0       -3.749878    1.449670    0.274880
     16          6           0       -2.490521    0.857105    0.555405
     17          6           0       -2.138545   -0.460389    0.944257
     18          6           0       -3.578355    2.849653   -0.028164
     19          6           0       -1.622859   -3.387748    1.999961
     20          6           0        5.609684   -2.710287   -1.318858
     21          6           0        3.633630   -1.813727   -0.226026
     22          6           0       -2.094183    3.033414   -0.087966
     23          6           0        5.042383   -1.625418   -0.425513
     24          6           0       -5.077080    0.605465    0.342411
     25          6           0        2.607430   -1.073266    0.322459
     26          6           0        1.612431   -3.869351    1.726380
     27          6           0        4.415980   -3.721801   -1.372313
     28          6           0       -2.029199   -4.476314    1.000531
     29          6           0       -5.323426   -0.234211   -0.884074
     30          6           0       -4.733982    3.701271   -0.344534
     31          6           0       -1.314050    4.205611   -0.254084
     32          6           0        6.888905   -3.327666   -0.848239
     33          6           0        5.825776   -0.582567   -0.038749
     34          6           0        0.073178    4.127839   -0.209213
     35          6           0        0.975385    5.225959   -0.391784
     36          6           0        2.231499    4.627373   -0.304925
     37          6           0       -3.025384   -3.990159    0.019983
     38          6           0        5.291576    0.612019    0.898167
     39          6           0       -6.693274   -0.837529   -0.867327
     40          6           0        3.579282    5.200189   -0.342877
     41          6           0        2.123951    3.227827    0.004363
     42          6           0        0.611586    6.572990   -0.787695
     43          6           0        4.106848    5.823910    0.996041
     44          1           0        0.254241    0.393291    0.231395
     45          1           0       -2.880817   -1.237280    1.293124
     46          1           0       -2.433607   -2.916392    2.339584
     47          1           0       -1.273519   -4.006727    2.943609
     48          1           0        5.769554   -2.185517   -2.258434
     49          1           0       -5.122061    0.013895    1.290302
     50          1           0       -5.998616    1.256730    0.683225
     51          1           0        2.785912    0.168902    0.392605
     52          1           0       -0.490971    1.911506    0.535013
     53          1           0        1.552365   -4.840775    1.095562
     54          1           0        2.621725   -3.736867    1.852248
     55          1           0        1.113335   -4.324890    2.638821
     56          1           0        2.479206   -3.419164   -0.776740
     57          1           0       -1.286571   -5.190101    0.519451
     58          1           0       -2.896682   -5.121663    1.474031
     59          1           0       -4.632313   -1.019695   -0.965462
     60          1           0       -5.041511    0.366198   -1.734094
     61          1           0       -4.987637    4.515340    0.486332
     62          1           0       -5.855306    3.270942   -0.619438
     63          1           0       -4.718512    4.052313   -1.457835
     64          1           0       -1.585788    5.242974   -0.204867
     65          1           0        7.716941   -2.418344   -0.853434
     66          1           0        7.358927   -4.095761   -1.627018
     67          1           0        6.727533   -3.707200    0.053913
     68          1           0        6.681660   -0.768875   -0.610481
     69          1           0        4.825957    1.257051    0.181879
     70          1           0        6.067912    1.225024    1.326339
     71          1           0        4.718476    0.263504    1.703969
     72          1           0        3.367549    5.929011   -1.190075
     73          1           0        4.322926    4.473745   -0.893969
     74          1           0        0.003135    6.739568   -1.662748
     75          1           0        1.553730    7.165921   -0.912550
     76          1           0       -0.121341    6.834618    0.113878
     77          1           0        3.705269    6.767763    1.522540
     78          1           0        5.138142    6.215257    0.630912
     79          1           0        4.440830    4.943235    1.788427
     80          1           0       -3.753765   -4.498956   -1.782298
     81          1           0       -7.847090   -1.810238   -1.813921
 ---------------------------------------------------------------------

 SCF Done:  E(RB3LYP) =  -1949.09683926     A.U. after   23 cycles

 Excitation energies and oscillator strengths:

 Excited State   1:      Singlet-A      1.6582 eV  747.71 nm  f=0.3338  <S**2>=0.000
     155 ->157         0.14257
     156 ->157         0.69874
     156 <-157        -0.14120
 This state for optimization and/or second-order correction.
 Total Energy, E(TD-HF/TD-DFT) =  -1949.03590224
 Copying the excited state density for this state as the 1-particle RhoCI density.

 The electronic state is 1-A.
 Alpha  occ. eigenvalues --  -19.19453 -19.18243 -19.13332 -19.13216 -19.12286
 Alpha  occ. eigenvalues --  -19.09097 -14.37772 -14.36971 -14.35289 -14.27204
 Alpha  occ. eigenvalues --  -10.32879 -10.32559 -10.30499 -10.25198 -10.25098
 Alpha  occ. eigenvalues --  -10.24438 -10.24433 -10.23509 -10.23033 -10.22957
 Alpha  occ. eigenvalues --  -10.21869 -10.21607 -10.21524 -10.21484 -10.21473
 Alpha  occ. eigenvalues --  -10.21056 -10.21051 -10.21035 -10.20587 -10.20393
 Alpha  occ. eigenvalues --  -10.20255 -10.20202 -10.20104 -10.20052 -10.20020
 Alpha  occ. eigenvalues --  -10.19939 -10.19862 -10.19572 -10.19244 -10.18647
 Alpha  occ. eigenvalues --  -10.18474 -10.17753 -10.17205  -1.11410  -1.09555
 Alpha  occ. eigenvalues --   -1.03238  -1.02446  -1.00032  -0.99048  -0.98899
 Alpha  occ. eigenvalues --   -0.96270  -0.96039  -0.89537  -0.83490  -0.83021
 Alpha  occ. eigenvalues --   -0.81601  -0.80735  -0.79103  -0.78703  -0.78400
 Alpha  occ. eigenvalues --   -0.77022  -0.76693  -0.75134  -0.73991  -0.72300
 Alpha  occ. eigenvalues --   -0.71132  -0.70484  -0.69869  -0.67928  -0.67642
 Alpha  occ. eigenvalues --   -0.66670  -0.66294  -0.65736  -0.62597  -0.61930
 Alpha  occ. eigenvalues --   -0.60399  -0.59515  -0.59107  -0.58635  -0.58077
 Alpha  occ. eigenvalues --   -0.56103  -0.55355  -0.54829  -0.54473  -0.53134
 Alpha  occ. eigenvalues --   -0.52137  -0.51678  -0.50987  -0.50171  -0.50018
 Alpha  occ. eigenvalues --   -0.49416  -0.49368  -0.49069  -0.48670  -0.47695
 Alpha  occ. eigenvalues --   -0.47205  -0.46761  -0.45648  -0.45158  -0.44994
 Alpha  occ. eigenvalues --   -0.44397  -0.44291  -0.43846  -0.43692  -0.43408
 Alpha  occ. eigenvalues --   -0.43012  -0.42807  -0.42493  -0.42163  -0.42081
 Alpha  occ. eigenvalues --   -0.41966  -0.41538  -0.41260  -0.41088  -0.40674
 Alpha  occ. eigenvalues --   -0.40583  -0.40329  -0.40224  -0.39926  -0.39314
 Alpha  occ. eigenvalues --   -0.39079  -0.38940  -0.38778  -0.38648  -0.38082
 Alpha  occ. eigenvalues --   -0.37871  -0.37653  -0.37174  -0.37116  -0.36849
 Alpha  occ. eigenvalues --   -0.36613  -0.35920  -0.35819  -0.35454  -0.34414
 Alpha  occ. eigenvalues --   -0.34179  -0.33768  -0.32688  -0.32596  -0.32333
 Alpha  occ. eigenvalues --   -0.31836  -0.31560  -0.31237  -0.29754  -0.29299
 Alpha  occ. eigenvalues --   -0.28688  -0.26971  -0.26786  -0.26640  -0.26357
 Alpha  occ. eigenvalues --   -0.25399  -0.24417  -0.23105  -0.21980  -0.20657
 Alpha  occ. eigenvalues --   -0.17391
 Alpha virt. eigenvalues --   -0.10921  -0.06432  -0.04512  -0.01419  -0.00846
 Alpha virt. eigenvalues --    0.00496   0.01908   0.02269   0.03048   0.03273
 Alpha virt. eigenvalues --    0.03885   0.04959   0.05157   0.05576   0.06470

 Mulliken charges:
               1
     1  O   -0.214217
     2  O   -0.199732
     3  O   -0.171373
     4  O   -0.210769
     5  O   -0.254401
     6  O   -0.260099
     7  N   -0.029256
     8  N   -0.147255
     9  N   -0.082273
    10  N   -0.380313
    11  C   -0.090087
    12  C   -0.002697
    13  C   -0.122738
    14  C    0.102659
    15  C   -0.099852
    16  C    0.127629
    17  C   -0.042295
    18  C   -0.061278
    19  C    0.153595
    20  C   -0.050042
    21  C    0.105548
    22  C    0.131674
    23  C   -0.102968
    24  C    0.030018
    25  C   -0.211708
    26  C    0.094705
    27  C    0.164358
    28  C   -0.014965
    29  C    0.092959
    30  C   -0.062766
    31  C   -0.071855
    32  C    0.045239
    33  C   -0.071237
    34  C    0.039827
    35  C   -0.064086
    36  C   -0.172461
    37  C    0.081898
    38  C    0.123435
    39  C    0.158423
    40  C    0.039432
    41  C    0.181362
    42  C    0.055911
    43  C   -0.048514
    44  H    0.092674
    45  H    0.030062
    46  H   -0.030875
    47  H    0.021524
    48  H    0.041289
    49  H    0.014688
    50  H    0.027687
    51  H    0.103902
    52  H    0.162022
    53  H    0.021183
    54  H    0.013968
    55  H    0.016932
    56  H    0.068208
    57  H    0.050231
    58  H    0.055256
    59  H    0.015951
    60  H    0.024068
    61  H    0.055418
    62  H    0.034513
    63  H    0.034912
    64  H   -0.040889
    65  H    0.030070
    66  H    0.051369
    67  H   -0.006205
    68  H   -0.048653
    69  H    0.066308
    70  H   -0.001238
    71  H    0.028455
    72  H   -0.004290
    73  H    0.024074
    74  H    0.028345
    75  H    0.026539
    76  H    0.038319
    77  H    0.039850
    78  H    0.012063
    79  H    0.051115
    80  H    0.215580
    81  H    0.146139
 Sum of Mulliken charges =  -0.00000

 Dipole moment (field-independent basis, Debye):
    X=             -1.4306    Y=             -1.4891    Z=             -0.9882  Tot=              2.2893
 Quadrupole moment (field-independent basis, Debye-Ang):
   XX=           -253.2654   YY=           -240.4155   ZZ=           -252.2980
   XY=             15.3125   XZ=             11.7191   YZ=            -12.0306

 Normal termination of Gaussian 16 at Mon Jul  1 23:03:34 2019.
