 Gaussian 16, Revision A.03,
 Gaussian 16:  ES64L-G16RevA.03 25-Dec-2016

 --------------------------
 # td=(NStates=1) B3LYP/SVP
 --------------------------

 --
 TD
 --
 Symbolic Z-matrix:
 Charge =  0 Multiplicity = 1

                         Standard orientation:
 ---------------------------------------------------------------------
 Center     Atomic      Atomic             Coordinates (Angstroms)
 Number     Number       Type             X           Y           Z
 ---------------------------------------------------------------------
      1          8           0        4.348001   -4.826040   -1.719049
      2          8           0       -2.706470   -4.988797   -1.209178
      3          8           0       -7.085350   -1.500757   -1.948964
      4          8           0       -3.598842   -3.153084   -0.102994
      5          8           0       -7.569443   -0.646814    0.137023
      6          8           0        3.003271    2.447597    0.246800
      7          7           0        0.194353   -0.475556    0.552133
      8          7           0       -1.540091    1.741853    0.329910
      9          7           0        3.243385   -3.031170   -0.620813
     10          7           0        0.776231    2.851573   -0.057516
     11          6           0       -0.599497   -2.377964    1.362370
     12          6           0       -0.874688   -1.132650    0.936196
     13          6           0        0.755820   -2.535842    1.258125
     14          6           0        1.264141   -1.334614    0.723629
     15          6           0       -3.775788    1.447665    0.417807
     16          6           0       -2.534138    0.785055    0.525181
     17          6           0       -2.245783   -0.510240    0.838242
     18          6           0       -3.587599    2.787961    0.005927
     19          6           0       -1.483078   -3.370161    2.040445
     20          6           0        5.547902   -2.720044   -1.239267
     21          6           0        3.643760   -1.783025   -0.152216
     22          6           0       -2.081939    2.961267   -0.072011
     23          6           0        5.026927   -1.459661   -0.608756
     24          6           0       -5.174268    0.755669    0.388668
     25          6           0        2.672830   -0.946351    0.505230
     26          6           0        1.524899   -3.797010    1.791705
     27          6           0        4.299497   -3.722654   -1.233649
     28          6           0       -2.026808   -4.537880    1.107519
     29          6           0       -5.390895   -0.138289   -0.823082
     30          6           0       -4.681428    3.751390   -0.207943
     31          6           0       -1.324699    4.133895   -0.330101
     32          6           0        6.850424   -3.407551   -0.878449
     33          6           0        5.752548   -0.484809   -0.043523
     34          6           0        0.080889    4.007571   -0.328065
     35          6           0        1.000252    5.124838   -0.514746
     36          6           0        2.272455    4.636707   -0.238837
     37          6           0       -2.781945   -4.012009   -0.162705
     38          6           0        5.468362    0.639036    0.724110
     39          6           0       -6.801373   -0.794917   -0.797811
     40          6           0        3.490165    5.350163   -0.316877
     41          6           0        2.159725    3.185521   -0.046256
     42          6           0        0.546432    6.567183   -0.785525
     43          6           0        4.252412    5.670850    1.033782
     44          1           0        0.164261    0.327242   -0.152607
     45          1           0       -2.907509   -1.199605    1.071003
     46          1           0       -2.518435   -2.985251    2.214034
     47          1           0       -1.064176   -4.080053    2.836117
     48          1           0        5.611194   -2.578208   -2.340891
     49          1           0       -5.448357   -0.000414    1.235097
     50          1           0       -5.913969    1.569483    0.475375
     51          1           0        2.861395    0.126739    0.315682
     52          1           0       -0.554505    1.802337    0.195128
     53          1           0        1.778907   -4.571054    1.013936
     54          1           0        2.602461   -3.467629    2.057727
     55          1           0        0.865225   -4.294839    2.799857
     56          1           0        2.338962   -3.558523   -0.455757
     57          1           0       -1.039930   -5.190858    0.757435
     58          1           0       -2.675769   -5.221578    1.600992
     59          1           0       -4.691028   -0.904821   -0.788844
     60          1           0       -5.360134    0.380296   -1.727408
     61          1           0       -4.587847    4.607647    0.567555
     62          1           0       -5.628880    3.254142   -0.292452
     63          1           0       -4.378432    4.259272   -1.219529
     64          1           0       -1.879008    5.092901   -0.615564
     65          1           0        7.848385   -2.669380   -1.210666
     66          1           0        6.652440   -4.503521   -1.636890
     67          1           0        6.868696   -3.648940    0.342215
     68          1           0        6.723692   -0.383704   -0.580518
     69          1           0        4.737985    1.536729    0.292787
     70          1           0        6.465965    1.090221    0.983197
     71          1           0        5.062494    0.204648    1.626344
     72          1           0        3.371788    6.411398   -0.811499
     73          1           0        4.234323    4.937848   -0.915903
     74          1           0        0.264834    6.803775   -1.748097
     75          1           0        1.462133    7.210518   -0.594695
     76          1           0       -0.193492    6.874135   -0.042891
     77          1           0        3.542304    6.209543    1.728559
     78          1           0        5.273710    6.045653    0.956333
     79          1           0        4.266521    4.718175    1.730591
     80          1           0       -3.477147   -4.872216   -1.767643
     81          1           0       -7.998620   -2.030450   -1.827929
 ---------------------------------------------------------------------

 SCF Done:  E(RB3LYP) =  -1949.08096359     A.U. after   16 cycles

 Excitation energies and oscillator strengths:

 Excited State   1:      Singlet-A      1.6552 eV  749.05 nm  f=0.2489  <S**2>=0.000
     156 ->157         0.70679
 This state for optimization and/or second-order correction.
 Total Energy, E(TD-HF/TD-DFT) =  -1949.02013531
 Copying the excited state density for this state as the 1-particle RhoCI density.

 The electronic state is 1-A.
 Alpha  occ. eigenvalues --  -19.19122 -19.18382 -19.16059 -19.13177 -19.12005
 Alpha  occ. eigenvalues --  -19.11472 -14.37795 -14.37750 -14.35770 -14.28508
 Alpha  occ. eigenvalues --  -10.34138 -10.32502 -10.29518 -10.26630 -10.25092
 Alpha  occ. eigenvalues --  -10.24804 -10.23504 -10.23120 -10.22914 -10.22852
 Alpha  occ. eigenvalues --  -10.22764 -10.22737 -10.22232 -10.21753 -10.21076
 Alpha  occ. eigenvalues --  -10.20976 -10.20775 -10.20760 -10.20601 -10.20361
 Alpha  occ. eigenvalues --  -10.20273 -10.20092 -10.19713 -10.19532 -10.19483
 Alpha  occ. eigenvalues --  -10.19266 -10.18955 -10.18938 -10.18935 -10.18758
 Alpha  occ. eigenvalues --  -10.18679 -10.18668 -10.17334  -1.10158  -1.07858
 Alpha  occ. eigenvalues --   -1.05806  -1.04015  -1.02316  -1.00253  -0.99989
 Alpha  occ. eigenvalues --   -0.97393  -0.95134  -0.91122  -0.82675  -0.82119
 Alpha  occ. eigenvalues --   -0.81785  -0.80827  -0.79829  -0.78131  -0.77547
 Alpha  occ. eigenvalues --   -0.76859  -0.76363  -0.75352  -0.73989  -0.72198
 Alpha  occ. eigenvalues --   -0.70924  -0.69137  -0.68819  -0.67730  -0.67049
 Alpha  occ. eigenvalues --   -0.66705  -0.65141  -0.63354  -0.62457  -0.61201
 Alpha  occ. eigenvalues --   -0.60285  -0.59439  -0.58681  -0.57092  -0.56203
 Alpha  occ. eigenvalues --   -0.56060  -0.55267  -0.55138  -0.53553  -0.53230
 Alpha  occ. eigenvalues --   -0.52481  -0.51841  -0.51159  -0.50229  -0.49795
 Alpha  occ. eigenvalues --   -0.49537  -0.48908  -0.48456  -0.47719  -0.47589
 Alpha  occ. eigenvalues --   -0.47486  -0.47119  -0.46526  -0.45975  -0.45391
 Alpha  occ. eigenvalues --   -0.44866  -0.44229  -0.44059  -0.43914  -0.43719
 Alpha  occ. eigenvalues --   -0.43431  -0.43369  -0.43226  -0.42458  -0.42334
 Alpha  occ. eigenvalues --   -0.42100  -0.41764  -0.41277  -0.40909  -0.40645
 Alpha  occ. eigenvalues --   -0.40526  -0.40356  -0.40222  -0.40062  -0.39665
 Alpha  occ. eigenvalues --   -0.39181  -0.38986  -0.38702  -0.38355  -0.38171
 Alpha  occ. eigenvalues --   -0.37888  -0.37306  -0.37249  -0.36732  -0.36667
 Alpha  occ. eigenvalues --   -0.36547  -0.36492  -0.35306  -0.35102  -0.34952
 Alpha  occ. eigenvalues --   -0.34376  -0.34206  -0.33777  -0.33500  -0.32665
 Alpha  occ. eigenvalues --   -0.32592  -0.31564  -0.31232  -0.30323  -0.29704
 Alpha  occ. eigenvalues --   -0.28332  -0.28284  -0.26509  -0.26263  -0.26138
 Alpha  occ. eigenvalues --   -0.25176  -0.24829  -0.24598  -0.23056  -0.21303
 Alpha  occ. eigenvalues --   -0.17613
 Alpha virt. eigenvalues --   -0.10655  -0.06128  -0.04426  -0.03116   0.00146
 Alpha virt. eigenvalues --    0.00240   0.01981   0.02154   0.02734   0.03420
 Alpha virt. eigenvalues --    0.04336   0.04402   0.04534   0.05298   0.05591

 Mulliken charges:
               1
     1  O   -0.198096
     2  O   -0.233969
     3  O   -0.255777
     4  O   -0.183830
     5  O   -0.230449
     6  O   -0.132532
     7  N   -0.018258
     8  N   -0.092285
     9  N   -0.153000
    10  N   -0.365124
    11  C   -0.044523
    12  C   -0.065490
    13  C   -0.142395
    14  C    0.001187
    15  C   -0.052177
    16  C    0.169634
    17  C    0.052850
    18  C   -0.149300
    19  C    0.086071
    20  C   -0.064015
    21  C    0.017135
    22  C    0.069043
    23  C    0.040712
    24  C    0.032257
    25  C   -0.072491
    26  C   -0.017442
    27  C    0.127146
    28  C   -0.076740
    29  C    0.077113
    30  C    0.080230
    31  C   -0.131284
    32  C   -0.094879
    33  C   -0.170367
    34  C    0.113045
    35  C   -0.117113
    36  C   -0.135501
    37  C    0.177114
    38  C    0.046139
    39  C    0.146627
    40  C    0.046783
    41  C    0.165345
    42  C    0.133599
    43  C   -0.045194
    44  H    0.172017
    45  H   -0.109350
    46  H    0.020521
    47  H    0.029136
    48  H    0.033438
    49  H    0.033225
    50  H    0.010347
    51  H    0.023939
    52  H    0.096745
    53  H    0.035786
    54  H    0.042412
    55  H    0.058493
    56  H    0.159436
    57  H    0.044613
    58  H    0.045171
    59  H    0.023361
    60  H    0.007286
    61  H    0.048523
    62  H    0.022907
    63  H    0.029065
    64  H    0.004287
    65  H    0.053079
    66  H    0.080435
    67  H    0.043985
    68  H   -0.000950
    69  H    0.127426
    70  H    0.003829
    71  H    0.020315
    72  H    0.003871
    73  H   -0.007303
    74  H    0.009386
    75  H    0.010833
    76  H    0.027232
    77  H    0.008355
    78  H    0.029473
    79  H    0.020647
    80  H    0.173391
    81  H    0.224839
 Sum of Mulliken charges =  -0.00000

 Dipole moment (field-independent basis, Debye):
    X=             -3.5975    Y=              1.3366    Z=             -1.1971  Tot=              4.0201
 Quadrupole moment (field-independent basis, Debye-Ang):
   XX=           -251.6403   YY=           -237.7554   ZZ=           -256.8383
   XY=             23.0307   XZ=             14.2232   YZ=            -14.1047

 Normal termination of Gaussian 16 at Sat Jun 29 14:17:16 2019.
