 Gaussian 16, Revision A.03,
 Gaussian 16:  ES64L-G16RevA.03 25-Dec-2016

 --------------------------
 # td=(NStates=1) B3LYP/SVP
 --------------------------

 --
 TD
 --
 Symbolic Z-matrix:
 Charge =  0 Multiplicity = 1

                         Standard orientation:
 ---------------------------------------------------------------------
 Center     Atomic      Atomic             Coordinates (Angstroms)
 Number     Number       Type             X           Y           Z
 ---------------------------------------------------------------------
      1          8           0        4.172239   -5.054707   -1.736900
      2          8           0       -3.062608   -4.820014   -1.081108
      3          8           0       -7.135238   -1.246085   -1.799866
      4          8           0       -4.035104   -3.185279    0.102137
      5          8           0       -7.706194   -0.133760    0.068162
      6          8           0        3.104847    2.199766    0.261561
      7          7           0        0.213463   -0.473825    0.646177
      8          7           0       -1.400604    1.817221    0.348849
      9          7           0        3.225269   -3.169988   -0.734114
     10          7           0        0.927902    2.863518    0.055510
     11          6           0       -0.733277   -2.444918    1.326113
     12          6           0       -0.991121   -1.040700    0.883494
     13          6           0        0.615625   -2.654948    1.230331
     14          6           0        1.296119   -1.426301    0.761049
     15          6           0       -3.709539    1.575637    0.241206
     16          6           0       -2.502974    0.923115    0.357715
     17          6           0       -2.295275   -0.436403    0.703714
     18          6           0       -3.459147    2.890146   -0.214815
     19          6           0       -1.712659   -3.314017    1.994149
     20          6           0        5.401817   -2.769288   -1.444956
     21          6           0        3.550041   -1.881839   -0.197956
     22          6           0       -1.972095    3.054095   -0.063063
     23          6           0        4.989334   -1.626820   -0.485173
     24          6           0       -5.175208    0.990569    0.328837
     25          6           0        2.633933   -0.987009    0.387472
     26          6           0        1.419151   -3.809715    1.672862
     27          6           0        4.276225   -3.841258   -1.314762
     28          6           0       -2.232400   -4.522954    1.098988
     29          6           0       -5.427836   -0.064035   -0.732745
     30          6           0       -4.377586    3.986043   -0.523827
     31          6           0       -1.085117    4.141019   -0.292475
     32          6           0        6.754395   -3.506870   -1.054500
     33          6           0        5.846856   -0.699215   -0.089170
     34          6           0        0.263601    3.923180   -0.293451
     35          6           0        1.320698    5.047320   -0.498728
     36          6           0        2.444636    4.506953   -0.214414
     37          6           0       -3.171108   -4.137303    0.026885
     38          6           0        5.503833    0.487439    0.758198
     39          6           0       -6.894391   -0.465025   -0.709766
     40          6           0        3.763492    5.284438   -0.201352
     41          6           0        2.240853    3.065133    0.110400
     42          6           0        0.888758    6.533089   -0.872510
     43          6           0        4.468157    5.389395    1.228525
     44          1           0        0.439697    0.355207    0.050861
     45          1           0       -3.151113   -1.044205    1.003159
     46          1           0       -2.677523   -2.825628    2.366522
     47          1           0       -1.265264   -3.817836    2.799683
     48          1           0        5.292940   -2.519866   -2.564208
     49          1           0       -5.468035    0.571263    1.260892
     50          1           0       -5.806207    1.880932    0.221964
     51          1           0        2.938262   -0.025047    0.530846
     52          1           0       -0.407190    1.847406    0.642341
     53          1           0        1.305540   -4.789799    1.123715
     54          1           0        2.597569   -3.724050    2.045600
     55          1           0        1.038673   -4.156150    2.722245
     56          1           0        2.278133   -3.447569   -0.424181
     57          1           0       -1.459001   -5.035368    0.684203
     58          1           0       -2.694347   -5.432711    1.849401
     59          1           0       -4.908036   -0.944018   -0.651110
     60          1           0       -5.215324    0.202384   -1.823240
     61          1           0       -3.990095    5.111281   -0.331110
     62          1           0       -5.456293    3.677793   -0.016725
     63          1           0       -4.467495    4.057807   -1.643667
     64          1           0       -1.346396    5.121226   -0.542011
     65          1           0        7.769185   -2.836809   -0.953291
     66          1           0        6.821877   -4.216787   -1.687163
     67          1           0        6.654437   -3.893111   -0.097537
     68          1           0        7.007253   -0.799946   -0.061873
     69          1           0        5.080899    1.336911    0.391057
     70          1           0        6.464536    1.047136    0.979316
     71          1           0        4.861434    0.255236    1.731682
     72          1           0        3.726612    6.249317   -0.557473
     73          1           0        4.557606    4.569919   -0.706388
     74          1           0        0.004714    6.851422   -1.537065
     75          1           0        1.769205    7.266533   -1.069468
     76          1           0        0.500273    6.828124    0.286608
     77          1           0        3.868874    5.962475    1.877198
     78          1           0        5.559802    5.802640    1.254981
     79          1           0        4.528831    4.483613    1.885969
     80          1           0       -3.884101   -4.648514   -1.458678
     81          1           0       -7.962435   -1.672775   -1.747534
 ---------------------------------------------------------------------

 SCF Done:  E(RB3LYP) =  -1949.08413517     A.U. after   17 cycles

 Excitation energies and oscillator strengths:

 Excited State   1:      Singlet-A      1.7906 eV  692.43 nm  f=0.4025  <S**2>=0.000
     156 ->157         0.71130
     156 <-157        -0.13235
 This state for optimization and/or second-order correction.
 Total Energy, E(TD-HF/TD-DFT) =  -1949.01833294
 Copying the excited state density for this state as the 1-particle RhoCI density.

 The electronic state is 1-A.
 Alpha  occ. eigenvalues --  -19.21003 -19.17227 -19.13898 -19.13067 -19.10596
 Alpha  occ. eigenvalues --  -19.09875 -14.38545 -14.37623 -14.35919 -14.28292
 Alpha  occ. eigenvalues --  -10.34337 -10.31548 -10.29735 -10.26204 -10.25108
 Alpha  occ. eigenvalues --  -10.24964 -10.24875 -10.24428 -10.23545 -10.23119
 Alpha  occ. eigenvalues --  -10.22524 -10.22319 -10.22222 -10.22185 -10.21961
 Alpha  occ. eigenvalues --  -10.21890 -10.21852 -10.21402 -10.21165 -10.20998
 Alpha  occ. eigenvalues --  -10.20947 -10.20541 -10.20324 -10.20235 -10.19653
 Alpha  occ. eigenvalues --  -10.19500 -10.19432 -10.19185 -10.18207 -10.17982
 Alpha  occ. eigenvalues --  -10.17726 -10.17408 -10.16949  -1.14283  -1.10237
 Alpha  occ. eigenvalues --   -1.02235  -1.01191  -1.00161  -0.99353  -0.97741
 Alpha  occ. eigenvalues --   -0.96061  -0.93452  -0.93324  -0.83416  -0.82195
 Alpha  occ. eigenvalues --   -0.81123  -0.80784  -0.79429  -0.78981  -0.78326
 Alpha  occ. eigenvalues --   -0.77844  -0.76289  -0.74688  -0.73271  -0.72500
 Alpha  occ. eigenvalues --   -0.71542  -0.69811  -0.69428  -0.68495  -0.68077
 Alpha  occ. eigenvalues --   -0.67411  -0.65405  -0.64462  -0.62525  -0.61849
 Alpha  occ. eigenvalues --   -0.61464  -0.60137  -0.59462  -0.58616  -0.57607
 Alpha  occ. eigenvalues --   -0.56279  -0.56186  -0.55599  -0.53621  -0.52841
 Alpha  occ. eigenvalues --   -0.52697  -0.52091  -0.51334  -0.50920  -0.49977
 Alpha  occ. eigenvalues --   -0.49423  -0.48929  -0.48724  -0.48033  -0.47778
 Alpha  occ. eigenvalues --   -0.47030  -0.46801  -0.46386  -0.46228  -0.45372
 Alpha  occ. eigenvalues --   -0.45037  -0.44439  -0.44248  -0.44205  -0.44029
 Alpha  occ. eigenvalues --   -0.43289  -0.42640  -0.42564  -0.42100  -0.41975
 Alpha  occ. eigenvalues --   -0.41688  -0.41552  -0.41354  -0.40950  -0.40624
 Alpha  occ. eigenvalues --   -0.40527  -0.40226  -0.40058  -0.39699  -0.39603
 Alpha  occ. eigenvalues --   -0.39450  -0.39076  -0.38815  -0.38219  -0.38190
 Alpha  occ. eigenvalues --   -0.37966  -0.37932  -0.37286  -0.36964  -0.36724
 Alpha  occ. eigenvalues --   -0.35844  -0.35784  -0.35370  -0.34980  -0.34962
 Alpha  occ. eigenvalues --   -0.34791  -0.33600  -0.33117  -0.33035  -0.32919
 Alpha  occ. eigenvalues --   -0.32675  -0.32562  -0.31946  -0.29533  -0.29346
 Alpha  occ. eigenvalues --   -0.28599  -0.26765  -0.26642  -0.26154  -0.26108
 Alpha  occ. eigenvalues --   -0.25226  -0.24773  -0.24274  -0.23945  -0.21916
 Alpha  occ. eigenvalues --   -0.17762
 Alpha virt. eigenvalues --   -0.10784  -0.05689  -0.04431  -0.04089  -0.00422
 Alpha virt. eigenvalues --    0.01068   0.01782   0.02427   0.02981   0.03465
 Alpha virt. eigenvalues --    0.04117   0.05116   0.05269   0.05483   0.06086

 Mulliken charges:
               1
     1  O   -0.286001
     2  O   -0.078776
     3  O   -0.185589
     4  O   -0.308069
     5  O   -0.180468
     6  O   -0.218845
     7  N   -0.111713
     8  N   -0.166689
     9  N   -0.104394
    10  N   -0.226452
    11  C   -0.064640
    12  C    0.031765
    13  C   -0.103237
    14  C    0.058886
    15  C   -0.098074
    16  C    0.127413
    17  C   -0.040930
    18  C   -0.091056
    19  C    0.123863
    20  C   -0.127105
    21  C    0.052056
    22  C    0.130150
    23  C    0.061885
    24  C    0.184173
    25  C    0.009025
    26  C   -0.068448
    27  C    0.164464
    28  C   -0.011528
    29  C   -0.003865
    30  C   -0.006456
    31  C   -0.085812
    32  C    0.124960
    33  C   -0.175326
    34  C    0.033561
    35  C   -0.059958
    36  C   -0.176173
    37  C    0.135955
    38  C    0.042888
    39  C    0.110421
    40  C    0.108195
    41  C    0.135405
    42  C   -0.028684
    43  C   -0.049812
    44  H    0.165094
    45  H    0.010895
    46  H    0.041378
    47  H   -0.017519
    48  H    0.072487
    49  H    0.009140
    50  H   -0.014640
    51  H   -0.041041
    52  H    0.153615
    53  H    0.048966
    54  H    0.074204
    55  H    0.023466
    56  H    0.137289
    57  H   -0.009334
    58  H    0.074404
    59  H    0.011437
    60  H    0.036706
    61  H    0.046473
    62  H    0.063500
    63  H    0.033615
    64  H   -0.070794
    65  H    0.034014
    66  H   -0.021280
    67  H   -0.008595
    68  H    0.034665
    69  H    0.015867
    70  H   -0.015297
    71  H    0.044935
    72  H   -0.019160
    73  H    0.027341
    74  H    0.056987
    75  H    0.039919
    76  H    0.045960
    77  H   -0.011974
    78  H    0.022294
    79  H    0.017657
    80  H    0.155904
    81  H    0.154457
 Sum of Mulliken charges =  -0.00000

 Dipole moment (field-independent basis, Debye):
    X=             -3.4889    Y=             -0.1212    Z=              0.7620  Tot=              3.5732
 Quadrupole moment (field-independent basis, Debye-Ang):
   XX=           -255.4304   YY=           -237.9995   ZZ=           -254.9543
   XY=             22.3669   XZ=             15.7311   YZ=            -17.7128

 Normal termination of Gaussian 16 at Sun Jun 30 21:25:22 2019.
