 Gaussian 16, Revision A.03,
 Gaussian 16:  ES64L-G16RevA.03 25-Dec-2016

 --------------------------
 # td=(NStates=1) B3LYP/SVP
 --------------------------

 --
 TD
 --
 Symbolic Z-matrix:
 Charge =  0 Multiplicity = 1

                         Standard orientation:
 ---------------------------------------------------------------------
 Center     Atomic      Atomic             Coordinates (Angstroms)
 Number     Number       Type             X           Y           Z
 ---------------------------------------------------------------------
      1          8           0        4.464436   -5.079574   -1.701381
      2          8           0       -3.089727   -4.917397   -0.845015
      3          8           0       -6.730736   -1.646832   -1.947759
      4          8           0       -3.948163   -3.078621    0.177264
      5          8           0       -7.499458   -0.879138    0.041809
      6          8           0        3.061990    2.444373    0.325059
      7          7           0        0.252051   -0.493042    0.480007
      8          7           0       -1.605805    1.841552    0.354058
      9          7           0        3.388982   -3.304866   -0.579010
     10          7           0        0.802938    2.928165    0.165418
     11          6           0       -0.629167   -2.270463    1.331890
     12          6           0       -0.919772   -1.040398    0.805577
     13          6           0        0.762239   -2.624621    1.173372
     14          6           0        1.332394   -1.431353    0.594098
     15          6           0       -3.793328    1.498505    0.216970
     16          6           0       -2.514835    0.877654    0.475496
     17          6           0       -2.226606   -0.485442    0.848241
     18          6           0       -3.576460    2.837602   -0.193178
     19          6           0       -1.687947   -3.153054    2.035410
     20          6           0        5.689501   -2.838846   -1.330106
     21          6           0        3.697084   -1.948659   -0.284794
     22          6           0       -2.169396    3.047392   -0.121016
     23          6           0        5.063807   -1.672313   -0.555677
     24          6           0       -5.134654    0.804761    0.223342
     25          6           0        2.673687   -1.090685    0.322154
     26          6           0        1.438230   -3.766257    1.819411
     27          6           0        4.501811   -3.923624   -1.284460
     28          6           0       -2.154075   -4.376050    1.203142
     29          6           0       -5.332006   -0.212121   -0.939211
     30          6           0       -4.539295    3.887193   -0.579760
     31          6           0       -1.277055    4.137823   -0.291839
     32          6           0        6.917075   -3.358582   -0.739265
     33          6           0        5.791090   -0.572957   -0.342868
     34          6           0        0.179605    4.079498   -0.182855
     35          6           0        1.012219    5.216609   -0.447488
     36          6           0        2.256999    4.694188   -0.250888
     37          6           0       -3.152184   -4.051293    0.128893
     38          6           0        5.384153    0.785492    0.398640
     39          6           0       -6.700195   -0.969550   -0.875499
     40          6           0        3.585023    5.454255   -0.113293
     41          6           0        2.142369    3.251886    0.141480
     42          6           0        0.544509    6.602087   -0.851572
     43          6           0        4.002541    5.617908    1.383363
     44          1           0        0.293388    0.438234   -0.082357
     45          1           0       -3.051846   -1.162753    1.025376
     46          1           0       -2.721320   -2.542117    2.385467
     47          1           0       -1.208329   -3.483940    2.921190
     48          1           0        5.896586   -2.547049   -2.379492
     49          1           0       -5.216187    0.256023    1.138470
     50          1           0       -5.969919    1.547542    0.201418
     51          1           0        2.938461   -0.023376    0.467978
     52          1           0       -0.550498    1.905856    0.562232
     53          1           0        1.655727   -4.832842    1.268846
     54          1           0        2.404152   -3.603568    1.936895
     55          1           0        0.863123   -4.144861    2.766562
     56          1           0        2.466679   -3.822970   -0.354029
     57          1           0       -1.276509   -5.058768    0.749701
     58          1           0       -2.600476   -5.116804    1.784486
     59          1           0       -4.598658   -1.111322   -0.958703
     60          1           0       -5.249906    0.358938   -1.833235
     61          1           0       -4.742225    4.641829    0.356946
     62          1           0       -5.671921    3.461898   -0.755892
     63          1           0       -4.168849    4.591032   -1.535000
     64          1           0       -1.686658    5.171840   -0.500620
     65          1           0        7.901119   -2.562840   -0.970495
     66          1           0        7.260048   -4.270122   -1.181345
     67          1           0        6.775165   -3.298402    0.328289
     68          1           0        6.831969   -0.703195   -0.494930
     69          1           0        4.862198    1.310364   -0.250954
     70          1           0        6.211129    1.562276    0.711262
     71          1           0        4.820430    0.672985    1.351207
     72          1           0        3.626359    6.444395   -0.645388
     73          1           0        4.397257    4.845313   -0.616819
     74          1           0       -0.283765    6.708655   -1.628669
     75          1           0        1.389705    7.310143   -1.249441
     76          1           0        0.148598    7.176420   -0.048140
     77          1           0        3.370972    6.424270    1.868059
     78          1           0        5.042150    6.061755    1.324641
     79          1           0        4.170522    4.675487    1.915317
     80          1           0       -3.664269   -4.630780   -1.454410
     81          1           0       -7.602463   -2.234218   -1.773811
 ---------------------------------------------------------------------

 SCF Done:  E(RB3LYP) =  -1949.15068241     A.U. after   20 cycles

 Excitation energies and oscillator strengths:

 Excited State   1:      Singlet-A      1.6194 eV  765.62 nm  f=0.3505  <S**2>=0.000
     156 ->157         0.71648
     156 <-157        -0.15172
 This state for optimization and/or second-order correction.
 Total Energy, E(TD-HF/TD-DFT) =  -1949.09117084
 Copying the excited state density for this state as the 1-particle RhoCI density.

 The electronic state is 1-A.
 Alpha  occ. eigenvalues --  -19.21123 -19.20762 -19.14518 -19.12322 -19.12297
 Alpha  occ. eigenvalues --  -19.09578 -14.37864 -14.37667 -14.35124 -14.28524
 Alpha  occ. eigenvalues --  -10.34372 -10.31595 -10.30575 -10.25833 -10.25485
 Alpha  occ. eigenvalues --  -10.24304 -10.23539 -10.23161 -10.22635 -10.22566
 Alpha  occ. eigenvalues --  -10.22344 -10.22119 -10.21997 -10.21535 -10.21325
 Alpha  occ. eigenvalues --  -10.21078 -10.20474 -10.20365 -10.20321 -10.20196
 Alpha  occ. eigenvalues --  -10.20059 -10.20007 -10.19968 -10.19691 -10.19602
 Alpha  occ. eigenvalues --  -10.19472 -10.19438 -10.19337 -10.19298 -10.19227
 Alpha  occ. eigenvalues --  -10.18923 -10.18311 -10.17311  -1.14870  -1.12469
 Alpha  occ. eigenvalues --   -1.02842  -1.01581  -1.00763  -1.00151  -0.98155
 Alpha  occ. eigenvalues --   -0.97041  -0.93705  -0.91717  -0.82508  -0.81771
 Alpha  occ. eigenvalues --   -0.80861  -0.80676  -0.78900  -0.78646  -0.77714
 Alpha  occ. eigenvalues --   -0.76329  -0.75711  -0.74533  -0.73267  -0.72260
 Alpha  occ. eigenvalues --   -0.70353  -0.69715  -0.69597  -0.68648  -0.67119
 Alpha  occ. eigenvalues --   -0.66809  -0.65240  -0.64708  -0.62922  -0.62091
 Alpha  occ. eigenvalues --   -0.60493  -0.59065  -0.58454  -0.57284  -0.56595
 Alpha  occ. eigenvalues --   -0.55121  -0.54646  -0.54277  -0.53485  -0.52668
 Alpha  occ. eigenvalues --   -0.52088  -0.51985  -0.51225  -0.51104  -0.50112
 Alpha  occ. eigenvalues --   -0.49610  -0.49401  -0.49231  -0.48265  -0.47889
 Alpha  occ. eigenvalues --   -0.47178  -0.46763  -0.46146  -0.45516  -0.44486
 Alpha  occ. eigenvalues --   -0.44183  -0.44061  -0.43948  -0.43683  -0.43546
 Alpha  occ. eigenvalues --   -0.43191  -0.43007  -0.42734  -0.42191  -0.41967
 Alpha  occ. eigenvalues --   -0.41824  -0.41519  -0.41279  -0.41063  -0.40742
 Alpha  occ. eigenvalues --   -0.40486  -0.40273  -0.40097  -0.39568  -0.39284
 Alpha  occ. eigenvalues --   -0.38968  -0.38790  -0.38359  -0.38041  -0.37749
 Alpha  occ. eigenvalues --   -0.37511  -0.37207  -0.36891  -0.36761  -0.36340
 Alpha  occ. eigenvalues --   -0.36224  -0.35935  -0.35044  -0.35008  -0.34905
 Alpha  occ. eigenvalues --   -0.34511  -0.34329  -0.34197  -0.33788  -0.32699
 Alpha  occ. eigenvalues --   -0.32491  -0.32372  -0.32237  -0.30049  -0.29313
 Alpha  occ. eigenvalues --   -0.28169  -0.27591  -0.27092  -0.26269  -0.25832
 Alpha  occ. eigenvalues --   -0.24994  -0.24293  -0.23923  -0.22911  -0.21081
 Alpha  occ. eigenvalues --   -0.17129
 Alpha virt. eigenvalues --   -0.10890  -0.06257  -0.04789  -0.02283  -0.01182
 Alpha virt. eigenvalues --    0.01430   0.02255   0.02506   0.03093   0.03828
 Alpha virt. eigenvalues --    0.03905   0.04621   0.05074   0.05339   0.05523

 Mulliken charges:
               1
     1  O   -0.210730
     2  O   -0.055711
     3  O   -0.141064
     4  O   -0.275678
     5  O   -0.246281
     6  O   -0.227877
     7  N   -0.104184
     8  N   -0.129369
     9  N   -0.213812
    10  N   -0.291504
    11  C   -0.134238
    12  C    0.076121
    13  C   -0.099024
    14  C    0.109690
    15  C   -0.111180
    16  C    0.080191
    17  C   -0.067553
    18  C   -0.060466
    19  C    0.071503
    20  C   -0.060346
    21  C    0.104119
    22  C    0.114798
    23  C   -0.004111
    24  C    0.145825
    25  C   -0.128364
    26  C    0.054764
    27  C    0.173907
    28  C    0.013325
    29  C   -0.067160
    30  C   -0.061085
    31  C   -0.131659
    32  C    0.018622
    33  C   -0.123508
    34  C    0.046009
    35  C   -0.043768
    36  C   -0.183753
    37  C    0.124144
    38  C    0.083115
    39  C    0.128990
    40  C    0.041321
    41  C    0.156478
    42  C    0.070087
    43  C   -0.013278
    44  H    0.170434
    45  H    0.016986
    46  H    0.054260
    47  H   -0.009475
    48  H    0.049971
    49  H    0.001505
    50  H    0.007054
    51  H    0.023786
    52  H    0.162288
    53  H    0.020895
    54  H   -0.018940
    55  H    0.040336
    56  H    0.167684
    57  H    0.047371
    58  H    0.020541
    59  H    0.065452
    60  H    0.017025
    61  H    0.049985
    62  H    0.040218
    63  H    0.056258
    64  H   -0.019866
    65  H    0.029503
    66  H    0.032605
    67  H    0.022568
    68  H   -0.019097
    69  H    0.015090
    70  H    0.006588
    71  H    0.043806
    72  H    0.000754
    73  H    0.010100
    74  H    0.030212
    75  H    0.024403
    76  H    0.011003
    77  H    0.023659
    78  H    0.004742
    79  H    0.038632
    80  H    0.131944
    81  H    0.202412
 Sum of Mulliken charges =  -0.00000

 Dipole moment (field-independent basis, Debye):
    X=             -2.0694    Y=             -0.9095    Z=             -1.0466  Tot=              2.4910
 Quadrupole moment (field-independent basis, Debye-Ang):
   XX=           -251.6328   YY=           -232.7734   ZZ=           -254.1263
   XY=             18.6685   XZ=             16.0131   YZ=            -10.9093

 Normal termination of Gaussian 16 at Fri Jun 28 11:54:30 2019.
