 Gaussian 16, Revision A.03,
 Gaussian 16:  ES64L-G16RevA.03 25-Dec-2016

 --------------------------
 # td=(NStates=1) B3LYP/SVP
 --------------------------

 --
 TD
 --
 Symbolic Z-matrix:
 Charge =  0 Multiplicity = 1

                         Standard orientation:
 ---------------------------------------------------------------------
 Center     Atomic      Atomic             Coordinates (Angstroms)
 Number     Number       Type             X           Y           Z
 ---------------------------------------------------------------------
      1          8           0        4.173484   -4.985785   -1.810685
      2          8           0       -3.191210   -5.016790   -0.783267
      3          8           0       -6.859685   -1.403705   -2.049693
      4          8           0       -3.761027   -3.030505    0.097639
      5          8           0       -7.502182   -0.858865   -0.021446
      6          8           0        3.123821    2.371647    0.166871
      7          7           0        0.228020   -0.468809    0.439504
      8          7           0       -1.508721    1.868509    0.349944
      9          7           0        3.143424   -3.262686   -0.650098
     10          7           0        0.915686    2.871403    0.053257
     11          6           0       -0.576818   -2.339803    1.336110
     12          6           0       -0.933482   -1.070652    0.886460
     13          6           0        0.816709   -2.626695    1.224352
     14          6           0        1.267226   -1.402278    0.628891
     15          6           0       -3.736138    1.543544    0.284911
     16          6           0       -2.514924    0.938513    0.592955
     17          6           0       -2.203654   -0.448216    0.743160
     18          6           0       -3.575984    2.800840   -0.116298
     19          6           0       -1.596737   -3.244573    2.111052
     20          6           0        5.463792   -2.844418   -1.354302
     21          6           0        3.555615   -1.969412   -0.231479
     22          6           0       -2.142610    3.038866    0.007373
     23          6           0        4.968175   -1.675875   -0.514881
     24          6           0       -5.066090    0.855074    0.324377
     25          6           0        2.611120   -1.094362    0.278745
     26          6           0        1.542428   -3.710160    1.907290
     27          6           0        4.292795   -3.901080   -1.348609
     28          6           0       -2.130048   -4.469629    1.178247
     29          6           0       -5.291317    0.033822   -0.946354
     30          6           0       -4.542884    3.865133   -0.371963
     31          6           0       -1.277559    4.154503   -0.279428
     32          6           0        6.787326   -3.379082   -0.927276
     33          6           0        5.832644   -0.754208   -0.100793
     34          6           0        0.196968    3.958556   -0.197895
     35          6           0        1.008150    5.190677   -0.363055
     36          6           0        2.336394    4.742079   -0.194736
     37          6           0       -3.082137   -4.082381    0.104468
     38          6           0        5.442495    0.531230    0.653038
     39          6           0       -6.591205   -0.819753   -0.911713
     40          6           0        3.656650    5.449793   -0.277518
     41          6           0        2.231303    3.291566    0.061113
     42          6           0        0.598644    6.546001   -0.669721
     43          6           0        4.258792    5.576573    1.087851
     44          1           0        0.283332    0.314112   -0.117611
     45          1           0       -3.168537   -0.877993    0.961918
     46          1           0       -2.475192   -2.764851    2.322763
     47          1           0       -1.111816   -3.692713    3.067488
     48          1           0        5.353846   -2.611525   -2.451694
     49          1           0       -5.168741    0.373271    1.399725
     50          1           0       -5.859231    1.519557    0.464041
     51          1           0        2.934317   -0.074075    0.353875
     52          1           0       -0.480565    1.811108    0.474208
     53          1           0        1.687781   -4.582982    1.322574
     54          1           0        2.629687   -3.217771    2.070140
     55          1           0        1.069961   -4.076530    2.756262
     56          1           0        2.336373   -3.672288   -0.706298
     57          1           0       -1.267434   -5.041022    0.745136
     58          1           0       -2.604277   -5.272777    1.779382
     59          1           0       -4.502106   -0.629370   -1.046434
     60          1           0       -5.460938    0.814262   -1.639594
     61          1           0       -4.203542    4.889879   -0.047678
     62          1           0       -5.563565    3.688692    0.200753
     63          1           0       -4.521570    4.095518   -1.576927
     64          1           0       -1.782091    5.178270   -0.467009
     65          1           0        7.435137   -2.581045   -1.194480
     66          1           0        7.052665   -4.208433   -1.469387
     67          1           0        7.037854   -3.427278    0.324924
     68          1           0        6.848049   -0.923578   -0.372846
     69          1           0        4.990014    1.257632   -0.092180
     70          1           0        6.478406    1.098918    1.110088
     71          1           0        4.803528    0.327206    1.372012
     72          1           0        3.472033    6.376565   -0.776045
     73          1           0        4.322430    4.928705   -0.885186
     74          1           0       -0.133582    6.737117   -1.628904
     75          1           0        1.341201    7.488682   -0.866472
     76          1           0       -0.156328    6.960974    0.111529
     77          1           0        3.605648    6.230965    1.830324
     78          1           0        5.210441    5.943754    0.730681
     79          1           0        4.358732    4.742830    1.640764
     80          1           0       -4.037964   -5.018855   -1.399440
     81          1           0       -7.702265   -1.877002   -2.070234
 ---------------------------------------------------------------------

 SCF Done:  E(RB3LYP) =  -1949.09771278     A.U. after   19 cycles

 Excitation energies and oscillator strengths:

 Excited State   1:      Singlet-A      1.7273 eV  717.79 nm  f=0.3174  <S**2>=0.000
     156 ->157         0.70899
     156 <-157        -0.12383
 This state for optimization and/or second-order correction.
 Total Energy, E(TD-HF/TD-DFT) =  -1949.03423594
 Copying the excited state density for this state as the 1-particle RhoCI density.

 The electronic state is 1-A.
 Alpha  occ. eigenvalues --  -19.20518 -19.18483 -19.12863 -19.12394 -19.11104
 Alpha  occ. eigenvalues --  -19.09277 -14.37071 -14.35394 -14.35132 -14.28717
 Alpha  occ. eigenvalues --  -10.33268 -10.32084 -10.29678 -10.25904 -10.24428
 Alpha  occ. eigenvalues --  -10.23691 -10.23577 -10.23114 -10.22775 -10.22570
 Alpha  occ. eigenvalues --  -10.21848 -10.21732 -10.21686 -10.21380 -10.20990
 Alpha  occ. eigenvalues --  -10.20911 -10.20484 -10.20082 -10.19873 -10.19807
 Alpha  occ. eigenvalues --  -10.19759 -10.19738 -10.19733 -10.19679 -10.19545
 Alpha  occ. eigenvalues --  -10.19490 -10.19442 -10.19363 -10.18749 -10.17766
 Alpha  occ. eigenvalues --  -10.17606 -10.17574 -10.16937  -1.11194  -1.10211
 Alpha  occ. eigenvalues --   -1.05264  -0.99691  -0.98468  -0.98013  -0.97187
 Alpha  occ. eigenvalues --   -0.96625  -0.93580  -0.90910  -0.83254  -0.82758
 Alpha  occ. eigenvalues --   -0.81556  -0.80448  -0.79888  -0.78636  -0.77622
 Alpha  occ. eigenvalues --   -0.77143  -0.76075  -0.75442  -0.73664  -0.72149
 Alpha  occ. eigenvalues --   -0.71378  -0.70294  -0.69098  -0.68694  -0.68147
 Alpha  occ. eigenvalues --   -0.67091  -0.65197  -0.64299  -0.62333  -0.62006
 Alpha  occ. eigenvalues --   -0.61782  -0.60897  -0.58612  -0.57811  -0.56312
 Alpha  occ. eigenvalues --   -0.56179  -0.55910  -0.54899  -0.53989  -0.53304
 Alpha  occ. eigenvalues --   -0.52603  -0.51622  -0.50983  -0.50163  -0.49568
 Alpha  occ. eigenvalues --   -0.49222  -0.48964  -0.48198  -0.48145  -0.47201
 Alpha  occ. eigenvalues --   -0.47105  -0.46887  -0.46293  -0.45397  -0.44995
 Alpha  occ. eigenvalues --   -0.44953  -0.44598  -0.44147  -0.44058  -0.43477
 Alpha  occ. eigenvalues --   -0.43146  -0.43034  -0.42562  -0.42399  -0.41909
 Alpha  occ. eigenvalues --   -0.41603  -0.41375  -0.41051  -0.40790  -0.40620
 Alpha  occ. eigenvalues --   -0.40385  -0.40108  -0.39772  -0.39707  -0.39384
 Alpha  occ. eigenvalues --   -0.39038  -0.38584  -0.38364  -0.38137  -0.37791
 Alpha  occ. eigenvalues --   -0.37781  -0.37505  -0.37023  -0.36914  -0.36156
 Alpha  occ. eigenvalues --   -0.36069  -0.35867  -0.35511  -0.35369  -0.34249
 Alpha  occ. eigenvalues --   -0.33758  -0.33704  -0.33388  -0.32693  -0.32582
 Alpha  occ. eigenvalues --   -0.32416  -0.31250  -0.30492  -0.28909  -0.28487
 Alpha  occ. eigenvalues --   -0.27286  -0.27061  -0.26651  -0.25940  -0.25625
 Alpha  occ. eigenvalues --   -0.25266  -0.24731  -0.23720  -0.22557  -0.20958
 Alpha  occ. eigenvalues --   -0.17181
 Alpha virt. eigenvalues --   -0.10264  -0.06218  -0.03803  -0.01446  -0.00156
 Alpha virt. eigenvalues --    0.00603   0.01426   0.02479   0.03664   0.03719
 Alpha virt. eigenvalues --    0.04212   0.04701   0.05045   0.05655   0.06267

 Mulliken charges:
               1
     1  O   -0.161393
     2  O   -0.179934
     3  O   -0.145056
     4  O   -0.272829
     5  O   -0.300073
     6  O   -0.266340
     7  N   -0.054765
     8  N   -0.120902
     9  N   -0.134790
    10  N   -0.245250
    11  C   -0.116047
    12  C    0.120210
    13  C   -0.156246
    14  C    0.076756
    15  C   -0.109847
    16  C    0.024208
    17  C   -0.029282
    18  C   -0.067421
    19  C    0.133042
    20  C   -0.080414
    21  C    0.098995
    22  C    0.084425
    23  C    0.028200
    24  C    0.060748
    25  C   -0.113149
    26  C    0.144818
    27  C    0.111980
    28  C   -0.040551
    29  C    0.111492
    30  C    0.012326
    31  C   -0.164617
    32  C    0.080684
    33  C   -0.149963
    34  C    0.092857
    35  C   -0.044949
    36  C   -0.210500
    37  C    0.149149
    38  C    0.070000
    39  C    0.132549
    40  C    0.173927
    41  C    0.152956
    42  C   -0.045924
    43  C    0.035534
    44  H    0.103274
    45  H    0.009459
    46  H   -0.013084
    47  H    0.024148
    48  H    0.052031
    49  H    0.035467
    50  H   -0.035324
    51  H   -0.007091
    52  H    0.146054
    53  H   -0.002312
    54  H    0.053705
    55  H   -0.009128
    56  H    0.069268
    57  H    0.029803
    58  H    0.043105
    59  H    0.031252
    60  H    0.030031
    61  H    0.024090
    62  H    0.055733
    63  H    0.040923
    64  H   -0.003896
    65  H    0.004980
    66  H    0.004634
    67  H    0.048013
    68  H   -0.026383
    69  H    0.084827
    70  H    0.013438
    71  H    0.003405
    72  H   -0.026440
    73  H   -0.014920
    74  H    0.031112
    75  H    0.048163
    76  H    0.030953
    77  H    0.014275
    78  H    0.005326
    79  H   -0.002720
    80  H    0.234851
    81  H    0.184363
 Sum of Mulliken charges =  -0.00000

 Dipole moment (field-independent basis, Debye):
    X=             -2.3468    Y=             -0.7200    Z=             -1.6016  Tot=              2.9310
 Quadrupole moment (field-independent basis, Debye-Ang):
   XX=           -248.1999   YY=           -229.0775   ZZ=           -251.7542
   XY=             12.9954   XZ=             14.8870   YZ=             -8.6334

 Normal termination of Gaussian 16 at Thu Jun 27 09:46:46 2019.
