 Gaussian 16, Revision A.03,
 Gaussian 16:  ES64L-G16RevA.03 25-Dec-2016

 --------------------------
 # td=(NStates=1) B3LYP/SVP
 --------------------------

 --
 TD
 --
 Symbolic Z-matrix:
 Charge =  0 Multiplicity = 1

                         Standard orientation:
 ---------------------------------------------------------------------
 Center     Atomic      Atomic             Coordinates (Angstroms)
 Number     Number       Type             X           Y           Z
 ---------------------------------------------------------------------
      1          8           0        4.136801   -4.835226   -2.022013
      2          8           0       -3.114169   -4.975557   -0.905651
      3          8           0       -6.716806   -1.834564   -1.736590
      4          8           0       -3.754032   -3.062337    0.141856
      5          8           0       -7.666877   -0.274962   -0.193886
      6          8           0        2.878777    2.422505    0.564532
      7          7           0        0.265071   -0.520682    0.623489
      8          7           0       -1.579127    1.917856    0.366149
      9          7           0        3.303241   -3.170938   -0.693832
     10          7           0        0.682852    2.947079    0.061394
     11          6           0       -0.624380   -2.387884    1.503770
     12          6           0       -0.958822   -1.027954    1.016917
     13          6           0        0.736716   -2.655706    1.231435
     14          6           0        1.319959   -1.347163    0.736621
     15          6           0       -3.699308    1.483897    0.359732
     16          6           0       -2.439571    0.856514    0.583934
     17          6           0       -2.207761   -0.529622    0.784598
     18          6           0       -3.580020    2.791453   -0.069654
     19          6           0       -1.544132   -3.365488    2.062382
     20          6           0        5.489149   -2.914806   -1.491340
     21          6           0        3.592405   -1.859622   -0.216871
     22          6           0       -2.109841    3.056995   -0.128859
     23          6           0        5.067921   -1.640021   -0.520377
     24          6           0       -5.072418    0.702517    0.254088
     25          6           0        2.636938   -1.079705    0.323813
     26          6           0        1.487272   -3.668001    1.987140
     27          6           0        4.192816   -3.797653   -1.547006
     28          6           0       -1.946148   -4.502569    1.081431
     29          6           0       -5.269775   -0.185797   -0.899298
     30          6           0       -4.488115    3.886611   -0.464434
     31          6           0       -1.294419    4.236581   -0.371141
     32          6           0        6.808011   -3.504263   -0.959452
     33          6           0        5.772877   -0.571183   -0.105418
     34          6           0        0.065703    4.133605   -0.343124
     35          6           0        1.112950    5.261523   -0.648411
     36          6           0        2.343388    4.637877   -0.294030
     37          6           0       -3.031111   -4.013667    0.098958
     38          6           0        5.474256    0.539711    0.741055
     39          6           0       -6.645266   -0.763126   -0.946063
     40          6           0        3.657694    5.271091   -0.167155
     41          6           0        2.129450    3.221021    0.139136
     42          6           0        0.714494    6.669409   -0.993751
     43          6           0        4.102291    5.660148    1.272412
     44          1           0        0.244274    0.275102    0.104731
     45          1           0       -3.033390   -1.332002    0.876945
     46          1           0       -2.342606   -3.048920    2.473878
     47          1           0       -0.906467   -3.860903    2.962786
     48          1           0        5.508376   -2.429174   -2.498237
     49          1           0       -5.043746    0.034226    1.206972
     50          1           0       -5.955101    1.429160    0.345505
     51          1           0        2.825878   -0.022701    0.408463
     52          1           0       -0.553906    1.933622    0.595007
     53          1           0        1.793343   -4.516750    1.390177
     54          1           0        2.422643   -3.359303    2.019606
     55          1           0        0.990176   -3.836114    3.124003
     56          1           0        2.336536   -3.422158   -0.590001
     57          1           0       -0.915580   -4.835825    0.555828
     58          1           0       -2.396446   -5.497357    1.536777
     59          1           0       -4.757416   -1.322780   -0.625830
     60          1           0       -4.924974    0.367346   -1.866155
     61          1           0       -4.348517    4.651043   -0.039579
     62          1           0       -5.513116    3.433524   -0.364797
     63          1           0       -4.288093    4.194560   -1.616665
     64          1           0       -1.885610    5.094099   -0.442356
     65          1           0        7.595147   -2.955927   -1.371588
     66          1           0        6.790969   -4.588922   -1.440298
     67          1           0        6.667513   -3.732532    0.211811
     68          1           0        6.737697   -0.510731   -0.637532
     69          1           0        4.698989    1.254237    0.427515
     70          1           0        6.342878    1.003586    1.003204
     71          1           0        5.010369    0.335663    1.865735
     72          1           0        3.802368    6.221157   -0.756346
     73          1           0        4.300139    4.607905   -0.669643
     74          1           0        0.332855    6.429387   -1.971020
     75          1           0        1.573841    7.375872   -0.884976
     76          1           0       -0.288932    6.978743   -0.447429
     77          1           0        3.474826    6.296994    1.813252
     78          1           0        5.031813    6.119574    1.233488
     79          1           0        4.361079    4.870228    1.828393
     80          1           0       -3.730181   -4.628703   -1.405172
     81          1           0       -7.530667   -2.305641   -1.709056
 ---------------------------------------------------------------------

 SCF Done:  E(RB3LYP) =  -1948.99116925     A.U. after   18 cycles

 Excitation energies and oscillator strengths:

 Excited State   1:      Singlet-A      1.8210 eV  680.86 nm  f=0.3661  <S**2>=0.000
     156 ->157         0.70392
     156 <-157        -0.12444
 This state for optimization and/or second-order correction.
 Total Energy, E(TD-HF/TD-DFT) =  -1948.92424933
 Copying the excited state density for this state as the 1-particle RhoCI density.

 The electronic state is 1-A.
 Alpha  occ. eigenvalues --  -19.19952 -19.19099 -19.17323 -19.12312 -19.11536
 Alpha  occ. eigenvalues --  -19.10754 -14.38406 -14.36920 -14.34873 -14.27466
 Alpha  occ. eigenvalues --  -10.35368 -10.32990 -10.29701 -10.26220 -10.25049
 Alpha  occ. eigenvalues --  -10.24956 -10.24250 -10.23216 -10.23083 -10.22673
 Alpha  occ. eigenvalues --  -10.22249 -10.21735 -10.21689 -10.21482 -10.20912
 Alpha  occ. eigenvalues --  -10.20689 -10.20687 -10.20667 -10.20583 -10.20432
 Alpha  occ. eigenvalues --  -10.20128 -10.19793 -10.19746 -10.19705 -10.19329
 Alpha  occ. eigenvalues --  -10.19105 -10.18948 -10.18693 -10.18290 -10.18195
 Alpha  occ. eigenvalues --  -10.17994 -10.17741 -10.15676  -1.13354  -1.09871
 Alpha  occ. eigenvalues --   -1.08016  -1.05278  -1.03774  -0.99666  -0.97089
 Alpha  occ. eigenvalues --   -0.95346  -0.94226  -0.87920  -0.83579  -0.81872
 Alpha  occ. eigenvalues --   -0.80776  -0.80644  -0.79272  -0.78707  -0.78100
 Alpha  occ. eigenvalues --   -0.77408  -0.76231  -0.75527  -0.75044  -0.72892
 Alpha  occ. eigenvalues --   -0.72060  -0.70290  -0.69810  -0.69136  -0.68144
 Alpha  occ. eigenvalues --   -0.67875  -0.65965  -0.64756  -0.62841  -0.61727
 Alpha  occ. eigenvalues --   -0.60939  -0.59942  -0.59354  -0.58507  -0.58146
 Alpha  occ. eigenvalues --   -0.55822  -0.55438  -0.53873  -0.53704  -0.53168
 Alpha  occ. eigenvalues --   -0.52767  -0.52289  -0.51762  -0.50491  -0.49696
 Alpha  occ. eigenvalues --   -0.49491  -0.48980  -0.48801  -0.48303  -0.47688
 Alpha  occ. eigenvalues --   -0.47244  -0.46922  -0.46628  -0.46021  -0.45706
 Alpha  occ. eigenvalues --   -0.45169  -0.44819  -0.44624  -0.44342  -0.44157
 Alpha  occ. eigenvalues --   -0.43732  -0.43511  -0.43343  -0.43240  -0.42806
 Alpha  occ. eigenvalues --   -0.42612  -0.42246  -0.41636  -0.41139  -0.41039
 Alpha  occ. eigenvalues --   -0.40583  -0.40447  -0.40221  -0.40020  -0.39800
 Alpha  occ. eigenvalues --   -0.39546  -0.39279  -0.38986  -0.38749  -0.38659
 Alpha  occ. eigenvalues --   -0.38567  -0.38002  -0.37707  -0.37593  -0.37106
 Alpha  occ. eigenvalues --   -0.36319  -0.35943  -0.35810  -0.35294  -0.34950
 Alpha  occ. eigenvalues --   -0.34319  -0.33763  -0.33413  -0.33148  -0.32595
 Alpha  occ. eigenvalues --   -0.32035  -0.31605  -0.31313  -0.29911  -0.29673
 Alpha  occ. eigenvalues --   -0.27183  -0.27082  -0.26481  -0.26043  -0.25588
 Alpha  occ. eigenvalues --   -0.25051  -0.24090  -0.23342  -0.22676  -0.20825
 Alpha  occ. eigenvalues --   -0.17405
 Alpha virt. eigenvalues --   -0.10189  -0.05705  -0.04332  -0.03105  -0.02142
 Alpha virt. eigenvalues --    0.00799   0.01851   0.02167   0.03404   0.03699
 Alpha virt. eigenvalues --    0.04387   0.05279   0.05579   0.05658   0.05998

 Mulliken charges:
               1
     1  O   -0.121719
     2  O   -0.130424
     3  O   -0.144828
     4  O   -0.193598
     5  O   -0.348309
     6  O   -0.153080
     7  N    0.025055
     8  N   -0.092287
     9  N   -0.148857
    10  N   -0.407307
    11  C   -0.143436
    12  C    0.054782
    13  C   -0.208334
    14  C    0.037516
    15  C   -0.122292
    16  C    0.116862
    17  C   -0.113291
    18  C   -0.140149
    19  C    0.184399
    20  C   -0.110071
    21  C    0.098700
    22  C    0.019903
    23  C   -0.014136
    24  C    0.035507
    25  C   -0.070005
    26  C    0.171844
    27  C    0.123223
    28  C   -0.076408
    29  C   -0.079128
    30  C    0.224595
    31  C   -0.094914
    32  C    0.052837
    33  C   -0.141101
    34  C    0.144711
    35  C   -0.082175
    36  C   -0.213809
    37  C    0.161609
    38  C    0.064727
    39  C    0.191095
    40  C    0.065351
    41  C    0.182095
    42  C    0.094852
    43  C    0.114489
    44  H    0.086400
    45  H    0.060656
    46  H   -0.061184
    47  H    0.012279
    48  H    0.040254
    49  H    0.013589
    50  H    0.043253
    51  H   -0.001031
    52  H    0.144677
    53  H   -0.015050
    54  H   -0.047181
    55  H    0.065774
    56  H    0.113107
    57  H    0.077367
    58  H    0.074181
    59  H    0.097510
    60  H    0.066824
    61  H   -0.078114
    62  H    0.019294
    63  H    0.021491
    64  H   -0.059591
    65  H    0.022345
    66  H    0.034193
    67  H    0.050884
    68  H   -0.011513
    69  H    0.072677
    70  H   -0.016166
    71  H    0.030330
    72  H   -0.013211
    73  H   -0.011037
    74  H    0.026718
    75  H    0.043405
    76  H    0.043702
    77  H   -0.002442
    78  H   -0.026916
    79  H   -0.020791
    80  H    0.110481
    81  H    0.178340
 Sum of Mulliken charges =  -0.00000

 Dipole moment (field-independent basis, Debye):
    X=              0.1144    Y=             -1.1802    Z=             -0.9138  Tot=              1.4970
 Quadrupole moment (field-independent basis, Debye-Ang):
   XX=           -260.9444   YY=           -235.5207   ZZ=           -253.2558
   XY=             24.8352   XZ=             12.7984   YZ=            -12.9957

 Normal termination of Gaussian 16 at Wed Jul  3 17:10:40 2019.
