 Gaussian 16, Revision A.03,
 Gaussian 16:  ES64L-G16RevA.03 25-Dec-2016

 --------------------------
 # td=(NStates=1) B3LYP/SVP
 --------------------------

 --
 TD
 --
 Symbolic Z-matrix:
 Charge =  0 Multiplicity = 1

                         Standard orientation:
 ---------------------------------------------------------------------
 Center     Atomic      Atomic             Coordinates (Angstroms)
 Number     Number       Type             X           Y           Z
 ---------------------------------------------------------------------
      1          8           0        4.107805   -4.990847   -1.862694
      2          8           0       -3.108437   -4.831734   -0.853683
      3          8           0       -6.873973   -1.647503   -1.871368
      4          8           0       -3.932407   -2.965372    0.057338
      5          8           0       -7.675764   -0.281285   -0.076164
      6          8           0        3.101163    2.258572    0.296674
      7          7           0        0.197807   -0.475102    0.527367
      8          7           0       -1.521320    1.948620    0.318008
      9          7           0        3.155528   -3.221467   -0.641552
     10          7           0        0.863498    2.874833    0.031383
     11          6           0       -0.748644   -2.334387    1.353619
     12          6           0       -1.108744   -1.037539    0.930541
     13          6           0        0.640212   -2.558494    1.231045
     14          6           0        1.283948   -1.358329    0.692300
     15          6           0       -3.818110    1.676001    0.253021
     16          6           0       -2.576616    0.947281    0.412671
     17          6           0       -2.299030   -0.438265    0.750261
     18          6           0       -3.433937    3.008501   -0.101501
     19          6           0       -1.723348   -3.186886    2.109500
     20          6           0        5.384490   -2.978149   -1.353494
     21          6           0        3.633274   -1.937298   -0.225011
     22          6           0       -2.090192    3.093297    0.024473
     23          6           0        4.974101   -1.739476   -0.553567
     24          6           0       -5.181858    0.950337    0.258232
     25          6           0        2.621918   -1.121967    0.277557
     26          6           0        1.213823   -3.844424    1.741399
     27          6           0        4.124935   -3.871943   -1.403951
     28          6           0       -2.162859   -4.312281    1.286124
     29          6           0       -5.294910   -0.136222   -0.851566
     30          6           0       -4.340834    4.027833   -0.539734
     31          6           0       -1.178207    4.178297   -0.176473
     32          6           0        6.676697   -3.561564   -0.915835
     33          6           0        5.855137   -0.846595   -0.138445
     34          6           0        0.277460    4.098149   -0.130244
     35          6           0        1.284101    5.070197   -0.419198
     36          6           0        2.511021    4.486920   -0.294897
     37          6           0       -3.169462   -3.935652    0.110839
     38          6           0        5.606233    0.335459    0.856416
     39          6           0       -6.773338   -0.701313   -0.870013
     40          6           0        3.860483    5.175354   -0.310659
     41          6           0        2.244596    3.038921    0.064487
     42          6           0        0.983359    6.553081   -0.721377
     43          6           0        4.463865    5.576545    1.040888
     44          1           0        0.406243    0.479007    0.042921
     45          1           0       -3.158529   -1.052366    0.637600
     46          1           0       -2.426984   -2.526806    2.717940
     47          1           0       -1.075530   -3.638396    2.722431
     48          1           0        5.396065   -2.768188   -2.445746
     49          1           0       -5.339370    0.616583    1.339408
     50          1           0       -5.805728    1.699253   -0.314621
     51          1           0        2.842888   -0.089417    0.495337
     52          1           0       -0.564864    1.927728    0.539560
     53          1           0        1.305272   -4.684121    1.146634
     54          1           0        2.503352   -3.871271    1.741918
     55          1           0        0.897139   -3.975228    2.856194
     56          1           0        2.270757   -3.554677   -0.070664
     57          1           0       -1.318033   -5.167297    1.043862
     58          1           0       -2.977812   -4.779293    1.984431
     59          1           0       -4.489601   -0.925772   -0.878535
     60          1           0       -5.191441    0.381047   -1.950267
     61          1           0       -4.631533    4.981307    0.221574
     62          1           0       -5.376822    3.441087   -0.684545
     63          1           0       -3.909173    4.625071   -1.368034
     64          1           0       -1.531319    5.038639   -0.269509
     65          1           0        7.471619   -3.008176   -0.958304
     66          1           0        6.767491   -4.475817   -1.366094
     67          1           0        6.589515   -3.816732   -0.021407
     68          1           0        7.066670   -0.737398   -0.463203
     69          1           0        5.361419    1.337694    0.177873
     70          1           0        6.578415    0.373887    1.332319
     71          1           0        4.921004    0.211572    1.632632
     72          1           0        3.783488    6.005778   -1.069028
     73          1           0        4.592930    4.376922   -0.584384
     74          1           0        0.185487    6.884290   -1.576138
     75          1           0        1.889733    6.963746   -1.061962
     76          1           0        0.478917    6.966149    0.259906
     77          1           0        3.831757    6.232417    1.526759
     78          1           0        5.409985    6.155290    0.816837
     79          1           0        4.558245    4.689193    1.851940
     80          1           0       -3.759328   -4.654294   -1.486588
     81          1           0       -7.805405   -1.776564   -2.010756
 ---------------------------------------------------------------------

 SCF Done:  E(RB3LYP) =  -1948.99334856     A.U. after   18 cycles

 Excitation energies and oscillator strengths:

 Excited State   1:      Singlet-A      1.7111 eV  724.59 nm  f=0.3424  <S**2>=0.000
     156 ->157         0.71164
     156 <-157        -0.13664
 This state for optimization and/or second-order correction.
 Total Energy, E(TD-HF/TD-DFT) =  -1948.93046722
 Copying the excited state density for this state as the 1-particle RhoCI density.

 The electronic state is 1-A.
 Alpha  occ. eigenvalues --  -19.20370 -19.19489 -19.14678 -19.13686 -19.11033
 Alpha  occ. eigenvalues --  -19.09936 -14.37889 -14.37140 -14.34415 -14.27193
 Alpha  occ. eigenvalues --  -10.34626 -10.33546 -10.29358 -10.25309 -10.25292
 Alpha  occ. eigenvalues --  -10.24996 -10.24261 -10.23420 -10.23414 -10.22744
 Alpha  occ. eigenvalues --  -10.22181 -10.22093 -10.22019 -10.21881 -10.21401
 Alpha  occ. eigenvalues --  -10.21115 -10.20940 -10.20864 -10.20744 -10.20496
 Alpha  occ. eigenvalues --  -10.20297 -10.20194 -10.20108 -10.19980 -10.19069
 Alpha  occ. eigenvalues --  -10.18947 -10.18867 -10.18746 -10.18693 -10.18184
 Alpha  occ. eigenvalues --  -10.17632 -10.16889 -10.15120  -1.13008  -1.08656
 Alpha  occ. eigenvalues --   -1.03334  -1.02805  -1.02077  -0.99290  -0.97794
 Alpha  occ. eigenvalues --   -0.95475  -0.94677  -0.90652  -0.84153  -0.82631
 Alpha  occ. eigenvalues --   -0.81824  -0.81193  -0.78664  -0.78303  -0.78114
 Alpha  occ. eigenvalues --   -0.77350  -0.75932  -0.74721  -0.73858  -0.72390
 Alpha  occ. eigenvalues --   -0.71053  -0.70726  -0.69679  -0.68249  -0.68083
 Alpha  occ. eigenvalues --   -0.67083  -0.65713  -0.64604  -0.62785  -0.62485
 Alpha  occ. eigenvalues --   -0.61085  -0.59326  -0.59136  -0.58606  -0.56697
 Alpha  occ. eigenvalues --   -0.55800  -0.55336  -0.54272  -0.53279  -0.52221
 Alpha  occ. eigenvalues --   -0.51774  -0.51603  -0.51247  -0.50542  -0.49948
 Alpha  occ. eigenvalues --   -0.49463  -0.48930  -0.48817  -0.48538  -0.47783
 Alpha  occ. eigenvalues --   -0.47137  -0.47058  -0.46212  -0.45833  -0.45572
 Alpha  occ. eigenvalues --   -0.45451  -0.44723  -0.44228  -0.44114  -0.43897
 Alpha  occ. eigenvalues --   -0.43558  -0.43405  -0.43109  -0.42763  -0.42450
 Alpha  occ. eigenvalues --   -0.42330  -0.41639  -0.41308  -0.41166  -0.40858
 Alpha  occ. eigenvalues --   -0.40819  -0.40281  -0.40140  -0.39576  -0.39549
 Alpha  occ. eigenvalues --   -0.39078  -0.38951  -0.38472  -0.38197  -0.38002
 Alpha  occ. eigenvalues --   -0.37440  -0.37286  -0.36970  -0.36761  -0.36489
 Alpha  occ. eigenvalues --   -0.36062  -0.35835  -0.35535  -0.35146  -0.34852
 Alpha  occ. eigenvalues --   -0.34245  -0.33920  -0.33791  -0.33082  -0.32881
 Alpha  occ. eigenvalues --   -0.32538  -0.32384  -0.32324  -0.30200  -0.29909
 Alpha  occ. eigenvalues --   -0.28312  -0.27061  -0.26824  -0.25905  -0.25712
 Alpha  occ. eigenvalues --   -0.24902  -0.24082  -0.22836  -0.22320  -0.21158
 Alpha  occ. eigenvalues --   -0.17452
 Alpha virt. eigenvalues --   -0.10744  -0.06256  -0.04818  -0.02038  -0.01431
 Alpha virt. eigenvalues --    0.00443   0.01616   0.02702   0.03158   0.03614
 Alpha virt. eigenvalues --    0.04504   0.04687   0.04797   0.05098   0.05492

 Mulliken charges:
               1
     1  O   -0.204251
     2  O   -0.109334
     3  O   -0.181064
     4  O   -0.247235
     5  O   -0.269567
     6  O   -0.175570
     7  N   -0.213719
     8  N   -0.038513
     9  N   -0.199733
    10  N   -0.355633
    11  C   -0.142812
    12  C    0.161776
    13  C   -0.153148
    14  C    0.106907
    15  C   -0.104246
    16  C    0.031543
    17  C   -0.045316
    18  C   -0.098672
    19  C    0.245686
    20  C   -0.101633
    21  C    0.078548
    22  C    0.097200
    23  C    0.118698
    24  C    0.123256
    25  C   -0.076458
    26  C   -0.026181
    27  C    0.134950
    28  C   -0.072279
    29  C   -0.112825
    30  C   -0.005484
    31  C    0.000742
    32  C    0.306457
    33  C   -0.269399
    34  C    0.077362
    35  C   -0.075916
    36  C   -0.203375
    37  C    0.134137
    38  C    0.039480
    39  C    0.205526
    40  C    0.055455
    41  C    0.142777
    42  C    0.050526
    43  C    0.002566
    44  H    0.173717
    45  H   -0.005709
    46  H    0.044077
    47  H   -0.069963
    48  H    0.032385
    49  H    0.064037
    50  H    0.018562
    51  H    0.011061
    52  H    0.097849
    53  H    0.026966
    54  H    0.021911
    55  H    0.077778
    56  H    0.158694
    57  H    0.083517
    58  H    0.051121
    59  H    0.069868
    60  H    0.053553
    61  H    0.034546
    62  H    0.034247
    63  H    0.029251
    64  H   -0.153168
    65  H   -0.033981
    66  H   -0.015767
    67  H   -0.078020
    68  H    0.048807
    69  H    0.097368
    70  H    0.002242
    71  H    0.016780
    72  H    0.015864
    73  H    0.008506
    74  H    0.032642
    75  H   -0.001481
    76  H    0.044646
    77  H   -0.017311
    78  H    0.021380
    79  H    0.040752
    80  H    0.161214
    81  H    0.170828
 Sum of Mulliken charges =  -0.00000

 Dipole moment (field-independent basis, Debye):
    X=             -1.5111    Y=             -1.8091    Z=              0.5300  Tot=              2.4160
 Quadrupole moment (field-independent basis, Debye-Ang):
   XX=           -246.5582   YY=           -243.6461   ZZ=           -251.3050
   XY=             19.5709   XZ=             19.5401   YZ=            -15.7335

 Normal termination of Gaussian 16 at Fri Jun 28 19:36:32 2019.
