 Gaussian 16, Revision A.03,
 Gaussian 16:  ES64L-G16RevA.03 25-Dec-2016

 --------------------------
 # td=(NStates=1) B3LYP/SVP
 --------------------------

 --
 TD
 --
 Symbolic Z-matrix:
 Charge =  0 Multiplicity = 1

                         Standard orientation:
 ---------------------------------------------------------------------
 Center     Atomic      Atomic             Coordinates (Angstroms)
 Number     Number       Type             X           Y           Z
 ---------------------------------------------------------------------
      1          8           0        4.177618   -4.991426   -1.676324
      2          8           0       -2.934058   -4.911827   -1.068568
      3          8           0       -6.834652   -1.535051   -1.948943
      4          8           0       -3.757890   -3.134796   -0.007790
      5          8           0       -7.563232   -0.531188   -0.133458
      6          8           0        3.110503    2.319351    0.288654
      7          7           0        0.194372   -0.481496    0.637427
      8          7           0       -1.560495    1.917479    0.310982
      9          7           0        3.243357   -3.232884   -0.631335
     10          7           0        0.910130    2.877444    0.001864
     11          6           0       -0.781785   -2.445703    1.410719
     12          6           0       -1.023408   -1.043307    1.062232
     13          6           0        0.578950   -2.578100    1.308991
     14          6           0        1.207003   -1.412075    0.752116
     15          6           0       -3.782116    1.654821    0.324288
     16          6           0       -2.487388    0.949183    0.515558
     17          6           0       -2.223743   -0.393094    0.967260
     18          6           0       -3.502465    2.877885    0.006760
     19          6           0       -1.684387   -3.369363    2.035825
     20          6           0        5.377466   -2.847110   -1.417138
     21          6           0        3.488723   -1.910240   -0.172813
     22          6           0       -2.072385    3.054251    0.072494
     23          6           0        4.873781   -1.578121   -0.608090
     24          6           0       -5.146260    0.918589    0.405011
     25          6           0        2.551466   -1.028501    0.372074
     26          6           0        1.411622   -3.806244    1.756444
     27          6           0        4.237664   -3.839292   -1.224814
     28          6           0       -2.152880   -4.500968    1.103689
     29          6           0       -5.425993    0.086336   -0.975618
     30          6           0       -4.456584    4.032329   -0.363905
     31          6           0       -1.226301    4.178667   -0.223834
     32          6           0        6.690820   -3.494283   -0.841017
     33          6           0        5.759668   -0.715397   -0.211731
     34          6           0        0.184857    4.033169   -0.267914
     35          6           0        1.207045    5.130583   -0.386169
     36          6           0        2.500186    4.599544   -0.269093
     37          6           0       -2.966612   -4.089731    0.019618
     38          6           0        5.548211    0.447301    0.616806
     39          6           0       -6.692458   -0.645771   -0.948716
     40          6           0        3.787007    5.246308   -0.314659
     41          6           0        2.229603    3.189949   -0.002754
     42          6           0        0.774276    6.567088   -0.796848
     43          6           0        4.259248    5.547375    1.089282
     44          1           0        0.494991    0.403771   -0.261524
     45          1           0       -2.931209   -1.183315    1.224953
     46          1           0       -2.787866   -3.132804    2.294472
     47          1           0       -1.343982   -3.858341    2.963159
     48          1           0        5.492777   -2.447798   -2.439608
     49          1           0       -5.107615    0.428141    1.402191
     50          1           0       -5.842450    1.795735    0.450868
     51          1           0        2.818144   -0.071803    0.356671
     52          1           0       -0.450712    1.868295    0.554209
     53          1           0        1.631772   -4.873990    1.145939
     54          1           0        2.451691   -3.423822    2.018698
     55          1           0        0.933083   -4.213443    2.616390
     56          1           0        2.319766   -3.485603   -0.591450
     57          1           0       -1.361193   -5.137832    0.484818
     58          1           0       -2.622938   -5.421050    1.621296
     59          1           0       -4.813922   -0.837548   -1.116580
     60          1           0       -5.175057    0.815063   -1.903366
     61          1           0       -4.311336    4.789268    0.419606
     62          1           0       -5.548845    3.691350   -0.569842
     63          1           0       -4.082014    4.512564   -1.253276
     64          1           0       -1.640743    5.128172   -0.402603
     65          1           0        7.620362   -3.070617   -1.078154
     66          1           0        6.496137   -4.365873   -1.372129
     67          1           0        6.876600   -3.592844    0.214313
     68          1           0        6.746795   -0.820136   -0.707490
     69          1           0        5.065279    1.464096    0.198634
     70          1           0        6.509921    0.927197    0.841750
     71          1           0        4.892341    0.503391    1.389240
     72          1           0        3.819067    6.041297   -1.081085
     73          1           0        4.528174    4.469988   -0.773544
     74          1           0        0.330111    6.413741   -1.785255
     75          1           0        1.617887    7.227899   -0.915113
     76          1           0        0.250911    6.942763    0.041601
     77          1           0        3.443139    6.018377    1.711814
     78          1           0        5.251697    6.121848    1.163573
     79          1           0        4.542428    4.725521    1.875331
     80          1           0       -3.765608   -4.675846   -1.429449
     81          1           0       -7.702421   -1.856591   -1.934538
 ---------------------------------------------------------------------

 SCF Done:  E(RB3LYP) =  -1949.08506248     A.U. after   23 cycles

 Excitation energies and oscillator strengths:

 Excited State   1:      Singlet-A      1.7947 eV  690.82 nm  f=0.3026  <S**2>=0.000
     156 ->157         0.70518
     156 <-157        -0.11663
 This state for optimization and/or second-order correction.
 Total Energy, E(TD-HF/TD-DFT) =  -1949.01910737
 Copying the excited state density for this state as the 1-particle RhoCI density.

 The electronic state is 1-A.
 Alpha  occ. eigenvalues --  -19.19212 -19.17292 -19.14365 -19.11812 -19.10117
 Alpha  occ. eigenvalues --  -19.08670 -14.39026 -14.37502 -14.36790 -14.28730
 Alpha  occ. eigenvalues --  -10.33561 -10.31456 -10.28724 -10.25352 -10.25286
 Alpha  occ. eigenvalues --  -10.24496 -10.23732 -10.23506 -10.23466 -10.23404
 Alpha  occ. eigenvalues --  -10.22890 -10.22825 -10.22219 -10.21681 -10.21494
 Alpha  occ. eigenvalues --  -10.21444 -10.21342 -10.21065 -10.20745 -10.20410
 Alpha  occ. eigenvalues --  -10.20126 -10.19642 -10.19379 -10.19289 -10.19131
 Alpha  occ. eigenvalues --  -10.19097 -10.19065 -10.18917 -10.18854 -10.18852
 Alpha  occ. eigenvalues --  -10.18285 -10.17245 -10.16293  -1.11808  -1.10513
 Alpha  occ. eigenvalues --   -1.03329  -1.01151  -1.01061  -1.00546  -0.98273
 Alpha  occ. eigenvalues --   -0.97392  -0.95603  -0.90084  -0.84494  -0.82098
 Alpha  occ. eigenvalues --   -0.82040  -0.81493  -0.79670  -0.79219  -0.78702
 Alpha  occ. eigenvalues --   -0.77334  -0.76782  -0.75299  -0.74591  -0.72601
 Alpha  occ. eigenvalues --   -0.71487  -0.70179  -0.69299  -0.68549  -0.68291
 Alpha  occ. eigenvalues --   -0.67980  -0.66795  -0.65319  -0.62654  -0.61756
 Alpha  occ. eigenvalues --   -0.60923  -0.60149  -0.60090  -0.59229  -0.56665
 Alpha  occ. eigenvalues --   -0.56510  -0.55941  -0.54905  -0.53780  -0.52913
 Alpha  occ. eigenvalues --   -0.52242  -0.51961  -0.50936  -0.50699  -0.49695
 Alpha  occ. eigenvalues --   -0.49457  -0.49021  -0.48806  -0.48251  -0.47737
 Alpha  occ. eigenvalues --   -0.47126  -0.46843  -0.46482  -0.46410  -0.45701
 Alpha  occ. eigenvalues --   -0.45338  -0.45106  -0.44922  -0.44608  -0.44234
 Alpha  occ. eigenvalues --   -0.43708  -0.43420  -0.42829  -0.42317  -0.42076
 Alpha  occ. eigenvalues --   -0.41859  -0.41705  -0.41659  -0.41458  -0.40912
 Alpha  occ. eigenvalues --   -0.40566  -0.40328  -0.40106  -0.39463  -0.39359
 Alpha  occ. eigenvalues --   -0.39021  -0.38970  -0.38611  -0.38429  -0.38321
 Alpha  occ. eigenvalues --   -0.38184  -0.37702  -0.37414  -0.36882  -0.36838
 Alpha  occ. eigenvalues --   -0.36279  -0.36004  -0.35789  -0.35166  -0.34815
 Alpha  occ. eigenvalues --   -0.34348  -0.33922  -0.33644  -0.33297  -0.32211
 Alpha  occ. eigenvalues --   -0.32161  -0.31213  -0.30850  -0.30085  -0.29760
 Alpha  occ. eigenvalues --   -0.27656  -0.26869  -0.26768  -0.26395  -0.26048
 Alpha  occ. eigenvalues --   -0.25465  -0.24681  -0.23664  -0.22845  -0.21811
 Alpha  occ. eigenvalues --   -0.17879
 Alpha virt. eigenvalues --   -0.10596  -0.06083  -0.04261  -0.03255  -0.01046
 Alpha virt. eigenvalues --    0.00177   0.00285   0.01905   0.03360   0.04509
 Alpha virt. eigenvalues --    0.04914   0.05396   0.05677   0.05778   0.06350

 Mulliken charges:
               1
     1  O   -0.248208
     2  O   -0.156894
     3  O   -0.163523
     4  O   -0.261631
     5  O   -0.218204
     6  O   -0.277777
     7  N   -0.215838
     8  N   -0.024227
     9  N   -0.000000
    10  N   -0.316879
    11  C    0.028780
    12  C   -0.019601
    13  C   -0.147154
    14  C    0.093485
    15  C   -0.152857
    16  C    0.057323
    17  C    0.011949
    18  C   -0.135539
    19  C    0.075085
    20  C   -0.116611
    21  C    0.039850
    22  C    0.027684
    23  C   -0.012347
    24  C    0.144997
    25  C    0.008756
    26  C   -0.004802
    27  C    0.118060
    28  C   -0.076355
    29  C   -0.054993
    30  C    0.109901
    31  C   -0.091486
    32  C    0.092446
    33  C   -0.087061
    34  C    0.100425
    35  C   -0.183123
    36  C   -0.139970
    37  C    0.127362
    38  C    0.058549
    39  C    0.128396
    40  C    0.105979
    41  C    0.137692
    42  C    0.145198
    43  C   -0.044396
    44  H    0.254990
    45  H   -0.013683
    46  H    0.044818
    47  H    0.019579
    48  H    0.052437
    49  H    0.035278
    50  H    0.012972
    51  H   -0.074609
    52  H    0.202586
    53  H    0.056645
    54  H    0.046094
    55  H   -0.001313
    56  H    0.103848
    57  H    0.049212
    58  H    0.072443
    59  H    0.058664
    60  H    0.076284
    61  H    0.025469
    62  H    0.038395
    63  H    0.008348
    64  H   -0.048335
    65  H   -0.010016
    66  H    0.019697
    67  H    0.008904
    68  H   -0.004980
    69  H    0.071202
    70  H   -0.010352
    71  H   -0.003667
    72  H    0.007208
    73  H    0.017105
    74  H    0.038244
    75  H   -0.005283
    76  H    0.017595
    77  H    0.011623
    78  H    0.015251
    79  H    0.030300
    80  H    0.160821
    81  H    0.153789
 Sum of Mulliken charges =  -0.00000

 Dipole moment (field-independent basis, Debye):
    X=             -2.9602    Y=              0.6275    Z=              0.0781  Tot=              3.0270
 Quadrupole moment (field-independent basis, Debye-Ang):
   XX=           -257.9089   YY=           -242.2125   ZZ=           -251.7170
   XY=             20.0700   XZ=             11.1140   YZ=            -18.6075

 Normal termination of Gaussian 16 at Thu Jun 27 08:57:26 2019.
