 Gaussian 16, Revision A.03,
 Gaussian 16:  ES64L-G16RevA.03 25-Dec-2016

 --------------------------
 # td=(NStates=1) B3LYP/SVP
 --------------------------

 --
 TD
 --
 Symbolic Z-matrix:
 Charge =  0 Multiplicity = 1

                         Standard orientation:
 ---------------------------------------------------------------------
 Center     Atomic      Atomic             Coordinates (Angstroms)
 Number     Number       Type             X           Y           Z
 ---------------------------------------------------------------------
      1          8           0        4.377806   -4.786833   -1.858160
      2          8           0       -2.724607   -5.014361   -1.089007
      3          8           0       -6.911454   -1.858889   -1.857127
      4          8           0       -3.568734   -3.267613   -0.024134
      5          8           0       -7.573434   -0.696850   -0.004248
      6          8           0        2.964465    2.473404    0.339516
      7          7           0        0.232808   -0.481049    0.583217
      8          7           0       -1.667206    1.848802    0.391170
      9          7           0        3.357040   -3.037384   -0.611625
     10          7           0        0.640616    2.870947    0.113734
     11          6           0       -0.638641   -2.379512    1.405093
     12          6           0       -0.851886   -1.021237    0.936393
     13          6           0        0.786965   -2.474367    1.342842
     14          6           0        1.242864   -1.307893    0.736132
     15          6           0       -3.873043    1.477247    0.272722
     16          6           0       -2.576316    0.890922    0.499328
     17          6           0       -2.269891   -0.493877    0.852323
     18          6           0       -3.655452    2.713824   -0.026337
     19          6           0       -1.536189   -3.281605    2.039362
     20          6           0        5.600534   -2.677050   -1.349356
     21          6           0        3.654671   -1.722548   -0.265814
     22          6           0       -2.297680    2.980547   -0.021443
     23          6           0        5.144151   -1.435109   -0.508928
     24          6           0       -5.133593    0.656049    0.278288
     25          6           0        2.619696   -0.883630    0.198226
     26          6           0        1.663642   -3.623967    1.818132
     27          6           0        4.404455   -3.723283   -1.315801
     28          6           0       -1.943466   -4.573228    1.175823
     29          6           0       -5.324855   -0.254862   -0.899133
     30          6           0       -4.709486    3.751459   -0.355704
     31          6           0       -1.441280    4.127895   -0.331500
     32          6           0        6.935066   -3.224858   -0.911290
     33          6           0        5.859015   -0.392507   -0.142518
     34          6           0       -0.032093    4.066119   -0.210560
     35          6           0        0.830032    5.169483   -0.450855
     36          6           0        2.093066    4.749313   -0.325949
     37          6           0       -2.845981   -4.205720   -0.024199
     38          6           0        5.579307    0.727907    0.852509
     39          6           0       -6.725247   -0.867666   -0.887920
     40          6           0        3.517058    5.293478   -0.298409
     41          6           0        1.942956    3.208241    0.048274
     42          6           0        0.409377    6.547918   -0.894535
     43          6           0        4.270067    5.375497    1.067991
     44          1           0        0.569972    0.492386    0.288483
     45          1           0       -3.068727   -1.455592    1.074302
     46          1           0       -2.426761   -2.885068    2.479194
     47          1           0       -1.164268   -3.825796    3.003909
     48          1           0        5.987491   -2.331569   -2.177590
     49          1           0       -5.117687   -0.006517    1.096747
     50          1           0       -6.003790    1.408370    0.325636
     51          1           0        2.883013    0.123578    0.407944
     52          1           0       -0.603578    2.069939    0.633164
     53          1           0        1.947050   -4.354176    1.072880
     54          1           0        2.614745   -3.266941    2.133961
     55          1           0        1.228203   -4.133583    2.887073
     56          1           0        2.326321   -3.320985   -0.685127
     57          1           0       -1.057787   -4.986991    0.732974
     58          1           0       -2.361850   -5.350634    1.920883
     59          1           0       -4.511366   -1.154830   -0.971909
     60          1           0       -5.137287    0.201922   -1.991252
     61          1           0       -4.603644    4.645987    0.313586
     62          1           0       -5.760785    3.477107   -0.133766
     63          1           0       -4.518316    4.257619   -1.433765
     64          1           0       -2.002486    5.008293   -0.558211
     65          1           0        7.850015   -2.600531   -1.102445
     66          1           0        7.037849   -4.088167   -1.590560
     67          1           0        6.839811   -3.561109    0.092280
     68          1           0        6.910955   -0.262632   -0.587123
     69          1           0        4.988893    1.541034    0.244056
     70          1           0        6.390225    1.347621    1.050940
     71          1           0        4.826213    0.452226    1.744248
     72          1           0        3.427442    6.464761   -0.722141
     73          1           0        4.157911    4.686240   -0.987673
     74          1           0        0.148525    6.387184   -2.146414
     75          1           0        1.384940    7.051106   -0.734862
     76          1           0       -0.386502    6.996087   -0.202337
     77          1           0        3.770752    5.870007    1.748034
     78          1           0        5.552760    5.393976    1.065098
     79          1           0        4.297270    4.262615    1.655044
     80          1           0       -3.386731   -4.529296   -1.711900
     81          1           0       -7.670877   -2.381602   -1.442688
 ---------------------------------------------------------------------

 SCF Done:  E(RB3LYP) =  -1949.05437206     A.U. after   19 cycles

 Excitation energies and oscillator strengths:

 Excited State   1:      Singlet-A      1.8060 eV  686.52 nm  f=0.3110  <S**2>=0.000
     156 ->157         0.70407
     156 <-157        -0.10737
 This state for optimization and/or second-order correction.
 Total Energy, E(TD-HF/TD-DFT) =  -1948.98800310
 Copying the excited state density for this state as the 1-particle RhoCI density.

 The electronic state is 1-A.
 Alpha  occ. eigenvalues --  -19.20515 -19.18166 -19.15156 -19.13501 -19.12854
 Alpha  occ. eigenvalues --  -19.09075 -14.38746 -14.37636 -14.35593 -14.30188
 Alpha  occ. eigenvalues --  -10.33792 -10.32801 -10.30783 -10.26274 -10.24832
 Alpha  occ. eigenvalues --  -10.24360 -10.23874 -10.23703 -10.23630 -10.23242
 Alpha  occ. eigenvalues --  -10.23227 -10.22774 -10.22546 -10.21608 -10.21421
 Alpha  occ. eigenvalues --  -10.21188 -10.21040 -10.20498 -10.20322 -10.20120
 Alpha  occ. eigenvalues --  -10.20088 -10.20014 -10.19851 -10.19680 -10.19647
 Alpha  occ. eigenvalues --  -10.19482 -10.19442 -10.19368 -10.19268 -10.19229
 Alpha  occ. eigenvalues --  -10.18800 -10.18368 -10.18264  -1.12702  -1.07945
 Alpha  occ. eigenvalues --   -1.05044  -1.03283  -1.03042  -1.00183  -0.99291
 Alpha  occ. eigenvalues --   -0.97598  -0.94547  -0.91244  -0.83304  -0.82738
 Alpha  occ. eigenvalues --   -0.81427  -0.80494  -0.79838  -0.78615  -0.77708
 Alpha  occ. eigenvalues --   -0.77225  -0.76309  -0.74603  -0.73025  -0.71748
 Alpha  occ. eigenvalues --   -0.70814  -0.69409  -0.68724  -0.68369  -0.67803
 Alpha  occ. eigenvalues --   -0.67355  -0.65441  -0.63977  -0.62033  -0.61329
 Alpha  occ. eigenvalues --   -0.60625  -0.59378  -0.58306  -0.57974  -0.57293
 Alpha  occ. eigenvalues --   -0.56458  -0.55609  -0.55218  -0.53495  -0.52297
 Alpha  occ. eigenvalues --   -0.51719  -0.51397  -0.51229  -0.50760  -0.50049
 Alpha  occ. eigenvalues --   -0.49661  -0.49190  -0.49070  -0.48329  -0.47993
 Alpha  occ. eigenvalues --   -0.47103  -0.46662  -0.46273  -0.46069  -0.45485
 Alpha  occ. eigenvalues --   -0.45212  -0.44620  -0.44251  -0.44176  -0.43978
 Alpha  occ. eigenvalues --   -0.43479  -0.42940  -0.42656  -0.42455  -0.42088
 Alpha  occ. eigenvalues --   -0.41580  -0.41302  -0.41056  -0.40938  -0.40501
 Alpha  occ. eigenvalues --   -0.40221  -0.40150  -0.39910  -0.39831  -0.39620
 Alpha  occ. eigenvalues --   -0.39208  -0.39086  -0.38894  -0.38446  -0.38178
 Alpha  occ. eigenvalues --   -0.38083  -0.37594  -0.37355  -0.36946  -0.36482
 Alpha  occ. eigenvalues --   -0.36138  -0.35912  -0.35496  -0.35215  -0.34838
 Alpha  occ. eigenvalues --   -0.34689  -0.34279  -0.34142  -0.33639  -0.32281
 Alpha  occ. eigenvalues --   -0.32238  -0.31947  -0.30499  -0.29911  -0.28964
 Alpha  occ. eigenvalues --   -0.28864  -0.28614  -0.27269  -0.26613  -0.25890
 Alpha  occ. eigenvalues --   -0.25688  -0.24879  -0.23731  -0.23015  -0.21516
 Alpha  occ. eigenvalues --   -0.18283
 Alpha virt. eigenvalues --   -0.10953  -0.05450  -0.03731  -0.02030  -0.01469
 Alpha virt. eigenvalues --   -0.00606   0.01834   0.02947   0.03612   0.03806
 Alpha virt. eigenvalues --    0.04145   0.04514   0.04745   0.05198   0.05624

 Mulliken charges:
               1
     1  O   -0.168428
     2  O   -0.188109
     3  O   -0.239135
     4  O   -0.209741
     5  O   -0.251074
     6  O   -0.300376
     7  N    0.090383
     8  N   -0.081433
     9  N   -0.196004
    10  N   -0.314413
    11  C   -0.052032
    12  C   -0.063898
    13  C   -0.179818
    14  C   -0.030956
    15  C   -0.080522
    16  C    0.046463
    17  C   -0.106195
    18  C   -0.097100
    19  C    0.022968
    20  C   -0.025731
    21  C    0.046139
    22  C    0.005309
    23  C    0.086678
    24  C    0.190756
    25  C   -0.056494
    26  C    0.074115
    27  C    0.208916
    28  C   -0.009529
    29  C   -0.120537
    30  C    0.045906
    31  C   -0.087704
    32  C    0.018679
    33  C   -0.215412
    34  C    0.147198
    35  C   -0.142064
    36  C   -0.140352
    37  C    0.133972
    38  C    0.049129
    39  C    0.187298
    40  C    0.045670
    41  C    0.165973
    42  C    0.055240
    43  C   -0.040795
    44  H    0.181611
    45  H    0.107762
    46  H    0.003119
    47  H    0.017382
    48  H   -0.027769
    49  H   -0.003082
    50  H    0.028594
    51  H   -0.003259
    52  H    0.191476
    53  H    0.018457
    54  H    0.008591
    55  H    0.031308
    56  H    0.166738
    57  H    0.024004
    58  H    0.060114
    59  H    0.086223
    60  H    0.051364
    61  H    0.016804
    62  H    0.021239
    63  H    0.040739
    64  H   -0.043910
    65  H    0.028728
    66  H    0.020192
    67  H    0.002392
    68  H    0.001799
    69  H    0.070284
    70  H   -0.017655
    71  H    0.059535
    72  H    0.015577
    73  H    0.030155
    74  H    0.066088
    75  H    0.022184
    76  H    0.042134
    77  H   -0.018104
    78  H    0.041588
    79  H    0.034868
    80  H    0.203478
    81  H    0.196310
 Sum of Mulliken charges =  -0.00000

 Dipole moment (field-independent basis, Debye):
    X=             -2.3834    Y=             -0.1023    Z=              0.1926  Tot=              2.3934
 Quadrupole moment (field-independent basis, Debye-Ang):
   XX=           -258.2844   YY=           -246.5977   ZZ=           -255.1406
   XY=             12.9610   XZ=              5.4782   YZ=            -11.8811

 Normal termination of Gaussian 16 at Sun Jun 30 12:32:57 2019.
