 Gaussian 16, Revision A.03,
 Gaussian 16:  ES64L-G16RevA.03 25-Dec-2016

 --------------------------
 # td=(NStates=1) B3LYP/SVP
 --------------------------

 --
 TD
 --
 Symbolic Z-matrix:
 Charge =  0 Multiplicity = 1

                         Standard orientation:
 ---------------------------------------------------------------------
 Center     Atomic      Atomic             Coordinates (Angstroms)
 Number     Number       Type             X           Y           Z
 ---------------------------------------------------------------------
      1          8           0        4.042518   -5.045190   -1.764693
      2          8           0       -3.292649   -4.742170   -1.139596
      3          8           0       -6.807966   -1.487717   -1.892673
      4          8           0       -3.873029   -2.991526    0.146063
      5          8           0       -7.318475   -0.653019    0.187524
      6          8           0        3.154944    2.342393    0.457038
      7          7           0        0.246372   -0.518786    0.579955
      8          7           0       -1.545082    1.987741    0.379480
      9          7           0        3.079390   -3.226708   -0.758608
     10          7           0        0.857063    2.832635    0.021729
     11          6           0       -0.762242   -2.377408    1.513523
     12          6           0       -0.983853   -0.994628    0.881058
     13          6           0        0.585317   -2.584595    1.312131
     14          6           0        1.248085   -1.341154    0.829160
     15          6           0       -3.730912    1.758846    0.268803
     16          6           0       -2.494130    1.022937    0.507239
     17          6           0       -2.271395   -0.334128    0.904968
     18          6           0       -3.417299    2.965550   -0.079125
     19          6           0       -1.775192   -3.339231    1.933885
     20          6           0        5.392130   -3.057892   -1.316331
     21          6           0        3.448803   -2.023654   -0.178781
     22          6           0       -1.965647    3.183102   -0.001207
     23          6           0        4.886693   -1.782030   -0.506897
     24          6           0       -5.033694    1.054557    0.299739
     25          6           0        2.621053   -1.079374    0.366671
     26          6           0        1.298319   -3.837271    1.867081
     27          6           0        4.161841   -3.917471   -1.350390
     28          6           0       -2.168523   -4.444785    1.022567
     29          6           0       -5.301266    0.083427   -0.935596
     30          6           0       -4.303475    4.015106   -0.509594
     31          6           0       -1.063254    4.167315   -0.356372
     32          6           0        6.609943   -3.785115   -0.837007
     33          6           0        5.715664   -0.661355   -0.160083
     34          6           0        0.331704    3.960402   -0.261311
     35          6           0        1.239410    5.165164   -0.478957
     36          6           0        2.458015    4.646688   -0.311027
     37          6           0       -3.128354   -3.896211   -0.020500
     38          6           0        5.399116    0.403972    0.724253
     39          6           0       -6.637280   -0.650907   -0.763382
     40          6           0        3.867519    5.288792   -0.212398
     41          6           0        2.311585    3.119589    0.121375
     42          6           0        0.854244    6.478262   -0.871562
     43          6           0        4.430094    5.425596    1.119057
     44          1           0        0.407998    0.356896   -0.038079
     45          1           0       -3.068173   -1.081915    0.838858
     46          1           0       -2.778086   -2.653142    2.072513
     47          1           0       -1.399575   -3.731437    2.815018
     48          1           0        5.474131   -2.620993   -2.402861
     49          1           0       -5.172257    0.540835    1.111452
     50          1           0       -5.754945    1.870125    0.105277
     51          1           0        3.007093   -0.173079    0.392673
     52          1           0       -0.421272    1.952673    0.465293
     53          1           0        1.163088   -4.804873    1.294074
     54          1           0        2.415967   -3.757298    1.953450
     55          1           0        0.985232   -4.023552    2.889084
     56          1           0        2.037249   -3.389240   -1.122571
     57          1           0       -1.296649   -4.880292    0.713815
     58          1           0       -2.731950   -5.077544    1.440501
     59          1           0       -4.679110   -0.748852   -0.972744
     60          1           0       -5.154266    0.650869   -1.847546
     61          1           0       -3.833802    5.236281   -0.351159
     62          1           0       -5.399068    3.911127    0.123856
     63          1           0       -4.522758    4.057406   -1.651531
     64          1           0       -1.660523    5.309061   -0.558826
     65          1           0        7.552106   -3.388192   -1.037696
     66          1           0        6.764014   -4.690391   -1.493934
     67          1           0        6.451016   -4.000105    0.211482
     68          1           0        6.736930   -0.851832   -0.600461
     69          1           0        4.820118    1.126036    0.172267
     70          1           0        6.285897    0.827454    1.101540
     71          1           0        4.654811    0.160179    1.390307
     72          1           0        3.846653    6.226086   -0.781395
     73          1           0        4.356948    4.382046   -0.812270
     74          1           0        0.317953    6.491159   -1.733534
     75          1           0        1.768742    7.064547   -0.987435
     76          1           0        0.238936    7.067833   -0.290768
     77          1           0        3.842837    6.228515    1.700972
     78          1           0        5.511990    5.735274    0.912254
     79          1           0        4.251630    4.560027    1.584657
     80          1           0       -4.082562   -4.397767   -1.584457
     81          1           0       -7.581393   -2.182823   -1.655228
 ---------------------------------------------------------------------

 SCF Done:  E(RB3LYP) =  -1949.05911585     A.U. after   16 cycles

 Excitation energies and oscillator strengths:

 Excited State   1:      Singlet-A      1.7771 eV  697.69 nm  f=0.3455  <S**2>=0.000
     156 ->157         0.70876
     156 <-157        -0.12137
 This state for optimization and/or second-order correction.
 Total Energy, E(TD-HF/TD-DFT) =  -1948.99380960
 Copying the excited state density for this state as the 1-particle RhoCI density.

 The electronic state is 1-A.
 Alpha  occ. eigenvalues --  -19.18502 -19.17541 -19.15679 -19.13750 -19.13014
 Alpha  occ. eigenvalues --  -19.11310 -14.38982 -14.37161 -14.34713 -14.30317
 Alpha  occ. eigenvalues --  -10.33935 -10.31928 -10.29269 -10.28850 -10.24048
 Alpha  occ. eigenvalues --  -10.23725 -10.23101 -10.22891 -10.22681 -10.22472
 Alpha  occ. eigenvalues --  -10.22341 -10.21636 -10.21084 -10.20607 -10.20472
 Alpha  occ. eigenvalues --  -10.20246 -10.20056 -10.19822 -10.19673 -10.19626
 Alpha  occ. eigenvalues --  -10.19597 -10.19592 -10.19472 -10.19459 -10.19322
 Alpha  occ. eigenvalues --  -10.18605 -10.18536 -10.18534 -10.18411 -10.17959
 Alpha  occ. eigenvalues --  -10.17889 -10.17782 -10.16233  -1.11170  -1.08743
 Alpha  occ. eigenvalues --   -1.04571  -1.03873  -1.02217  -0.99922  -0.99461
 Alpha  occ. eigenvalues --   -0.98568  -0.94278  -0.93173  -0.83820  -0.82496
 Alpha  occ. eigenvalues --   -0.81179  -0.80683  -0.80181  -0.78671  -0.78351
 Alpha  occ. eigenvalues --   -0.77481  -0.77076  -0.76649  -0.74519  -0.71654
 Alpha  occ. eigenvalues --   -0.70470  -0.70045  -0.69726  -0.68066  -0.67733
 Alpha  occ. eigenvalues --   -0.66727  -0.65299  -0.64247  -0.61885  -0.61139
 Alpha  occ. eigenvalues --   -0.60635  -0.59210  -0.57516  -0.57472  -0.56718
 Alpha  occ. eigenvalues --   -0.55643  -0.54885  -0.54344  -0.53690  -0.53202
 Alpha  occ. eigenvalues --   -0.52983  -0.52350  -0.51261  -0.51026  -0.50655
 Alpha  occ. eigenvalues --   -0.49888  -0.49015  -0.48452  -0.48257  -0.47844
 Alpha  occ. eigenvalues --   -0.47607  -0.46843  -0.46740  -0.46177  -0.45529
 Alpha  occ. eigenvalues --   -0.45288  -0.45039  -0.44499  -0.44279  -0.43954
 Alpha  occ. eigenvalues --   -0.43722  -0.43354  -0.43021  -0.42740  -0.42314
 Alpha  occ. eigenvalues --   -0.42140  -0.41917  -0.41678  -0.41561  -0.41448
 Alpha  occ. eigenvalues --   -0.41001  -0.40917  -0.40867  -0.40135  -0.39789
 Alpha  occ. eigenvalues --   -0.39582  -0.39481  -0.39213  -0.38754  -0.38688
 Alpha  occ. eigenvalues --   -0.38506  -0.38184  -0.37695  -0.37419  -0.36616
 Alpha  occ. eigenvalues --   -0.36463  -0.35996  -0.35448  -0.35152  -0.35019
 Alpha  occ. eigenvalues --   -0.34942  -0.34533  -0.34092  -0.33828  -0.33086
 Alpha  occ. eigenvalues --   -0.32778  -0.32471  -0.31725  -0.30641  -0.29527
 Alpha  occ. eigenvalues --   -0.29501  -0.28721  -0.26441  -0.25870  -0.25438
 Alpha  occ. eigenvalues --   -0.25380  -0.24974  -0.24502  -0.23752  -0.21346
 Alpha  occ. eigenvalues --   -0.16748
 Alpha virt. eigenvalues --   -0.09635  -0.05164  -0.03744  -0.01669  -0.00774
 Alpha virt. eigenvalues --    0.00815   0.02265   0.02435   0.02978   0.03502
 Alpha virt. eigenvalues --    0.04063   0.04961   0.05179   0.05625   0.05930

 Mulliken charges:
               1
     1  O   -0.187376
     2  O   -0.225082
     3  O   -0.297615
     4  O   -0.195630
     5  O   -0.168181
     6  O   -0.168000
     7  N   -0.019046
     8  N   -0.107530
     9  N   -0.175753
    10  N   -0.307462
    11  C   -0.106103
    12  C   -0.034422
    13  C   -0.165136
    14  C    0.040168
    15  C   -0.084386
    16  C    0.033346
    17  C   -0.025045
    18  C   -0.043117
    19  C    0.045482
    20  C   -0.062880
    21  C    0.132244
    22  C    0.041706
    23  C   -0.130451
    24  C    0.225236
    25  C   -0.030935
    26  C    0.046288
    27  C    0.099581
    28  C    0.246172
    29  C   -0.003065
    30  C   -0.105769
    31  C   -0.181869
    32  C    0.115397
    33  C   -0.154373
    34  C    0.080485
    35  C   -0.098137
    36  C   -0.232951
    37  C    0.113081
    38  C    0.207717
    39  C    0.158873
    40  C    0.011319
    41  C    0.184786
    42  C    0.224656
    43  C    0.089828
    44  H    0.172999
    45  H    0.032645
    46  H    0.041484
    47  H   -0.023250
    48  H    0.058258
    49  H   -0.037803
    50  H   -0.009457
    51  H   -0.108180
    52  H    0.176641
    53  H    0.025128
    54  H    0.022801
    55  H    0.015482
    56  H    0.182191
    57  H   -0.005023
    58  H   -0.030771
    59  H    0.018605
    60  H    0.029356
    61  H    0.034474
    62  H    0.058092
    63  H    0.046893
    64  H    0.019356
    65  H   -0.011561
    66  H    0.022159
    67  H    0.023132
    68  H   -0.004570
    69  H    0.049341
    70  H    0.001893
    71  H   -0.001771
    72  H   -0.002248
    73  H    0.027338
    74  H   -0.013631
    75  H   -0.003049
    76  H   -0.013324
    77  H    0.009896
    78  H    0.032470
    79  H   -0.011576
    80  H    0.178258
    81  H    0.211270
 Sum of Mulliken charges =  -0.00000

 Dipole moment (field-independent basis, Debye):
    X=             -0.6196    Y=              1.0238    Z=             -1.2087  Tot=              1.7009
 Quadrupole moment (field-independent basis, Debye-Ang):
   XX=           -247.0918   YY=           -241.3654   ZZ=           -256.9783
   XY=             19.8547   XZ=              9.0185   YZ=            -13.1495

 Normal termination of Gaussian 16 at Fri Jun 28 23:36:32 2019.
