 Gaussian 16, Revision A.03,
 Gaussian 16:  ES64L-G16RevA.03 25-Dec-2016

 --------------------------
 # td=(NStates=1) B3LYP/SVP
 --------------------------

 --
 TD
 --
 Symbolic Z-matrix:
 Charge =  0 Multiplicity = 1

                         Standard orientation:
 ---------------------------------------------------------------------
 Center     Atomic      Atomic             Coordinates (Angstroms)
 Number     Number       Type             X           Y           Z
 ---------------------------------------------------------------------
      1          8           0        4.017917   -4.908434   -1.922167
      2          8           0       -3.133223   -4.810956   -1.039449
      3          8           0       -7.011415   -1.547634   -1.818340
      4          8           0       -3.848057   -3.141551    0.093099
      5          8           0       -7.616335   -0.308247   -0.006285
      6          8           0        3.171129    2.389937    0.334807
      7          7           0        0.220275   -0.380496    0.791888
      8          7           0       -1.451320    1.839744    0.562652
      9          7           0        3.171211   -3.126859   -0.640168
     10          7           0        0.867808    2.781913    0.084297
     11          6           0       -0.647190   -2.331378    1.439956
     12          6           0       -1.010997   -0.987164    1.055465
     13          6           0        0.717145   -2.641982    1.204715
     14          6           0        1.286972   -1.364209    0.816203
     15          6           0       -3.708037    1.596206    0.178852
     16          6           0       -2.490673    0.853552    0.658203
     17          6           0       -2.292029   -0.401718    0.974528
     18          6           0       -3.466376    2.891442   -0.153589
     19          6           0       -1.631703   -3.276009    2.041222
     20          6           0        5.370037   -2.878146   -1.422767
     21          6           0        3.506943   -1.853981   -0.137053
     22          6           0       -1.972179    2.992795    0.134653
     23          6           0        4.949892   -1.751060   -0.461613
     24          6           0       -5.067193    0.919294    0.241912
     25          6           0        2.619447   -1.116179    0.462682
     26          6           0        1.483864   -3.780759    1.778398
     27          6           0        4.147326   -3.791475   -1.395641
     28          6           0       -2.094248   -4.494217    1.022227
     29          6           0       -5.310519    0.035425   -0.963533
     30          6           0       -4.466472    3.863981   -0.541807
     31          6           0       -1.235161    4.056084   -0.326721
     32          6           0        6.754951   -3.639101   -1.158388
     33          6           0        5.755689   -0.802245    0.037503
     34          6           0        0.159902    4.006727   -0.196196
     35          6           0        1.189805    5.197648   -0.403558
     36          6           0        2.432816    4.559595   -0.277826
     37          6           0       -2.974159   -4.059480    0.001842
     38          6           0        5.532142    0.460887    0.770422
     39          6           0       -6.826084   -0.552796   -0.857605
     40          6           0        3.734472    5.244365   -0.338429
     41          6           0        2.197554    3.173913    0.072847
     42          6           0        0.799069    6.518185   -0.838750
     43          6           0        4.519962    5.510994    0.960604
     44          1           0        0.279789    0.599900    0.456933
     45          1           0       -3.149176   -1.026875    1.250078
     46          1           0       -2.573097   -2.678013    1.957200
     47          1           0       -1.199820   -3.647573    3.017596
     48          1           0        5.355976   -2.350306   -2.495782
     49          1           0       -5.392917    0.455432    1.222586
     50          1           0       -5.812278    1.630145    0.329498
     51          1           0        2.813776    0.005714    0.584630
     52          1           0       -0.477632    1.834312    0.569815
     53          1           0        1.197772   -4.742433    1.113568
     54          1           0        2.602399   -3.608004    2.021352
     55          1           0        1.196442   -4.035596    2.623072
     56          1           0        2.097412   -3.527262   -0.685009
     57          1           0       -1.270728   -5.005167    0.574480
     58          1           0       -2.565237   -5.312366    1.655923
     59          1           0       -4.640548   -0.970287   -1.205019
     60          1           0       -5.351349    0.617457   -2.074779
     61          1           0       -4.322998    4.846340   -0.183106
     62          1           0       -5.438802    3.630695   -0.418390
     63          1           0       -4.273814    3.987506   -1.731460
     64          1           0       -1.606408    4.885501   -0.610360
     65          1           0        7.706222   -3.152454   -1.393815
     66          1           0        6.702465   -4.726075   -1.565244
     67          1           0        6.621358   -3.583188   -0.102819
     68          1           0        6.681328   -0.940515   -0.470384
     69          1           0        5.139853    1.399214    0.118798
     70          1           0        6.429174    0.806620    1.165150
     71          1           0        4.829394    0.518758    1.696303
     72          1           0        3.704594    6.264079   -0.921431
     73          1           0        4.311952    4.713503   -1.000691
     74          1           0        0.318742    6.628237   -1.812713
     75          1           0        1.741743    7.174196   -0.850990
     76          1           0       -0.047098    7.054172   -0.391974
     77          1           0        3.914712    6.055249    1.837987
     78          1           0        5.491485    5.789422    0.630698
     79          1           0        4.733223    4.437684    1.297290
     80          1           0       -3.813613   -4.371350   -1.691692
     81          1           0       -8.020074   -1.796877   -1.513864
 ---------------------------------------------------------------------

 SCF Done:  E(RB3LYP) =  -1949.04582725     A.U. after   18 cycles

 Excitation energies and oscillator strengths:

 Excited State   1:      Singlet-A      1.7102 eV  724.98 nm  f=0.2689  <S**2>=0.000
     156 ->157         0.70771
     156 <-157        -0.10540
 This state for optimization and/or second-order correction.
 Total Energy, E(TD-HF/TD-DFT) =  -1948.98297988
 Copying the excited state density for this state as the 1-particle RhoCI density.

 The electronic state is 1-A.
 Alpha  occ. eigenvalues --  -19.19702 -19.18602 -19.14269 -19.12110 -19.10357
 Alpha  occ. eigenvalues --  -19.09410 -14.37453 -14.36735 -14.36692 -14.29909
 Alpha  occ. eigenvalues --  -10.32825 -10.32444 -10.28820 -10.26173 -10.25110
 Alpha  occ. eigenvalues --  -10.24027 -10.23902 -10.23507 -10.23492 -10.23271
 Alpha  occ. eigenvalues --  -10.22985 -10.22073 -10.21763 -10.21490 -10.21272
 Alpha  occ. eigenvalues --  -10.21118 -10.20990 -10.20763 -10.20470 -10.20192
 Alpha  occ. eigenvalues --  -10.20125 -10.19672 -10.19668 -10.19513 -10.19397
 Alpha  occ. eigenvalues --  -10.19237 -10.19212 -10.18763 -10.18600 -10.18529
 Alpha  occ. eigenvalues --  -10.17995 -10.17729 -10.17634  -1.11656  -1.09209
 Alpha  occ. eigenvalues --   -1.01145  -1.00450  -0.99080  -0.98236  -0.97785
 Alpha  occ. eigenvalues --   -0.95517  -0.93493  -0.89238  -0.83306  -0.82431
 Alpha  occ. eigenvalues --   -0.81895  -0.80446  -0.80010  -0.79530  -0.78160
 Alpha  occ. eigenvalues --   -0.77371  -0.77072  -0.75428  -0.74416  -0.73182
 Alpha  occ. eigenvalues --   -0.72558  -0.69740  -0.69584  -0.68366  -0.67712
 Alpha  occ. eigenvalues --   -0.66718  -0.65124  -0.64018  -0.62362  -0.61426
 Alpha  occ. eigenvalues --   -0.60953  -0.59874  -0.58810  -0.56867  -0.56615
 Alpha  occ. eigenvalues --   -0.56143  -0.55320  -0.54552  -0.53696  -0.52932
 Alpha  occ. eigenvalues --   -0.52316  -0.51619  -0.51346  -0.49754  -0.49588
 Alpha  occ. eigenvalues --   -0.48996  -0.48936  -0.48519  -0.48204  -0.47308
 Alpha  occ. eigenvalues --   -0.46909  -0.46657  -0.46312  -0.45998  -0.45547
 Alpha  occ. eigenvalues --   -0.45210  -0.44857  -0.44603  -0.44137  -0.43741
 Alpha  occ. eigenvalues --   -0.43403  -0.42838  -0.42596  -0.42202  -0.41821
 Alpha  occ. eigenvalues --   -0.41447  -0.41292  -0.41032  -0.40906  -0.40726
 Alpha  occ. eigenvalues --   -0.40557  -0.40329  -0.40290  -0.40079  -0.39698
 Alpha  occ. eigenvalues --   -0.39360  -0.39024  -0.38889  -0.38558  -0.38251
 Alpha  occ. eigenvalues --   -0.38130  -0.37822  -0.37062  -0.36928  -0.36806
 Alpha  occ. eigenvalues --   -0.36086  -0.35797  -0.35612  -0.34445  -0.33981
 Alpha  occ. eigenvalues --   -0.33815  -0.33499  -0.32999  -0.32730  -0.32154
 Alpha  occ. eigenvalues --   -0.31718  -0.31541  -0.31360  -0.29593  -0.29027
 Alpha  occ. eigenvalues --   -0.28270  -0.27761  -0.26270  -0.25838  -0.25659
 Alpha  occ. eigenvalues --   -0.24693  -0.24577  -0.24035  -0.23357  -0.21948
 Alpha  occ. eigenvalues --   -0.17595
 Alpha virt. eigenvalues --   -0.10542  -0.05957  -0.03396  -0.02754  -0.00211
 Alpha virt. eigenvalues --    0.00036   0.01218   0.02211   0.02553   0.03082
 Alpha virt. eigenvalues --    0.03474   0.03983   0.04397   0.05073   0.06561

 Mulliken charges:
               1
     1  O   -0.242670
     2  O   -0.160957
     3  O   -0.263450
     4  O   -0.318208
     5  O   -0.206082
     6  O   -0.281166
     7  N   -0.137001
     8  N   -0.050579
     9  N   -0.213990
    10  N   -0.358591
    11  C   -0.135223
    12  C    0.078490
    13  C   -0.179815
    14  C    0.077727
    15  C   -0.062525
    16  C    0.146593
    17  C   -0.063985
    18  C   -0.126692
    19  C    0.073651
    20  C   -0.062373
    21  C    0.192165
    22  C    0.093994
    23  C   -0.071140
    24  C    0.131175
    25  C   -0.156564
    26  C    0.155006
    27  C    0.142583
    28  C    0.032175
    29  C   -0.128429
    30  C    0.150164
    31  C    0.008238
    32  C    0.028817
    33  C   -0.090350
    34  C    0.068141
    35  C   -0.038088
    36  C   -0.125530
    37  C    0.118813
    38  C    0.043793
    39  C    0.165470
    40  C    0.057579
    41  C    0.186774
    42  C    0.065641
    43  C    0.005537
    44  H    0.131465
    45  H    0.021086
    46  H    0.030941
    47  H    0.033000
    48  H    0.066547
    49  H    0.032505
    50  H   -0.033458
    51  H    0.047368
    52  H    0.093758
    53  H    0.022381
    54  H    0.051831
    55  H   -0.072687
    56  H    0.181311
    57  H    0.011761
    58  H    0.069217
    59  H    0.095908
    60  H    0.055927
    61  H    0.009175
    62  H   -0.012195
    63  H    0.033377
    64  H   -0.136378
    65  H    0.029039
    66  H    0.062438
    67  H    0.011368
    68  H   -0.029814
    69  H    0.088476
    70  H   -0.020032
    71  H    0.039579
    72  H   -0.008869
    73  H   -0.021175
    74  H    0.013901
    75  H    0.034161
    76  H    0.006838
    77  H    0.044742
    78  H    0.001263
    79  H    0.025203
    80  H    0.231082
    81  H    0.209839
 Sum of Mulliken charges =  -0.00000

 Dipole moment (field-independent basis, Debye):
    X=             -3.7973    Y=              2.4007    Z=             -0.2890  Tot=              4.5018
 Quadrupole moment (field-independent basis, Debye-Ang):
   XX=           -248.3678   YY=           -237.7744   ZZ=           -254.3656
   XY=              9.9722   XZ=             11.3227   YZ=            -18.3351

 Normal termination of Gaussian 16 at Sun Jun 30 10:59:41 2019.
