 Gaussian 16, Revision A.03,
 Gaussian 16:  ES64L-G16RevA.03 25-Dec-2016

 --------------------------
 # td=(NStates=1) B3LYP/SVP
 --------------------------

 --
 TD
 --
 Symbolic Z-matrix:
 Charge =  0 Multiplicity = 1

                         Standard orientation:
 ---------------------------------------------------------------------
 Center     Atomic      Atomic             Coordinates (Angstroms)
 Number     Number       Type             X           Y           Z
 ---------------------------------------------------------------------
      1          8           0        4.522127   -4.823591   -1.558022
      2          8           0       -2.861997   -5.005975   -1.023483
      3          8           0       -6.973075   -1.543402   -2.021589
      4          8           0       -3.704847   -3.154380    0.074377
      5          8           0       -7.635018   -0.660070   -0.063892
      6          8           0        2.994016    2.444445    0.481318
      7          7           0        0.246379   -0.525668    0.509186
      8          7           0       -1.645732    1.758108    0.331542
      9          7           0        3.426145   -3.048828   -0.691454
     10          7           0        0.768479    2.902004    0.084537
     11          6           0       -0.585998   -2.465709    1.294913
     12          6           0       -0.970930   -1.140673    0.847670
     13          6           0        0.808368   -2.572649    1.211476
     14          6           0        1.341022   -1.385037    0.643570
     15          6           0       -3.845695    1.382043    0.297661
     16          6           0       -2.474969    0.778109    0.442591
     17          6           0       -2.256834   -0.552296    0.752659
     18          6           0       -3.614351    2.726252   -0.059257
     19          6           0       -1.622963   -3.412774    2.074188
     20          6           0        5.703605   -2.642875   -1.398665
     21          6           0        3.624676   -1.745460   -0.263650
     22          6           0       -2.263140    3.029787    0.118062
     23          6           0        5.084333   -1.428599   -0.594775
     24          6           0       -5.115812    0.688140    0.347768
     25          6           0        2.699525   -0.942501    0.324631
     26          6           0        1.553177   -3.799890    1.889685
     27          6           0        4.572967   -3.669736   -1.298995
     28          6           0       -2.090418   -4.605911    1.215571
     29          6           0       -5.413331   -0.182786   -0.873933
     30          6           0       -4.684589    3.805594   -0.276162
     31          6           0       -1.355360    4.069429   -0.259568
     32          6           0        7.043481   -3.243185   -1.023026
     33          6           0        5.816499   -0.356253   -0.232988
     34          6           0        0.061013    4.011337   -0.310792
     35          6           0        0.922978    5.126789   -0.523436
     36          6           0        2.218438    4.693676   -0.273966
     37          6           0       -2.974963   -4.127390    0.048432
     38          6           0        5.486061    0.717513    0.758242
     39          6           0       -6.824087   -0.725127   -0.968426
     40          6           0        3.580135    5.322082   -0.294711
     41          6           0        1.993200    3.238639    0.140789
     42          6           0        0.491985    6.638259   -0.662193
     43          6           0        4.161148    5.457864    1.094303
     44          1           0        0.225540    0.176754    0.009975
     45          1           0       -3.230645   -1.205507    0.713587
     46          1           0       -2.317187   -2.700518    2.503151
     47          1           0       -0.981801   -3.734162    2.912829
     48          1           0        5.682598   -2.369247   -2.530399
     49          1           0       -5.193278   -0.022468    1.207758
     50          1           0       -5.827761    1.458399    0.564190
     51          1           0        2.861891    0.139227    0.285759
     52          1           0       -0.765786    1.764846    0.698296
     53          1           0        1.598823   -4.740223    1.222330
     54          1           0        2.747147   -3.633184    2.258748
     55          1           0        1.187701   -4.108025    2.852427
     56          1           0        2.526160   -3.532103   -0.442079
     57          1           0       -1.260536   -5.344126    0.765916
     58          1           0       -2.798838   -5.202546    1.819057
     59          1           0       -4.647475   -1.018029   -1.298959
     60          1           0       -5.196909    0.363196   -1.917708
     61          1           0       -4.425526    4.543963    0.385381
     62          1           0       -5.536026    3.326786   -0.264223
     63          1           0       -4.456111    4.188932   -1.228903
     64          1           0       -1.755357    5.017504   -0.387954
     65          1           0        7.882395   -2.493075   -1.326437
     66          1           0        7.150477   -4.143053   -1.505104
     67          1           0        7.083726   -3.328409    0.117762
     68          1           0        6.824719   -0.396798   -0.612636
     69          1           0        5.139737    1.668869    0.120083
     70          1           0        6.448468    1.139197    1.101986
     71          1           0        4.524965    0.412036    1.455181
     72          1           0        3.458704    6.303773   -0.910179
     73          1           0        4.340796    4.630384   -0.856646
     74          1           0       -0.144756    6.854858   -1.653340
     75          1           0        1.472229    7.168882   -0.680494
     76          1           0       -0.365695    7.188910   -0.037949
     77          1           0        3.579056    6.379781    1.758794
     78          1           0        5.083939    5.933791    1.076613
     79          1           0        4.066832    4.403247    1.568247
     80          1           0       -3.707099   -4.945968   -1.522066
     81          1           0       -7.986692   -1.921388   -2.095347
 ---------------------------------------------------------------------

 SCF Done:  E(RB3LYP) =  -1949.08896413     A.U. after   25 cycles

 Excitation energies and oscillator strengths:

 Excited State   1:      Singlet-A      1.6410 eV  755.56 nm  f=0.2981  <S**2>=0.000
     156 ->157         0.70413
     156 <-157        -0.14747
 This state for optimization and/or second-order correction.
 Total Energy, E(TD-HF/TD-DFT) =  -1949.02866013
 Copying the excited state density for this state as the 1-particle RhoCI density.

 The electronic state is 1-A.
 Alpha  occ. eigenvalues --  -19.19711 -19.18982 -19.15527 -19.12402 -19.11852
 Alpha  occ. eigenvalues --  -19.07164 -14.36629 -14.36537 -14.35565 -14.27000
 Alpha  occ. eigenvalues --  -10.34426 -10.32167 -10.29674 -10.24722 -10.24485
 Alpha  occ. eigenvalues --  -10.24025 -10.23680 -10.23623 -10.23499 -10.23003
 Alpha  occ. eigenvalues --  -10.22578 -10.22198 -10.22032 -10.21907 -10.21892
 Alpha  occ. eigenvalues --  -10.21742 -10.20824 -10.20790 -10.20788 -10.20759
 Alpha  occ. eigenvalues --  -10.20661 -10.20220 -10.20108 -10.19658 -10.19460
 Alpha  occ. eigenvalues --  -10.19384 -10.19169 -10.18993 -10.18708 -10.18437
 Alpha  occ. eigenvalues --  -10.18249 -10.18031 -10.17991  -1.10069  -1.08732
 Alpha  occ. eigenvalues --   -1.05434  -1.02432  -0.99745  -0.99684  -0.98261
 Alpha  occ. eigenvalues --   -0.96460  -0.94016  -0.89745  -0.83010  -0.81990
 Alpha  occ. eigenvalues --   -0.81512  -0.80780  -0.79115  -0.78273  -0.77841
 Alpha  occ. eigenvalues --   -0.77168  -0.76357  -0.74660  -0.73439  -0.72550
 Alpha  occ. eigenvalues --   -0.71128  -0.69540  -0.69470  -0.68649  -0.67840
 Alpha  occ. eigenvalues --   -0.66492  -0.65663  -0.63949  -0.61833  -0.60918
 Alpha  occ. eigenvalues --   -0.60203  -0.59569  -0.58466  -0.58236  -0.57298
 Alpha  occ. eigenvalues --   -0.56215  -0.55880  -0.54572  -0.53769  -0.51920
 Alpha  occ. eigenvalues --   -0.51823  -0.51553  -0.50740  -0.50461  -0.49967
 Alpha  occ. eigenvalues --   -0.49421  -0.48944  -0.48373  -0.47754  -0.47659
 Alpha  occ. eigenvalues --   -0.46928  -0.46618  -0.46378  -0.45593  -0.45010
 Alpha  occ. eigenvalues --   -0.44550  -0.44125  -0.43770  -0.43646  -0.43418
 Alpha  occ. eigenvalues --   -0.43133  -0.42998  -0.42338  -0.42241  -0.42068
 Alpha  occ. eigenvalues --   -0.41776  -0.41625  -0.41498  -0.41228  -0.40695
 Alpha  occ. eigenvalues --   -0.40352  -0.40318  -0.39896  -0.39726  -0.39266
 Alpha  occ. eigenvalues --   -0.39087  -0.38934  -0.38373  -0.38059  -0.37685
 Alpha  occ. eigenvalues --   -0.37478  -0.37099  -0.36618  -0.36349  -0.36180
 Alpha  occ. eigenvalues --   -0.35863  -0.35440  -0.35393  -0.35140  -0.34731
 Alpha  occ. eigenvalues --   -0.34370  -0.34298  -0.33282  -0.32808  -0.32576
 Alpha  occ. eigenvalues --   -0.32120  -0.31554  -0.30545  -0.30283  -0.28813
 Alpha  occ. eigenvalues --   -0.28125  -0.26888  -0.26349  -0.26277  -0.25507
 Alpha  occ. eigenvalues --   -0.24915  -0.24354  -0.22273  -0.21940  -0.21169
 Alpha  occ. eigenvalues --   -0.17563
 Alpha virt. eigenvalues --   -0.11187  -0.05467  -0.03401  -0.02473  -0.00505
 Alpha virt. eigenvalues --   -0.00059   0.01265   0.01922   0.02891   0.03763
 Alpha virt. eigenvalues --    0.04063   0.04688   0.04820   0.05897   0.06298

 Mulliken charges:
               1
     1  O   -0.164414
     2  O   -0.216077
     3  O   -0.244022
     4  O   -0.214251
     5  O   -0.235029
     6  O   -0.343597
     7  N    0.011005
     8  N    0.010941
     9  N   -0.162033
    10  N   -0.179918
    11  C   -0.138441
    12  C    0.036749
    13  C   -0.123724
    14  C    0.056057
    15  C   -0.122915
    16  C    0.007022
    17  C   -0.084827
    18  C   -0.205191
    19  C    0.118856
    20  C   -0.069895
    21  C    0.142551
    22  C    0.085417
    23  C   -0.060031
    24  C    0.178916
    25  C   -0.106873
    26  C   -0.035287
    27  C    0.111348
    28  C    0.006657
    29  C   -0.112725
    30  C    0.286013
    31  C   -0.060206
    32  C    0.064137
    33  C   -0.132530
    34  C    0.074166
    35  C   -0.079005
    36  C   -0.137319
    37  C    0.151751
    38  C    0.035373
    39  C    0.163614
    40  C    0.031535
    41  C    0.096494
    42  C    0.004441
    43  C   -0.029854
    44  H    0.035763
    45  H    0.074523
    46  H    0.024353
    47  H    0.006218
    48  H    0.056169
    49  H    0.024926
    50  H    0.007874
    51  H    0.032732
    52  H    0.097505
    53  H    0.045486
    54  H    0.048878
    55  H    0.024089
    56  H    0.142602
    57  H    0.070850
    58  H    0.049512
    59  H    0.075381
    60  H    0.031488
    61  H    0.007722
    62  H   -0.037857
    63  H   -0.004732
    64  H   -0.064324
    65  H    0.030655
    66  H    0.020429
    67  H    0.030563
    68  H   -0.023790
    69  H    0.071106
    70  H    0.005209
    71  H    0.083648
    72  H    0.008076
    73  H    0.031725
    74  H    0.013975
    75  H    0.030504
    76  H    0.039862
    77  H    0.000741
    78  H   -0.005213
    79  H    0.072625
    80  H    0.191855
    81  H    0.233996
 Sum of Mulliken charges =  -0.00000

 Dipole moment (field-independent basis, Debye):
    X=             -3.9312    Y=             -2.3089    Z=             -1.1779  Tot=              4.7087
 Quadrupole moment (field-independent basis, Debye-Ang):
   XX=           -239.0693   YY=           -240.2632   ZZ=           -252.2662
   XY=             13.1531   XZ=             12.1567   YZ=            -10.9769

 Normal termination of Gaussian 16 at Sun Jun 30 18:58:57 2019.
