 Gaussian 16, Revision A.03,
 Gaussian 16:  ES64L-G16RevA.03 25-Dec-2016

 --------------------------
 # td=(NStates=1) B3LYP/SVP
 --------------------------

 --
 TD
 --
 Symbolic Z-matrix:
 Charge =  0 Multiplicity = 1

                         Standard orientation:
 ---------------------------------------------------------------------
 Center     Atomic      Atomic             Coordinates (Angstroms)
 Number     Number       Type             X           Y           Z
 ---------------------------------------------------------------------
      1          8           0        4.059054   -4.888012   -1.967865
      2          8           0       -3.088178   -4.645845   -1.150912
      3          8           0       -6.929422   -1.443869   -1.898131
      4          8           0       -4.037116   -3.099267    0.074209
      5          8           0       -7.609478   -0.161573   -0.084013
      6          8           0        3.067363    2.282949    0.494763
      7          7           0        0.219235   -0.602485    0.519147
      8          7           0       -1.485857    1.833994    0.408632
      9          7           0        3.220211   -3.179967   -0.649326
     10          7           0        0.848273    2.862044    0.246840
     11          6           0       -0.664441   -2.416795    1.413556
     12          6           0       -0.982588   -1.100372    0.892048
     13          6           0        0.700209   -2.723871    1.208618
     14          6           0        1.191901   -1.457787    0.648722
     15          6           0       -3.749063    1.620941    0.322671
     16          6           0       -2.463860    0.898651    0.607918
     17          6           0       -2.255788   -0.412306    0.909571
     18          6           0       -3.460218    2.815576   -0.080117
     19          6           0       -1.769320   -3.379239    1.998289
     20          6           0        5.434548   -2.841667   -1.328565
     21          6           0        3.522061   -1.867651   -0.227638
     22          6           0       -2.028546    2.996260   -0.004647
     23          6           0        4.952640   -1.679517   -0.573810
     24          6           0       -5.064974    0.922417    0.425387
     25          6           0        2.525999   -1.125436    0.344937
     26          6           0        1.447579   -3.811318    1.881944
     27          6           0        4.207431   -3.778099   -1.427114
     28          6           0       -2.186692   -4.376802    0.964689
     29          6           0       -5.261434   -0.086108   -0.791980
     30          6           0       -4.245178    4.018522   -0.475805
     31          6           0       -1.151047    4.177023   -0.286415
     32          6           0        6.733896   -3.535581   -0.732863
     33          6           0        5.803380   -0.676836   -0.156263
     34          6           0        0.216445    3.962512   -0.187409
     35          6           0        1.277206    5.086492   -0.440836
     36          6           0        2.475921    4.521133   -0.277849
     37          6           0       -3.182523   -3.948413   -0.057019
     38          6           0        5.454569    0.573419    0.596411
     39          6           0       -6.710321   -0.579536   -0.825997
     40          6           0        3.807107    5.122940   -0.325887
     41          6           0        2.189357    3.079103    0.257553
     42          6           0        0.834410    6.429843   -0.897286
     43          6           0        4.359210    5.490401    1.020631
     44          1           0        0.324128    0.622947    0.449468
     45          1           0       -3.184106   -1.004223    1.113808
     46          1           0       -2.716367   -2.715534    2.288436
     47          1           0       -1.440193   -3.886034    3.054818
     48          1           0        5.621898   -2.605247   -2.416316
     49          1           0       -5.116664    0.150408    1.235398
     50          1           0       -5.898983    1.708020    0.468708
     51          1           0        2.811073   -0.174138    0.694560
     52          1           0       -0.432209    1.761664    0.538203
     53          1           0        1.518227   -4.663940    1.342007
     54          1           0        2.452176   -3.717329    2.287504
     55          1           0        1.056174   -4.176238    2.776065
     56          1           0        2.156515   -3.494045   -0.623741
     57          1           0       -1.172677   -4.978849    0.701071
     58          1           0       -2.665140   -5.134456    1.568704
     59          1           0       -4.426265   -0.777998   -0.757932
     60          1           0       -4.924457    0.476735   -1.855822
     61          1           0       -4.173606    4.833637    0.174213
     62          1           0       -5.395601    3.947555   -0.529079
     63          1           0       -3.753396    4.301455   -1.457814
     64          1           0       -1.829624    5.057262   -0.483491
     65          1           0        7.409778   -2.684750   -0.552391
     66          1           0        7.028630   -4.482405   -1.123720
     67          1           0        6.287814   -3.921535    0.134334
     68          1           0        6.875337   -0.884863   -0.255058
     69          1           0        4.953133    1.671580    0.104422
     70          1           0        6.496593    0.860040    1.018865
     71          1           0        4.560156    0.283634    1.344591
     72          1           0        3.751201    5.911544   -1.016982
     73          1           0        4.646401    4.402486   -0.859476
     74          1           0        0.244731    6.429115   -1.926320
     75          1           0        1.750901    6.981987   -1.087294
     76          1           0        0.174255    7.027682   -0.323471
     77          1           0        3.814425    6.420874    1.233712
     78          1           0        5.433038    5.818346    0.911010
     79          1           0        4.388463    4.618572    1.622177
     80          1           0       -3.808089   -4.621737   -1.780617
     81          1           0       -7.875768   -1.619770   -1.806679
 ---------------------------------------------------------------------

 SCF Done:  E(RB3LYP) =  -1949.11119413     A.U. after   16 cycles

 Excitation energies and oscillator strengths:

 Excited State   1:      Singlet-A      1.9168 eV  646.82 nm  f=0.2851  <S**2>=0.000
     156 ->157         0.70405
 This state for optimization and/or second-order correction.
 Total Energy, E(TD-HF/TD-DFT) =  -1949.04075163
 Copying the excited state density for this state as the 1-particle RhoCI density.

 The electronic state is 1-A.
 Alpha  occ. eigenvalues --  -19.19418 -19.18613 -19.13891 -19.13567 -19.10574
 Alpha  occ. eigenvalues --  -19.10035 -14.39082 -14.37010 -14.36474 -14.30042
 Alpha  occ. eigenvalues --  -10.33706 -10.33329 -10.28592 -10.26874 -10.24829
 Alpha  occ. eigenvalues --  -10.24063 -10.23699 -10.23663 -10.23263 -10.23049
 Alpha  occ. eigenvalues --  -10.22512 -10.22167 -10.22084 -10.22024 -10.21109
 Alpha  occ. eigenvalues --  -10.20605 -10.20603 -10.20510 -10.20465 -10.20119
 Alpha  occ. eigenvalues --  -10.20029 -10.19994 -10.19882 -10.19879 -10.19798
 Alpha  occ. eigenvalues --  -10.19613 -10.19584 -10.18829 -10.18480 -10.18408
 Alpha  occ. eigenvalues --  -10.18136 -10.17697 -10.17622  -1.12420  -1.08595
 Alpha  occ. eigenvalues --   -1.02474  -1.01928  -1.01074  -1.00280  -1.00241
 Alpha  occ. eigenvalues --   -0.99249  -0.93589  -0.92439  -0.83258  -0.82020
 Alpha  occ. eigenvalues --   -0.81691  -0.81098  -0.80573  -0.79102  -0.78069
 Alpha  occ. eigenvalues --   -0.76972  -0.76298  -0.75274  -0.73966  -0.72399
 Alpha  occ. eigenvalues --   -0.72080  -0.69806  -0.69299  -0.68959  -0.68486
 Alpha  occ. eigenvalues --   -0.67743  -0.65328  -0.63648  -0.62112  -0.61870
 Alpha  occ. eigenvalues --   -0.61459  -0.59517  -0.59151  -0.58232  -0.57498
 Alpha  occ. eigenvalues --   -0.56087  -0.55434  -0.54535  -0.53543  -0.53331
 Alpha  occ. eigenvalues --   -0.52218  -0.51950  -0.51472  -0.50552  -0.49670
 Alpha  occ. eigenvalues --   -0.49458  -0.49042  -0.48621  -0.48395  -0.47614
 Alpha  occ. eigenvalues --   -0.47356  -0.46235  -0.46131  -0.45930  -0.45762
 Alpha  occ. eigenvalues --   -0.45414  -0.44792  -0.44575  -0.43998  -0.43892
 Alpha  occ. eigenvalues --   -0.43489  -0.43081  -0.42734  -0.42414  -0.42372
 Alpha  occ. eigenvalues --   -0.42126  -0.41668  -0.41591  -0.41310  -0.41103
 Alpha  occ. eigenvalues --   -0.40990  -0.40661  -0.40077  -0.39819  -0.39766
 Alpha  occ. eigenvalues --   -0.39342  -0.39291  -0.38898  -0.38637  -0.37900
 Alpha  occ. eigenvalues --   -0.37592  -0.37317  -0.37297  -0.36223  -0.36056
 Alpha  occ. eigenvalues --   -0.35952  -0.35576  -0.35041  -0.34460  -0.34289
 Alpha  occ. eigenvalues --   -0.34078  -0.33864  -0.33463  -0.33422  -0.32929
 Alpha  occ. eigenvalues --   -0.32690  -0.32455  -0.32224  -0.30098  -0.29595
 Alpha  occ. eigenvalues --   -0.29196  -0.27973  -0.26886  -0.25744  -0.25342
 Alpha  occ. eigenvalues --   -0.25077  -0.24785  -0.23974  -0.23600  -0.21886
 Alpha  occ. eigenvalues --   -0.18128
 Alpha virt. eigenvalues --   -0.10063  -0.05128  -0.03974  -0.02053  -0.01046
 Alpha virt. eigenvalues --    0.00042   0.01246   0.02351   0.03430   0.03927
 Alpha virt. eigenvalues --    0.04244   0.04289   0.04888   0.05029   0.05994

 Mulliken charges:
               1
     1  O   -0.242676
     2  O   -0.133921
     3  O   -0.201174
     4  O   -0.229968
     5  O   -0.246934
     6  O   -0.212905
     7  N   -0.075936
     8  N   -0.078621
     9  N   -0.188172
    10  N   -0.303026
    11  C   -0.102760
    12  C    0.022487
    13  C   -0.142643
    14  C    0.053345
    15  C   -0.068467
    16  C    0.045931
    17  C   -0.048875
    18  C   -0.093788
    19  C   -0.028787
    20  C   -0.065947
    21  C    0.104474
    22  C   -0.026211
    23  C    0.008543
    24  C    0.085221
    25  C   -0.109373
    26  C    0.168760
    27  C    0.121813
    28  C    0.030618
    29  C   -0.086540
    30  C    0.075119
    31  C   -0.121287
    32  C    0.093490
    33  C   -0.121644
    34  C    0.157242
    35  C   -0.076569
    36  C   -0.184294
    37  C    0.130491
    38  C   -0.078306
    39  C    0.219168
    40  C    0.016016
    41  C    0.161055
    42  C    0.101949
    43  C    0.059978
    44  H    0.217377
    45  H    0.024024
    46  H    0.030852
    47  H    0.037396
    48  H    0.047130
    49  H    0.028183
    50  H    0.036490
    51  H   -0.020966
    52  H    0.147125
    53  H   -0.027261
    54  H    0.011802
    55  H   -0.024617
    56  H    0.170464
    57  H    0.053865
    58  H    0.032506
    59  H    0.045501
    60  H    0.054116
    61  H    0.017252
    62  H    0.025964
    63  H    0.036067
    64  H   -0.006644
    65  H    0.034767
    66  H    0.020255
    67  H   -0.005217
    68  H   -0.004824
    69  H    0.122661
    70  H    0.017362
    71  H    0.059148
    72  H   -0.020456
    73  H    0.014580
    74  H    0.026638
    75  H    0.001205
    76  H    0.010958
    77  H    0.009232
    78  H    0.004354
    79  H    0.026190
    80  H    0.187425
    81  H    0.172218
 Sum of Mulliken charges =  -0.00000

 Dipole moment (field-independent basis, Debye):
    X=             -3.1691    Y=              0.9563    Z=              0.2111  Tot=              3.3170
 Quadrupole moment (field-independent basis, Debye-Ang):
   XX=           -253.0999   YY=           -235.6925   ZZ=           -256.8745
   XY=             17.7086   XZ=             15.8879   YZ=            -16.4478

 Normal termination of Gaussian 16 at Wed Jul  3 06:59:44 2019.
