 Gaussian 16, Revision A.03,
 Gaussian 16:  ES64L-G16RevA.03 25-Dec-2016

 --------------------------
 # td=(NStates=1) B3LYP/SVP
 --------------------------

 --
 TD
 --
 Symbolic Z-matrix:
 Charge =  0 Multiplicity = 1

                         Standard orientation:
 ---------------------------------------------------------------------
 Center     Atomic      Atomic             Coordinates (Angstroms)
 Number     Number       Type             X           Y           Z
 ---------------------------------------------------------------------
      1          8           0        4.265898   -4.982411   -1.759088
      2          8           0       -3.160063   -4.813644   -1.041189
      3          8           0       -6.790999   -1.554102   -1.952400
      4          8           0       -3.887125   -3.144720    0.265647
      5          8           0       -7.642926   -0.582159   -0.007737
      6          8           0        3.105996    2.382213    0.379890
      7          7           0        0.242504   -0.482575    0.706105
      8          7           0       -1.568798    1.874768    0.251410
      9          7           0        3.263720   -3.241061   -0.578565
     10          7           0        0.894445    2.892340    0.090968
     11          6           0       -0.663405   -2.361959    1.477831
     12          6           0       -0.946966   -1.003115    0.995771
     13          6           0        0.717949   -2.581285    1.296294
     14          6           0        1.324667   -1.348153    0.795055
     15          6           0       -3.797621    1.568578    0.182706
     16          6           0       -2.534655    0.925422    0.474648
     17          6           0       -2.256031   -0.355953    0.926832
     18          6           0       -3.506290    2.922548   -0.114820
     19          6           0       -1.628056   -3.259251    1.982167
     20          6           0        5.469586   -2.823923   -1.428467
     21          6           0        3.531469   -1.871676   -0.181597
     22          6           0       -2.083386    3.104225   -0.162786
     23          6           0        4.951445   -1.659084   -0.606533
     24          6           0       -5.204605    0.896179    0.374553
     25          6           0        2.637580   -1.033082    0.363967
     26          6           0        1.457094   -3.787317    1.880112
     27          6           0        4.253032   -3.866378   -1.279199
     28          6           0       -2.183301   -4.485514    1.118433
     29          6           0       -5.428143   -0.004896   -0.980868
     30          6           0       -4.526332    3.971035   -0.636323
     31          6           0       -1.196408    4.148162   -0.365544
     32          6           0        6.818857   -3.585903   -1.178292
     33          6           0        5.708297   -0.677260   -0.207988
     34          6           0        0.126396    4.013195   -0.193605
     35          6           0        1.180165    5.144719   -0.458739
     36          6           0        2.410942    4.548311   -0.180963
     37          6           0       -3.151175   -4.076606    0.059046
     38          6           0        5.549176    0.522938    0.613540
     39          6           0       -6.755333   -0.701245   -0.846949
     40          6           0        3.747952    5.250866   -0.181155
     41          6           0        2.188248    3.188776    0.181344
     42          6           0        0.900976    6.536980   -0.810087
     43          6           0        4.298819    5.431132    1.299138
     44          1           0        0.574077    0.467966    0.461283
     45          1           0       -3.002657   -1.046790    1.108834
     46          1           0       -2.483331   -2.659990    2.442008
     47          1           0       -1.193306   -3.585015    2.971189
     48          1           0        5.405050   -2.486469   -2.517968
     49          1           0       -5.476483    0.213231    1.334128
     50          1           0       -5.970592    1.624911    0.407890
     51          1           0        2.873391    0.076860    0.295448
     52          1           0       -0.546387    1.786299    0.345731
     53          1           0        1.151735   -4.831350    1.445127
     54          1           0        2.615256   -3.635038    1.985641
     55          1           0        0.946202   -3.868301    2.915135
     56          1           0        2.259296   -3.518955   -0.501659
     57          1           0       -1.174164   -4.950908    0.786029
     58          1           0       -2.675546   -5.262123    1.732669
     59          1           0       -4.665092   -0.775117   -1.033873
     60          1           0       -5.329539    0.400100   -1.922080
     61          1           0       -4.358081    4.966491   -0.206770
     62          1           0       -5.744837    3.721912   -0.224229
     63          1           0       -4.570339    4.284663   -1.868955
     64          1           0       -1.700267    5.083489   -0.524844
     65          1           0        7.681446   -2.791813   -1.200216
     66          1           0        6.946530   -4.398837   -1.942673
     67          1           0        6.876783   -3.959169   -0.237605
     68          1           0        6.685324   -0.692180   -0.703494
     69          1           0        5.239919    1.267678   -0.233206
     70          1           0        6.444830    0.968333    1.161114
     71          1           0        4.890381    0.463545    1.491469
     72          1           0        3.867402    6.098808   -0.811031
     73          1           0        4.327340    4.610935   -0.581496
     74          1           0        0.471543    6.449735   -1.758281
     75          1           0        1.897394    7.096683   -1.198545
     76          1           0        0.205909    7.288274   -0.214964
     77          1           0        3.615389    5.914597    1.877027
     78          1           0        5.227536    6.115558    1.301664
     79          1           0        4.555837    4.371462    1.671655
     80          1           0       -3.742092   -4.644355   -1.627709
     81          1           0       -7.540858   -2.053647   -2.039984
 ---------------------------------------------------------------------

 SCF Done:  E(RB3LYP) =  -1949.12022599     A.U. after   23 cycles

 Excitation energies and oscillator strengths:

 Excited State   1:      Singlet-A      1.7940 eV  691.10 nm  f=0.3705  <S**2>=0.000
     156 ->157         0.70834
     156 <-157        -0.12698
 This state for optimization and/or second-order correction.
 Total Energy, E(TD-HF/TD-DFT) =  -1949.05429695
 Copying the excited state density for this state as the 1-particle RhoCI density.

 The electronic state is 1-A.
 Alpha  occ. eigenvalues --  -19.19581 -19.17272 -19.14158 -19.13827 -19.10722
 Alpha  occ. eigenvalues --  -19.08681 -14.38556 -14.37470 -14.35951 -14.28211
 Alpha  occ. eigenvalues --  -10.34162 -10.32830 -10.29090 -10.24888 -10.24582
 Alpha  occ. eigenvalues --  -10.24517 -10.24342 -10.24255 -10.23756 -10.23149
 Alpha  occ. eigenvalues --  -10.22981 -10.22923 -10.22054 -10.22022 -10.21955
 Alpha  occ. eigenvalues --  -10.21908 -10.21433 -10.21349 -10.21024 -10.20632
 Alpha  occ. eigenvalues --  -10.20344 -10.20298 -10.19784 -10.19521 -10.19480
 Alpha  occ. eigenvalues --  -10.19449 -10.19112 -10.19011 -10.18771 -10.18531
 Alpha  occ. eigenvalues --  -10.17329 -10.17318 -10.16260  -1.13822  -1.08419
 Alpha  occ. eigenvalues --   -1.03881  -1.02828  -1.00909  -0.99898  -0.99444
 Alpha  occ. eigenvalues --   -0.97713  -0.94413  -0.90550  -0.83075  -0.81956
 Alpha  occ. eigenvalues --   -0.81710  -0.80790  -0.79698  -0.78663  -0.77892
 Alpha  occ. eigenvalues --   -0.77339  -0.76810  -0.75070  -0.74338  -0.73204
 Alpha  occ. eigenvalues --   -0.71456  -0.70037  -0.69410  -0.68352  -0.68007
 Alpha  occ. eigenvalues --   -0.67333  -0.66001  -0.65715  -0.64323  -0.62261
 Alpha  occ. eigenvalues --   -0.61632  -0.60419  -0.59835  -0.58700  -0.56980
 Alpha  occ. eigenvalues --   -0.56333  -0.55754  -0.55712  -0.53613  -0.52720
 Alpha  occ. eigenvalues --   -0.52300  -0.51851  -0.51382  -0.50294  -0.50188
 Alpha  occ. eigenvalues --   -0.49846  -0.49275  -0.48606  -0.47654  -0.47272
 Alpha  occ. eigenvalues --   -0.47159  -0.46672  -0.45889  -0.45834  -0.45323
 Alpha  occ. eigenvalues --   -0.44508  -0.44389  -0.44187  -0.43666  -0.43507
 Alpha  occ. eigenvalues --   -0.43072  -0.42993  -0.42321  -0.42152  -0.41748
 Alpha  occ. eigenvalues --   -0.41580  -0.41327  -0.41047  -0.40945  -0.40419
 Alpha  occ. eigenvalues --   -0.40267  -0.40139  -0.40036  -0.39845  -0.39532
 Alpha  occ. eigenvalues --   -0.39391  -0.39201  -0.38608  -0.38269  -0.38065
 Alpha  occ. eigenvalues --   -0.37844  -0.37349  -0.36886  -0.36580  -0.36249
 Alpha  occ. eigenvalues --   -0.35915  -0.35846  -0.35597  -0.35532  -0.35092
 Alpha  occ. eigenvalues --   -0.34753  -0.34624  -0.34099  -0.33811  -0.33089
 Alpha  occ. eigenvalues --   -0.32768  -0.32485  -0.32090  -0.29912  -0.29636
 Alpha  occ. eigenvalues --   -0.29050  -0.26747  -0.26102  -0.25757  -0.25447
 Alpha  occ. eigenvalues --   -0.25134  -0.24954  -0.23644  -0.22816  -0.21540
 Alpha  occ. eigenvalues --   -0.18267
 Alpha virt. eigenvalues --   -0.11209  -0.05680  -0.03737  -0.01626  -0.00560
 Alpha virt. eigenvalues --    0.00912   0.01807   0.02356   0.02929   0.03937
 Alpha virt. eigenvalues --    0.04040   0.05190   0.05548   0.06160   0.06757

 Mulliken charges:
               1
     1  O   -0.213222
     2  O   -0.069855
     3  O   -0.199962
     4  O   -0.218642
     5  O   -0.226739
     6  O   -0.257586
     7  N   -0.049658
     8  N   -0.113634
     9  N   -0.143089
    10  N   -0.301018
    11  C   -0.087949
    12  C    0.015776
    13  C   -0.168412
    14  C    0.023163
    15  C   -0.066966
    16  C    0.110528
    17  C    0.014295
    18  C   -0.078483
    19  C    0.033755
    20  C   -0.088308
    21  C    0.104797
    22  C    0.093308
    23  C    0.006879
    24  C    0.082404
    25  C   -0.097705
    26  C   -0.003229
    27  C    0.123152
    28  C    0.026291
    29  C    0.016570
    30  C   -0.056278
    31  C   -0.118134
    32  C    0.084106
    33  C   -0.173377
    34  C    0.158376
    35  C   -0.111723
    36  C   -0.176461
    37  C    0.121426
    38  C    0.064719
    39  C    0.180074
    40  C    0.230958
    41  C    0.119109
    42  C    0.067521
    43  C   -0.029878
    44  H    0.154931
    45  H   -0.032176
    46  H    0.015230
    47  H    0.004081
    48  H    0.046360
    49  H    0.063609
    50  H   -0.002395
    51  H    0.048354
    52  H    0.124976
    53  H    0.039192
    54  H    0.068141
    55  H    0.030443
    56  H    0.146012
    57  H    0.038318
    58  H    0.050179
    59  H    0.035811
    60  H    0.012693
    61  H    0.024810
    62  H    0.045560
    63  H    0.057363
    64  H   -0.037198
    65  H    0.018953
    66  H    0.049784
    67  H   -0.013056
    68  H   -0.011382
    69  H    0.079445
    70  H    0.013901
    71  H    0.031255
    72  H   -0.029212
    73  H   -0.070686
    74  H   -0.005149
    75  H    0.014741
    76  H    0.053054
    77  H   -0.004945
    78  H    0.009458
    79  H    0.048195
    80  H    0.114240
    81  H    0.140208
 Sum of Mulliken charges =  -0.00000

 Dipole moment (field-independent basis, Debye):
    X=             -3.1128    Y=             -0.4433    Z=             -0.8271  Tot=              3.2512
 Quadrupole moment (field-independent basis, Debye-Ang):
   XX=           -256.4688   YY=           -242.7471   ZZ=           -251.1734
   XY=             17.6199   XZ=             15.8730   YZ=            -13.4556

 Normal termination of Gaussian 16 at Wed Jul  3 13:13:48 2019.
