 Gaussian 16, Revision A.03,
 Gaussian 16:  ES64L-G16RevA.03 25-Dec-2016

 --------------------------
 # td=(NStates=1) B3LYP/SVP
 --------------------------

 --
 TD
 --
 Symbolic Z-matrix:
 Charge =  0 Multiplicity = 1

                         Standard orientation:
 ---------------------------------------------------------------------
 Center     Atomic      Atomic             Coordinates (Angstroms)
 Number     Number       Type             X           Y           Z
 ---------------------------------------------------------------------
      1          8           0        4.344425   -4.893854   -1.657114
      2          8           0       -2.766301   -5.295609   -0.998963
      3          8           0       -7.007580   -1.612816   -1.936983
      4          8           0       -3.541308   -3.307501   -0.309830
      5          8           0       -7.572950   -0.839697    0.151108
      6          8           0        3.039708    2.600274    0.348686
      7          7           0        0.202950   -0.492814    0.598917
      8          7           0       -1.602446    1.792005    0.364428
      9          7           0        3.349386   -2.988579   -0.740482
     10          7           0        0.733456    2.939414    0.005201
     11          6           0       -0.603682   -2.426504    1.371028
     12          6           0       -0.891287   -1.136659    0.900299
     13          6           0        0.791479   -2.564528    1.393392
     14          6           0        1.252968   -1.330685    0.699138
     15          6           0       -3.839326    1.449388    0.347283
     16          6           0       -2.516374    0.800426    0.575905
     17          6           0       -2.219432   -0.464510    0.951573
     18          6           0       -3.574183    2.813240   -0.110963
     19          6           0       -1.502866   -3.428590    2.041976
     20          6           0        5.518553   -2.736772   -1.289073
     21          6           0        3.584327   -1.708831   -0.307829
     22          6           0       -2.168220    2.993597    0.115137
     23          6           0        4.999775   -1.526550   -0.358001
     24          6           0       -5.158360    0.708209    0.330242
     25          6           0        2.598599   -0.927699    0.289642
     26          6           0        1.624147   -3.747408    1.869081
     27          6           0        4.389048   -3.760738   -1.287915
     28          6           0       -1.788960   -4.519178    0.942854
     29          6           0       -5.367594   -0.166732   -0.828447
     30          6           0       -4.608996    3.935436   -0.381677
     31          6           0       -1.327648    4.075620   -0.198482
     32          6           0        6.841558   -3.436178   -0.775676
     33          6           0        5.847577   -0.583261   -0.185726
     34          6           0        0.018910    4.035974   -0.293477
     35          6           0        0.849412    5.288602   -0.485396
     36          6           0        2.192356    4.738283   -0.287454
     37          6           0       -2.747053   -4.288025   -0.110278
     38          6           0        5.568833    0.725138    0.549746
     39          6           0       -6.722117   -0.948934   -0.740719
     40          6           0        3.521008    5.440353   -0.354377
     41          6           0        2.083126    3.400781    0.049475
     42          6           0        0.407011    6.670922   -0.893983
     43          6           0        4.022518    5.842622    1.079722
     44          1           0        0.433181    0.304880    0.157504
     45          1           0       -3.075798   -1.150803    1.256047
     46          1           0       -2.508491   -3.159471    2.612354
     47          1           0       -0.963945   -4.053279    2.814146
     48          1           0        5.836751   -2.451416   -2.253868
     49          1           0       -5.240709    0.151791    1.216338
     50          1           0       -5.935730    1.480911    0.201527
     51          1           0        2.750050    0.123625    0.299971
     52          1           0       -0.586342    1.806210    0.420243
     53          1           0        1.303775   -4.887082    1.326194
     54          1           0        2.886939   -3.567326    1.896082
     55          1           0        1.152587   -3.926196    2.852846
     56          1           0        2.541136   -3.434682   -0.576429
     57          1           0       -0.854137   -4.992531    0.484194
     58          1           0       -2.231497   -5.226462    1.539421
     59          1           0       -4.588560   -0.934018   -0.935245
     60          1           0       -5.311286    0.293036   -1.834638
     61          1           0       -4.685018    4.699369    0.463338
     62          1           0       -5.714611    3.329913   -0.716541
     63          1           0       -4.509982    4.508855   -1.111460
     64          1           0       -1.964513    5.002122   -0.391506
     65          1           0        7.591309   -2.676832   -1.104533
     66          1           0        7.068903   -4.341437   -1.329249
     67          1           0        6.583054   -3.392816    0.238354
     68          1           0        6.834967   -0.746512   -0.765315
     69          1           0        4.993428    1.413214   -0.026658
     70          1           0        6.431071    1.354929    0.900910
     71          1           0        5.051354    0.458682    1.554413
     72          1           0        3.302207    6.327109   -0.982778
     73          1           0        4.379079    4.774275   -0.730387
     74          1           0       -0.195868    6.671058   -1.764597
     75          1           0        1.047337    7.592103   -0.782633
     76          1           0       -0.362821    6.669994   -0.060790
     77          1           0        3.276160    6.421492    1.633624
     78          1           0        5.021361    6.496036    0.953679
     79          1           0        4.323111    4.840797    1.665049
     80          1           0       -3.498748   -5.052201   -1.534224
     81          1           0       -7.781712   -1.984767   -1.659160
 ---------------------------------------------------------------------

 SCF Done:  E(RB3LYP) =  -1949.06770819     A.U. after   25 cycles

 Excitation energies and oscillator strengths:

 Excited State   1:      Singlet-A      1.7247 eV  718.87 nm  f=0.3188  <S**2>=0.000
     156 ->157         0.70678
     156 <-157        -0.11779
 This state for optimization and/or second-order correction.
 Total Energy, E(TD-HF/TD-DFT) =  -1949.00432646
 Copying the excited state density for this state as the 1-particle RhoCI density.

 The electronic state is 1-A.
 Alpha  occ. eigenvalues --  -19.19637 -19.17929 -19.13860 -19.13814 -19.11987
 Alpha  occ. eigenvalues --  -19.08986 -14.38470 -14.36141 -14.35994 -14.28254
 Alpha  occ. eigenvalues --  -10.33837 -10.32960 -10.29212 -10.25012 -10.24797
 Alpha  occ. eigenvalues --  -10.24137 -10.23955 -10.23942 -10.23906 -10.23793
 Alpha  occ. eigenvalues --  -10.23457 -10.22440 -10.22256 -10.22231 -10.22164
 Alpha  occ. eigenvalues --  -10.21697 -10.21631 -10.21295 -10.20945 -10.20769
 Alpha  occ. eigenvalues --  -10.20682 -10.20639 -10.20043 -10.19896 -10.19539
 Alpha  occ. eigenvalues --  -10.19411 -10.19021 -10.18946 -10.18914 -10.18692
 Alpha  occ. eigenvalues --  -10.18324 -10.18286 -10.17803  -1.11710  -1.09797
 Alpha  occ. eigenvalues --   -1.04891  -1.02263  -1.00475  -0.99089  -0.98854
 Alpha  occ. eigenvalues --   -0.97581  -0.96582  -0.90362  -0.84133  -0.82534
 Alpha  occ. eigenvalues --   -0.82198  -0.81397  -0.79950  -0.78984  -0.78697
 Alpha  occ. eigenvalues --   -0.77466  -0.76678  -0.75321  -0.74066  -0.72638
 Alpha  occ. eigenvalues --   -0.71494  -0.70946  -0.69963  -0.69032  -0.68225
 Alpha  occ. eigenvalues --   -0.67821  -0.65876  -0.65302  -0.62812  -0.62420
 Alpha  occ. eigenvalues --   -0.60311  -0.59559  -0.58712  -0.58193  -0.57602
 Alpha  occ. eigenvalues --   -0.57006  -0.56094  -0.55932  -0.54231  -0.53245
 Alpha  occ. eigenvalues --   -0.52413  -0.51616  -0.51005  -0.50728  -0.50152
 Alpha  occ. eigenvalues --   -0.49588  -0.49308  -0.49133  -0.48738  -0.48656
 Alpha  occ. eigenvalues --   -0.47174  -0.46758  -0.46192  -0.45806  -0.45449
 Alpha  occ. eigenvalues --   -0.44894  -0.44758  -0.44708  -0.44101  -0.43598
 Alpha  occ. eigenvalues --   -0.43394  -0.43253  -0.43179  -0.42849  -0.42324
 Alpha  occ. eigenvalues --   -0.41894  -0.41806  -0.41724  -0.41631  -0.41179
 Alpha  occ. eigenvalues --   -0.41113  -0.40932  -0.40605  -0.40535  -0.40314
 Alpha  occ. eigenvalues --   -0.39767  -0.39153  -0.39000  -0.38741  -0.38335
 Alpha  occ. eigenvalues --   -0.37772  -0.37616  -0.37245  -0.36928  -0.36443
 Alpha  occ. eigenvalues --   -0.36060  -0.35667  -0.35250  -0.35070  -0.34544
 Alpha  occ. eigenvalues --   -0.34294  -0.33659  -0.33608  -0.32823  -0.32696
 Alpha  occ. eigenvalues --   -0.32632  -0.32347  -0.32242  -0.29721  -0.29015
 Alpha  occ. eigenvalues --   -0.28872  -0.27568  -0.27179  -0.26399  -0.26233
 Alpha  occ. eigenvalues --   -0.25456  -0.25200  -0.23476  -0.22361  -0.20952
 Alpha  occ. eigenvalues --   -0.17925
 Alpha virt. eigenvalues --   -0.10924  -0.06404  -0.04922  -0.02651  -0.01347
 Alpha virt. eigenvalues --   -0.00113   0.00898   0.02264   0.02486   0.03282
 Alpha virt. eigenvalues --    0.03928   0.04939   0.05278   0.05899   0.06345

 Mulliken charges:
               1
     1  O   -0.176771
     2  O   -0.141703
     3  O   -0.159518
     4  O   -0.293732
     5  O   -0.249437
     6  O   -0.280614
     7  N    0.096527
     8  N   -0.051306
     9  N   -0.076950
    10  N   -0.321595
    11  C   -0.068823
    12  C    0.009279
    13  C   -0.112630
    14  C   -0.032565
    15  C   -0.118137
    16  C    0.106651
    17  C   -0.056848
    18  C   -0.118448
    19  C    0.052164
    20  C   -0.181424
    21  C    0.103211
    22  C    0.039476
    23  C    0.047785
    24  C    0.182020
    25  C   -0.076321
    26  C   -0.060134
    27  C    0.162593
    28  C    0.025561
    29  C   -0.022002
    30  C    0.112914
    31  C   -0.132975
    32  C    0.065970
    33  C   -0.171196
    34  C    0.137537
    35  C   -0.121362
    36  C   -0.138362
    37  C    0.137056
    38  C    0.041903
    39  C    0.160821
    40  C    0.081027
    41  C    0.159077
    42  C    0.085785
    43  C   -0.071672
    44  H    0.097187
    45  H    0.020225
    46  H    0.047180
    47  H    0.008310
    48  H    0.022674
    49  H    0.005364
    50  H    0.005313
    51  H    0.005169
    52  H    0.115545
    53  H    0.047226
    54  H    0.088374
    55  H    0.034946
    56  H    0.079285
    57  H    0.062306
    58  H    0.016559
    59  H    0.047066
    60  H    0.032243
    61  H    0.044045
    62  H    0.034003
    63  H   -0.050184
    64  H   -0.022776
    65  H    0.007718
    66  H    0.038201
    67  H    0.012361
    68  H    0.018690
    69  H    0.059301
    70  H    0.005060
    71  H    0.040490
    72  H   -0.003992
    73  H    0.027470
    74  H    0.023054
    75  H    0.044502
    76  H    0.033744
    77  H    0.014076
    78  H    0.022054
    79  H    0.052639
    80  H    0.162504
    81  H    0.129233
 Sum of Mulliken charges =  -0.00000

 Dipole moment (field-independent basis, Debye):
    X=             -2.6996    Y=              0.1486    Z=              0.0637  Tot=              2.7045
 Quadrupole moment (field-independent basis, Debye-Ang):
   XX=           -262.1736   YY=           -234.3663   ZZ=           -254.4700
   XY=              8.4930   XZ=              6.0252   YZ=            -17.0906

 Normal termination of Gaussian 16 at Wed Jul  3 06:17:08 2019.
