 Gaussian 16, Revision A.03,
 Gaussian 16:  ES64L-G16RevA.03 25-Dec-2016

 --------------------------
 # td=(NStates=1) B3LYP/SVP
 --------------------------

 --
 TD
 --
 Symbolic Z-matrix:
 Charge =  0 Multiplicity = 1

                         Standard orientation:
 ---------------------------------------------------------------------
 Center     Atomic      Atomic             Coordinates (Angstroms)
 Number     Number       Type             X           Y           Z
 ---------------------------------------------------------------------
      1          8           0        4.237045   -4.913189   -1.804652
      2          8           0       -2.573791   -4.863723   -1.160234
      3          8           0       -6.816238   -1.574881   -2.019463
      4          8           0       -3.774843   -3.327177   -0.037778
      5          8           0       -7.597297   -0.631632   -0.104988
      6          8           0        3.053573    2.389486    0.419230
      7          7           0        0.216350   -0.359394    0.723583
      8          7           0       -1.637459    1.868277    0.465828
      9          7           0        3.306663   -3.012727   -0.677443
     10          7           0        0.752839    2.816666    0.177157
     11          6           0       -0.630122   -2.364158    1.477567
     12          6           0       -0.936192   -1.014561    1.014227
     13          6           0        0.714820   -2.488528    1.278773
     14          6           0        1.195623   -1.208728    0.758875
     15          6           0       -3.743381    1.433466    0.456889
     16          6           0       -2.560746    0.839315    0.730848
     17          6           0       -2.226892   -0.459933    1.022446
     18          6           0       -3.683103    2.800077   -0.095083
     19          6           0       -1.556001   -3.351615    2.040996
     20          6           0        5.477722   -2.801419   -1.352831
     21          6           0        3.579069   -1.671172   -0.216080
     22          6           0       -2.185648    2.951662   -0.105496
     23          6           0        5.026771   -1.480911   -0.560882
     24          6           0       -5.109114    0.759746    0.358736
     25          6           0        2.611454   -0.874389    0.359801
     26          6           0        1.518955   -3.660935    1.798947
     27          6           0        4.219401   -3.717964   -1.314812
     28          6           0       -1.981250   -4.461314    1.157974
     29          6           0       -5.373348   -0.241919   -0.746032
     30          6           0       -4.666178    3.757133   -0.508928
     31          6           0       -1.362759    4.068927   -0.256178
     32          6           0        6.698358   -3.448725   -0.849610
     33          6           0        5.762235   -0.461905   -0.262690
     34          6           0        0.070967    4.009694   -0.209678
     35          6           0        1.062986    5.067127   -0.583313
     36          6           0        2.298152    4.596211   -0.342957
     37          6           0       -2.864049   -4.161665   -0.014013
     38          6           0        5.491558    0.716042    0.603748
     39          6           0       -6.723089   -0.810232   -0.835625
     40          6           0        3.636320    5.294846   -0.295938
     41          6           0        2.121328    3.174190    0.269859
     42          6           0        0.528406    6.422362   -1.059620
     43          6           0        4.311792    5.467361    1.137479
     44          1           0        0.342939    0.446594    0.214220
     45          1           0       -3.014930   -1.369527    1.062691
     46          1           0       -2.306124   -2.757247    2.466428
     47          1           0       -1.009262   -3.683310    2.913525
     48          1           0        5.746851   -2.733811   -2.405564
     49          1           0       -5.480508    0.179447    1.332113
     50          1           0       -5.952934    1.593206    0.495700
     51          1           0        3.061189    0.216948    0.567194
     52          1           0       -0.720126    1.836961    0.658354
     53          1           0        1.782697   -4.704000    1.283745
     54          1           0        2.683590   -3.504188    1.790934
     55          1           0        1.294788   -3.707854    2.813174
     56          1           0        2.424109   -3.443243   -0.721424
     57          1           0       -1.044457   -4.865851    0.697793
     58          1           0       -2.236547   -5.268863    1.622561
     59          1           0       -4.471088   -0.844616   -0.947764
     60          1           0       -5.220353    0.308227   -1.742659
     61          1           0       -4.625049    4.531322    0.236465
     62          1           0       -5.643929    3.239080   -0.636116
     63          1           0       -4.409982    4.065580   -1.439041
     64          1           0       -1.873065    5.048272   -0.724398
     65          1           0        7.550235   -2.711579   -0.909758
     66          1           0        7.008394   -4.382233   -1.515212
     67          1           0        6.696824   -3.647636    0.029805
     68          1           0        6.804410   -0.609951   -0.480384
     69          1           0        4.782704    1.427389   -0.199814
     70          1           0        6.558126    1.146891    0.903439
     71          1           0        4.851244    0.814404    1.394587
     72          1           0        3.419901    6.188600   -0.742628
     73          1           0        4.311807    4.748799   -1.047776
     74          1           0       -0.054861    6.274603   -1.979958
     75          1           0        1.268990    7.183506   -1.372071
     76          1           0       -0.248995    6.747632   -0.346019
     77          1           0        3.577813    5.945545    1.851345
     78          1           0        5.211674    6.296610    1.017260
     79          1           0        4.694493    4.496890    1.469204
     80          1           0       -3.057886   -4.588102   -1.989257
     81          1           0       -7.743292   -1.803846   -1.925871
 ---------------------------------------------------------------------

 SCF Done:  E(RB3LYP) =  -1949.04181953     A.U. after   16 cycles

 Excitation energies and oscillator strengths:

 Excited State   1:      Singlet-A      1.8221 eV  680.44 nm  f=0.2870  <S**2>=0.000
     156 ->157         0.70514
     156 <-157        -0.11391
 This state for optimization and/or second-order correction.
 Total Energy, E(TD-HF/TD-DFT) =  -1948.97485750
 Copying the excited state density for this state as the 1-particle RhoCI density.

 The electronic state is 1-A.
 Alpha  occ. eigenvalues --  -19.19330 -19.16825 -19.14327 -19.14015 -19.10537
 Alpha  occ. eigenvalues --  -19.09820 -14.39467 -14.37697 -14.35373 -14.28907
 Alpha  occ. eigenvalues --  -10.34410 -10.31847 -10.28492 -10.26557 -10.25817
 Alpha  occ. eigenvalues --  -10.25636 -10.24290 -10.23944 -10.23546 -10.22974
 Alpha  occ. eigenvalues --  -10.22868 -10.21642 -10.21152 -10.21132 -10.21022
 Alpha  occ. eigenvalues --  -10.21009 -10.20978 -10.20908 -10.20852 -10.20632
 Alpha  occ. eigenvalues --  -10.20339 -10.20028 -10.19988 -10.19984 -10.19765
 Alpha  occ. eigenvalues --  -10.19738 -10.19728 -10.19386 -10.19229 -10.19140
 Alpha  occ. eigenvalues --  -10.18847 -10.18812 -10.16928  -1.10768  -1.09390
 Alpha  occ. eigenvalues --   -1.02856  -1.01904  -1.00998  -1.00640  -1.00524
 Alpha  occ. eigenvalues --   -0.98818  -0.93842  -0.89129  -0.85582  -0.82603
 Alpha  occ. eigenvalues --   -0.82112  -0.81743  -0.80485  -0.79033  -0.78661
 Alpha  occ. eigenvalues --   -0.77912  -0.76989  -0.75265  -0.74605  -0.73068
 Alpha  occ. eigenvalues --   -0.72756  -0.71352  -0.70219  -0.68854  -0.68175
 Alpha  occ. eigenvalues --   -0.67267  -0.65636  -0.65172  -0.63475  -0.62719
 Alpha  occ. eigenvalues --   -0.61252  -0.60328  -0.59342  -0.58413  -0.57806
 Alpha  occ. eigenvalues --   -0.57210  -0.55807  -0.55174  -0.54754  -0.53574
 Alpha  occ. eigenvalues --   -0.53529  -0.52436  -0.51238  -0.50730  -0.50181
 Alpha  occ. eigenvalues --   -0.49481  -0.49123  -0.48858  -0.48723  -0.47894
 Alpha  occ. eigenvalues --   -0.47178  -0.46772  -0.46595  -0.46233  -0.45962
 Alpha  occ. eigenvalues --   -0.45598  -0.45326  -0.44562  -0.44180  -0.43959
 Alpha  occ. eigenvalues --   -0.43795  -0.43738  -0.43471  -0.43198  -0.43040
 Alpha  occ. eigenvalues --   -0.42374  -0.42013  -0.41903  -0.41298  -0.41140
 Alpha  occ. eigenvalues --   -0.41069  -0.40257  -0.40110  -0.39891  -0.39717
 Alpha  occ. eigenvalues --   -0.39399  -0.38959  -0.38655  -0.38229  -0.38003
 Alpha  occ. eigenvalues --   -0.37742  -0.37667  -0.37402  -0.36974  -0.36770
 Alpha  occ. eigenvalues --   -0.36407  -0.35586  -0.35203  -0.34808  -0.34750
 Alpha  occ. eigenvalues --   -0.33915  -0.33681  -0.33370  -0.33277  -0.33047
 Alpha  occ. eigenvalues --   -0.32684  -0.32322  -0.30909  -0.30372  -0.29498
 Alpha  occ. eigenvalues --   -0.29385  -0.27759  -0.27660  -0.26362  -0.25565
 Alpha  occ. eigenvalues --   -0.24367  -0.24237  -0.23937  -0.23244  -0.22103
 Alpha  occ. eigenvalues --   -0.18314
 Alpha virt. eigenvalues --   -0.10880  -0.06181  -0.04099  -0.02624   0.00668
 Alpha virt. eigenvalues --    0.00930   0.01989   0.02812   0.03394   0.03675
 Alpha virt. eigenvalues --    0.04020   0.04459   0.05372   0.05636   0.06322

 Mulliken charges:
               1
     1  O   -0.304841
     2  O   -0.222162
     3  O   -0.223814
     4  O   -0.240030
     5  O   -0.152725
     6  O   -0.244064
     7  N    0.096704
     8  N   -0.028453
     9  N   -0.077351
    10  N   -0.378960
    11  C   -0.153818
    12  C   -0.031008
    13  C   -0.118699
    14  C    0.000642
    15  C   -0.085212
    16  C    0.161234
    17  C   -0.118628
    18  C   -0.167839
    19  C    0.195478
    20  C   -0.046395
    21  C    0.104048
    22  C    0.066012
    23  C    0.074297
    24  C   -0.022361
    25  C   -0.121471
    26  C   -0.009162
    27  C    0.116126
    28  C    0.149387
    29  C    0.017580
    30  C    0.193584
    31  C   -0.130071
    32  C    0.121975
    33  C   -0.164793
    34  C    0.072502
    35  C   -0.055324
    36  C   -0.244970
    37  C    0.149469
    38  C   -0.012056
    39  C    0.151558
    40  C    0.129968
    41  C    0.193702
    42  C    0.107620
    43  C   -0.047824
    44  H    0.111113
    45  H    0.080016
    46  H   -0.008635
    47  H   -0.007813
    48  H    0.025333
    49  H    0.016822
    50  H    0.022536
    51  H    0.068395
    52  H    0.058462
    53  H    0.054350
    54  H    0.023761
    55  H    0.018339
    56  H    0.110363
    57  H    0.024839
    58  H   -0.017113
    59  H    0.035513
    60  H    0.020802
    61  H    0.036131
    62  H    0.016910
    63  H   -0.004249
    64  H    0.005637
    65  H    0.001884
    66  H    0.044629
    67  H   -0.088109
    68  H   -0.016057
    69  H    0.105855
    70  H    0.028430
    71  H    0.023691
    72  H   -0.045547
    73  H    0.019792
    74  H    0.010477
    75  H    0.019927
    76  H    0.028121
    77  H    0.029736
    78  H    0.027610
    79  H    0.050589
    80  H    0.213746
    81  H    0.153859
 Sum of Mulliken charges =  -0.00000

 Dipole moment (field-independent basis, Debye):
    X=             -2.3786    Y=              1.2551    Z=              0.3250  Tot=              2.7090
 Quadrupole moment (field-independent basis, Debye-Ang):
   XX=           -262.6546   YY=           -246.6963   ZZ=           -251.8471
   XY=             13.9755   XZ=             15.0692   YZ=            -18.4460

 Normal termination of Gaussian 16 at Tue Jul  2 18:39:05 2019.
