 Gaussian 16, Revision A.03,
 Gaussian 16:  ES64L-G16RevA.03 25-Dec-2016

 --------------------------
 # td=(NStates=1) B3LYP/SVP
 --------------------------

 --
 TD
 --
 Symbolic Z-matrix:
 Charge =  0 Multiplicity = 1

                         Standard orientation:
 ---------------------------------------------------------------------
 Center     Atomic      Atomic             Coordinates (Angstroms)
 Number     Number       Type             X           Y           Z
 ---------------------------------------------------------------------
      1          8           0       -4.124915   -4.784965    1.944131
      2          8           0        3.164787   -4.756012    1.140102
      3          8           0        6.934004   -1.433339    1.990589
      4          8           0        3.883834   -2.957996   -0.015492
      5          8           0        7.472130   -0.568998   -0.059945
      6          8           0       -3.087527    2.263753   -0.406389
      7          7           0       -0.209657   -0.499470   -0.636018
      8          7           0        1.484714    1.882506   -0.425307
      9          7           0       -3.273676   -3.107266    0.728323
     10          7           0       -0.886712    2.856849   -0.188586
     11          6           0        0.767641   -2.382624   -1.429834
     12          6           0        0.962833   -1.105645   -0.914254
     13          6           0       -0.653680   -2.598705   -1.193495
     14          6           0       -1.256405   -1.417212   -0.664657
     15          6           0        3.768410    1.607610   -0.305761
     16          6           0        2.496880    0.914509   -0.582612
     17          6           0        2.302559   -0.444165   -0.882277
     18          6           0        3.497344    2.946710   -0.040190
     19          6           0        1.691029   -3.410311   -1.986994
     20          6           0       -5.463441   -2.883759    1.288761
     21          6           0       -3.571763   -1.910198    0.229305
     22          6           0        2.028098    3.144995   -0.114152
     23          6           0       -4.967017   -1.696125    0.434618
     24          6           0        5.013582    0.917031   -0.305935
     25          6           0       -2.535892   -1.143780   -0.430472
     26          6           0       -1.364755   -3.869749   -1.693836
     27          6           0       -4.322967   -3.738781    1.327250
     28          6           0        2.274236   -4.480323   -1.021851
     29          6           0        5.277808    0.002234    0.834241
     30          6           0        4.463998    4.067143    0.288095
     31          6           0        1.203761    4.235704    0.255079
     32          6           0       -6.813612   -3.453536    0.901542
     33          6           0       -5.743780   -0.708950   -0.098311
     34          6           0       -0.220600    4.047737    0.179940
     35          6           0       -1.250556    5.108279    0.476820
     36          6           0       -2.417435    4.544992    0.264837
     37          6           0        3.162984   -3.928520    0.066121
     38          6           0       -5.380807    0.436250   -0.941470
     39          6           0        6.642806   -0.659038    0.790133
     40          6           0       -3.765867    5.218021    0.420342
     41          6           0       -2.199391    3.043418   -0.143164
     42          6           0       -0.748359    6.427876    1.021749
     43          6           0       -4.557915    5.395160   -0.891966
     44          1           0       -0.342211    0.154784    0.081861
     45          1           0        3.091100   -1.040269   -1.089240
     46          1           0        2.475874   -3.000049   -2.252809
     47          1           0        1.019049   -3.687315   -2.723640
     48          1           0       -5.670654   -2.394777    2.201393
     49          1           0        5.192128    0.188158   -1.144154
     50          1           0        5.721167    1.729910   -0.379479
     51          1           0       -2.805248   -0.091848   -0.576421
     52          1           0        0.452427    1.898555   -0.522090
     53          1           0       -1.458728   -4.478297   -0.590598
     54          1           0       -2.359057   -3.685013   -2.149743
     55          1           0       -0.654721   -4.540497   -2.443600
     56          1           0       -2.450788   -3.734428    0.558905
     57          1           0        1.512998   -5.066187   -0.442181
     58          1           0        2.798088   -5.347339   -1.606378
     59          1           0        4.703590   -0.889826    0.924844
     60          1           0        5.430038    0.702563    1.816794
     61          1           0        4.378350    4.813157   -0.397008
     62          1           0        5.634119    3.610052    0.466773
     63          1           0        4.221514    4.434468    1.306583
     64          1           0        1.807480    5.231699    0.360964
     65          1           0       -7.852521   -2.885172    1.189031
     66          1           0       -7.005573   -4.409452    1.497315
     67          1           0       -6.784122   -3.723603   -0.032526
     68          1           0       -6.716760   -0.803793    0.233082
     69          1           0       -4.474375    1.157623   -0.672825
     70          1           0       -6.181811    1.129747   -1.338325
     71          1           0       -4.817984    0.099584   -1.830917
     72          1           0       -3.790761    6.124397    1.001019
     73          1           0       -4.423616    4.475975    1.078329
     74          1           0        0.145313    6.362895    1.947642
     75          1           0       -1.579794    7.134556    1.525247
     76          1           0       -0.441798    7.050824    0.116618
     77          1           0       -3.921076    5.989133   -1.647941
     78          1           0       -5.451059    5.827479   -0.721758
     79          1           0       -4.904764    4.414964   -1.243668
     80          1           0        3.961803   -4.473414    1.746190
     81          1           0        7.882832   -1.664602    1.834239
 ---------------------------------------------------------------------

 SCF Done:  E(RB3LYP) =  -1949.08143713     A.U. after   16 cycles

 Excitation energies and oscillator strengths:

 Excited State   1:      Singlet-A      1.6467 eV  752.91 nm  f=0.3345  <S**2>=0.000
     156 ->157         0.71141
     156 <-157        -0.12349
 This state for optimization and/or second-order correction.
 Total Energy, E(TD-HF/TD-DFT) =  -1949.02092064
 Copying the excited state density for this state as the 1-particle RhoCI density.

 The electronic state is 1-A.
 Alpha  occ. eigenvalues --  -19.20270 -19.16552 -19.15020 -19.13775 -19.10593
 Alpha  occ. eigenvalues --  -19.10103 -14.37211 -14.36599 -14.35275 -14.28828
 Alpha  occ. eigenvalues --  -10.34184 -10.32042 -10.28678 -10.26452 -10.24578
 Alpha  occ. eigenvalues --  -10.24429 -10.23915 -10.23408 -10.23228 -10.23059
 Alpha  occ. eigenvalues --  -10.23040 -10.22480 -10.22007 -10.21422 -10.21090
 Alpha  occ. eigenvalues --  -10.21029 -10.20675 -10.20485 -10.20432 -10.20362
 Alpha  occ. eigenvalues --  -10.19816 -10.19795 -10.19706 -10.19658 -10.19646
 Alpha  occ. eigenvalues --  -10.19642 -10.19459 -10.18969 -10.18881 -10.18223
 Alpha  occ. eigenvalues --  -10.17923 -10.17362 -10.16924  -1.10832  -1.08063
 Alpha  occ. eigenvalues --   -1.04189  -1.02105  -1.01948  -0.99241  -0.98890
 Alpha  occ. eigenvalues --   -0.96629  -0.95629  -0.91033  -0.83457  -0.83194
 Alpha  occ. eigenvalues --   -0.82811  -0.80730  -0.79012  -0.78957  -0.77876
 Alpha  occ. eigenvalues --   -0.77576  -0.76865  -0.74982  -0.73742  -0.72298
 Alpha  occ. eigenvalues --   -0.71427  -0.70700  -0.69598  -0.68621  -0.68148
 Alpha  occ. eigenvalues --   -0.67289  -0.65357  -0.64839  -0.62738  -0.61029
 Alpha  occ. eigenvalues --   -0.60701  -0.59497  -0.58879  -0.57185  -0.56876
 Alpha  occ. eigenvalues --   -0.55695  -0.55357  -0.54656  -0.53911  -0.52633
 Alpha  occ. eigenvalues --   -0.52520  -0.51918  -0.51860  -0.50701  -0.50357
 Alpha  occ. eigenvalues --   -0.49565  -0.49397  -0.48942  -0.48524  -0.47856
 Alpha  occ. eigenvalues --   -0.47450  -0.46883  -0.46628  -0.46214  -0.45343
 Alpha  occ. eigenvalues --   -0.45087  -0.44764  -0.44654  -0.44072  -0.43660
 Alpha  occ. eigenvalues --   -0.43490  -0.43426  -0.43032  -0.42683  -0.42470
 Alpha  occ. eigenvalues --   -0.42169  -0.41943  -0.41764  -0.41387  -0.41261
 Alpha  occ. eigenvalues --   -0.40993  -0.40446  -0.40191  -0.39950  -0.39586
 Alpha  occ. eigenvalues --   -0.39240  -0.39062  -0.38931  -0.38550  -0.38091
 Alpha  occ. eigenvalues --   -0.37947  -0.37011  -0.36893  -0.36391  -0.36311
 Alpha  occ. eigenvalues --   -0.35984  -0.35745  -0.35337  -0.35305  -0.35003
 Alpha  occ. eigenvalues --   -0.34344  -0.34041  -0.33794  -0.33528  -0.33075
 Alpha  occ. eigenvalues --   -0.32575  -0.32512  -0.31844  -0.30383  -0.29446
 Alpha  occ. eigenvalues --   -0.28293  -0.27269  -0.26377  -0.26091  -0.25311
 Alpha  occ. eigenvalues --   -0.25026  -0.24787  -0.24075  -0.23260  -0.21422
 Alpha  occ. eigenvalues --   -0.17086
 Alpha virt. eigenvalues --   -0.10501  -0.05803  -0.04101  -0.02470  -0.01306
 Alpha virt. eigenvalues --    0.00110   0.01581   0.02071   0.02526   0.03306
 Alpha virt. eigenvalues --    0.03913   0.04733   0.05246   0.05902   0.06293

 Mulliken charges:
               1
     1  O   -0.228518
     2  O   -0.215481
     3  O   -0.280640
     4  O   -0.223088
     5  O   -0.195546
     6  O   -0.209309
     7  N   -0.003287
     8  N   -0.140153
     9  N   -0.059123
    10  N   -0.298546
    11  C   -0.169472
    12  C    0.008419
    13  C   -0.166168
    14  C    0.139637
    15  C   -0.037462
    16  C    0.116878
    17  C    0.015916
    18  C   -0.140317
    19  C    0.311670
    20  C    0.041215
    21  C    0.051748
    22  C    0.060071
    23  C   -0.088249
    24  C    0.089617
    25  C   -0.183584
    26  C   -0.037060
    27  C    0.087673
    28  C   -0.027966
    29  C    0.008450
    30  C    0.081118
    31  C   -0.117140
    32  C    0.045741
    33  C   -0.033749
    34  C    0.087129
    35  C   -0.029938
    36  C   -0.191607
    37  C    0.146717
    38  C    0.000926
    39  C    0.126515
    40  C    0.025388
    41  C    0.162984
    42  C   -0.017942
    43  C    0.041336
    44  H    0.134064
    45  H   -0.066304
    46  H   -0.084600
    47  H    0.000247
    48  H    0.037857
    49  H    0.023162
    50  H   -0.003542
    51  H   -0.004953
    52  H    0.134599
    53  H    0.041384
    54  H    0.056764
    55  H    0.047227
    56  H    0.137814
    57  H    0.033072
    58  H    0.069724
    59  H    0.045244
    60  H    0.053387
    61  H    0.018591
    62  H    0.037885
    63  H    0.029113
    64  H    0.021389
    65  H    0.042241
    66  H    0.031764
    67  H   -0.025083
    68  H   -0.050808
    69  H    0.108848
    70  H    0.014477
    71  H    0.009342
    72  H   -0.010596
    73  H    0.012005
    74  H    0.060310
    75  H    0.029647
    76  H    0.040096
    77  H    0.024632
    78  H   -0.026482
    79  H    0.019800
    80  H    0.222678
    81  H    0.180202
 Sum of Mulliken charges =  -0.00000

 Dipole moment (field-independent basis, Debye):
    X=              1.9306    Y=             -0.0509    Z=              0.1330  Tot=              1.9358
 Quadrupole moment (field-independent basis, Debye-Ang):
   XX=           -244.8429   YY=           -237.7182   ZZ=           -257.6407
   XY=             -9.6068   XZ=             10.4475   YZ=             16.5892

 Normal termination of Gaussian 16 at Wed Jul  3 00:28:00 2019.
