 Gaussian 16, Revision A.03,
 Gaussian 16:  ES64L-G16RevA.03 25-Dec-2016

 --------------------------
 # td=(NStates=1) B3LYP/SVP
 --------------------------

 --
 TD
 --
 Symbolic Z-matrix:
 Charge =  0 Multiplicity = 1

                         Standard orientation:
 ---------------------------------------------------------------------
 Center     Atomic      Atomic             Coordinates (Angstroms)
 Number     Number       Type             X           Y           Z
 ---------------------------------------------------------------------
      1          8           0        4.713981   -4.681949   -1.702557
      2          8           0       -2.587890   -5.154603   -0.958951
      3          8           0       -7.085880   -1.769821   -1.900497
      4          8           0       -3.523171   -3.443929    0.188059
      5          8           0       -7.689568   -0.649012   -0.048388
      6          8           0        2.881275    2.601647    0.304181
      7          7           0        0.302354   -0.563232    0.522047
      8          7           0       -1.662840    1.697579    0.203930
      9          7           0        3.486028   -2.960962   -0.684682
     10          7           0        0.611030    2.888909    0.071596
     11          6           0       -0.510426   -2.403037    1.423500
     12          6           0       -0.830428   -1.108130    1.023589
     13          6           0        0.886190   -2.570538    1.284223
     14          6           0        1.315402   -1.472604    0.677607
     15          6           0       -3.828257    1.286750    0.241145
     16          6           0       -2.449249    0.723276    0.428635
     17          6           0       -2.255781   -0.622885    0.864650
     18          6           0       -3.661826    2.610722    0.063344
     19          6           0       -1.400529   -3.458938    2.022641
     20          6           0        5.691878   -2.487213   -1.292625
     21          6           0        3.680442   -1.623202   -0.312980
     22          6           0       -2.275192    2.952659   -0.074896
     23          6           0        5.096045   -1.378004   -0.521904
     24          6           0       -5.155606    0.560402    0.250680
     25          6           0        2.659724   -0.905642    0.268786
     26          6           0        1.813875   -3.635282    1.655548
     27          6           0        4.624201   -3.555447   -1.309731
     28          6           0       -1.781439   -4.660070    1.172516
     29          6           0       -5.395360   -0.335230   -0.999632
     30          6           0       -4.752146    3.640725   -0.392204
     31          6           0       -1.597759    4.102501   -0.135730
     32          6           0        7.107449   -3.129297   -0.965590
     33          6           0        5.805228   -0.332391   -0.152008
     34          6           0       -0.149822    3.944248   -0.197299
     35          6           0        0.651734    5.194674   -0.373006
     36          6           0        1.976572    4.819542   -0.135572
     37          6           0       -2.729039   -4.352054    0.119891
     38          6           0        5.395007    0.919602    0.645275
     39          6           0       -6.810374   -0.914748   -0.907583
     40          6           0        3.351782    5.664658   -0.213510
     41          6           0        1.915161    3.269168    0.023970
     42          6           0        0.230907    6.620959   -0.796866
     43          6           0        4.030053    5.581457    1.194948
     44          1           0        0.354976    0.404053    0.000012
     45          1           0       -2.774249   -1.284387    0.971014
     46          1           0       -2.172029   -2.783301    2.240149
     47          1           0       -0.938595   -3.913865    2.970777
     48          1           0        5.626558   -1.935517   -2.325894
     49          1           0       -5.232410   -0.349058    1.232963
     50          1           0       -5.993198    1.042660    0.559448
     51          1           0        2.797609    0.154519    0.108939
     52          1           0       -0.678646    1.923417    0.231498
     53          1           0        1.977245   -4.509376    0.977232
     54          1           0        2.865315   -3.280570    1.689070
     55          1           0        1.414316   -4.122820    2.624619
     56          1           0        2.592164   -3.619598   -0.653786
     57          1           0       -0.972540   -5.254546    0.746259
     58          1           0       -2.465094   -5.443839    1.781626
     59          1           0       -4.573422   -1.053726   -0.878149
     60          1           0       -5.429425    0.122749   -1.894236
     61          1           0       -4.775491    4.647745    0.233717
     62          1           0       -5.749682    3.172237   -0.224326
     63          1           0       -4.664219    3.789499   -1.365932
     64          1           0       -1.905053    5.138277   -0.554663
     65          1           0        7.761217   -2.388102   -1.258036
     66          1           0        7.134584   -4.034211   -1.611520
     67          1           0        7.141376   -3.480008    0.192143
     68          1           0        6.801631   -0.228416   -0.344108
     69          1           0        5.202060    1.847973   -0.268119
     70          1           0        6.256750    1.390565    1.158247
     71          1           0        4.660889    0.865507    1.259862
     72          1           0        3.278173    6.637287   -0.772003
     73          1           0        3.975779    5.245238   -0.933583
     74          1           0       -0.038140    6.809663   -1.885345
     75          1           0        1.213264    7.349508   -0.682609
     76          1           0       -0.506400    6.993176   -0.036099
     77          1           0        3.435555    6.006793    2.005115
     78          1           0        5.009246    6.186417    1.070477
     79          1           0        4.154764    4.530742    1.618808
     80          1           0       -3.437671   -4.839261   -1.466396
     81          1           0       -8.063687   -2.071938   -1.841035
 ---------------------------------------------------------------------

 SCF Done:  E(RB3LYP) =  -1948.99804917     A.U. after   17 cycles

 Excitation energies and oscillator strengths:

 Excited State   1:      Singlet-A      1.6130 eV  768.68 nm  f=0.2531  <S**2>=0.000
     155 ->157         0.11281
     156 ->157         0.70437
     156 <-157        -0.11575
 This state for optimization and/or second-order correction.
 Total Energy, E(TD-HF/TD-DFT) =  -1948.93877417
 Copying the excited state density for this state as the 1-particle RhoCI density.

 The electronic state is 1-A.
 Alpha  occ. eigenvalues --  -19.19828 -19.19088 -19.13686 -19.12429 -19.11282
 Alpha  occ. eigenvalues --  -19.11238 -14.36946 -14.36515 -14.35806 -14.30612
 Alpha  occ. eigenvalues --  -10.32563 -10.32472 -10.28607 -10.27610 -10.24579
 Alpha  occ. eigenvalues --  -10.24386 -10.24135 -10.23738 -10.22180 -10.21844
 Alpha  occ. eigenvalues --  -10.21782 -10.21718 -10.21192 -10.20608 -10.20565
 Alpha  occ. eigenvalues --  -10.20555 -10.20549 -10.20448 -10.20207 -10.20115
 Alpha  occ. eigenvalues --  -10.20074 -10.20047 -10.19728 -10.19714 -10.19698
 Alpha  occ. eigenvalues --  -10.19572 -10.19228 -10.18815 -10.18537 -10.18452
 Alpha  occ. eigenvalues --  -10.18090 -10.17919 -10.17489  -1.10765  -1.09006
 Alpha  occ. eigenvalues --   -1.03986  -1.03131  -1.01623  -1.00275  -0.98314
 Alpha  occ. eigenvalues --   -0.98213  -0.94202  -0.93732  -0.82307  -0.81990
 Alpha  occ. eigenvalues --   -0.81845  -0.81516  -0.79466  -0.78632  -0.77864
 Alpha  occ. eigenvalues --   -0.77770  -0.76384  -0.74479  -0.73668  -0.72386
 Alpha  occ. eigenvalues --   -0.70856  -0.69243  -0.68869  -0.68481  -0.67646
 Alpha  occ. eigenvalues --   -0.67372  -0.66332  -0.64302  -0.62966  -0.61891
 Alpha  occ. eigenvalues --   -0.60627  -0.60056  -0.58622  -0.57243  -0.56273
 Alpha  occ. eigenvalues --   -0.56153  -0.55639  -0.54610  -0.54016  -0.53652
 Alpha  occ. eigenvalues --   -0.52897  -0.51857  -0.50943  -0.50378  -0.50193
 Alpha  occ. eigenvalues --   -0.49748  -0.49200  -0.48911  -0.48733  -0.47709
 Alpha  occ. eigenvalues --   -0.46972  -0.46788  -0.46680  -0.45758  -0.45684
 Alpha  occ. eigenvalues --   -0.44612  -0.44319  -0.44049  -0.43585  -0.43467
 Alpha  occ. eigenvalues --   -0.43123  -0.43047  -0.42604  -0.42425  -0.42207
 Alpha  occ. eigenvalues --   -0.41692  -0.41648  -0.41346  -0.41323  -0.40755
 Alpha  occ. eigenvalues --   -0.40530  -0.40235  -0.39940  -0.39611  -0.39408
 Alpha  occ. eigenvalues --   -0.39246  -0.38663  -0.38540  -0.38459  -0.38296
 Alpha  occ. eigenvalues --   -0.38057  -0.38009  -0.37879  -0.37035  -0.36747
 Alpha  occ. eigenvalues --   -0.36625  -0.35999  -0.35474  -0.34813  -0.34779
 Alpha  occ. eigenvalues --   -0.34132  -0.33513  -0.33374  -0.33069  -0.32810
 Alpha  occ. eigenvalues --   -0.32737  -0.32476  -0.31552  -0.29967  -0.29446
 Alpha  occ. eigenvalues --   -0.28972  -0.27886  -0.26479  -0.26262  -0.25777
 Alpha  occ. eigenvalues --   -0.24991  -0.24827  -0.24428  -0.23998  -0.21530
 Alpha  occ. eigenvalues --   -0.17591
 Alpha virt. eigenvalues --   -0.11053  -0.05522  -0.03651  -0.00787  -0.00413
 Alpha virt. eigenvalues --    0.00599   0.02498   0.02996   0.03588   0.03805
 Alpha virt. eigenvalues --    0.04004   0.04285   0.04966   0.05767   0.06061

 Mulliken charges:
               1
     1  O   -0.188920
     2  O   -0.202751
     3  O   -0.201419
     4  O   -0.233985
     5  O   -0.276007
     6  O   -0.184541
     7  N   -0.100757
     8  N   -0.031330
     9  N   -0.228868
    10  N   -0.264302
    11  C   -0.166284
    12  C   -0.002100
    13  C   -0.119566
    14  C    0.076966
    15  C   -0.017008
    16  C    0.102570
    17  C    0.237827
    18  C   -0.136863
    19  C    0.135151
    20  C   -0.115304
    21  C    0.113239
    22  C    0.127996
    23  C    0.056910
    24  C   -0.016848
    25  C   -0.105553
    26  C    0.044731
    27  C    0.128854
    28  C    0.048223
    29  C    0.076449
    30  C    0.096269
    31  C   -0.105735
    32  C    0.075742
    33  C   -0.167802
    34  C    0.012483
    35  C   -0.107359
    36  C   -0.180985
    37  C    0.091837
    38  C    0.091890
    39  C    0.139882
    40  C    0.106561
    41  C    0.143656
    42  C    0.001993
    43  C   -0.038986
    44  H    0.176123
    45  H   -0.290265
    46  H   -0.003635
    47  H    0.017753
    48  H    0.060621
    49  H    0.036278
    50  H   -0.005901
    51  H    0.010306
    52  H    0.110265
    53  H    0.011548
    54  H    0.034501
    55  H    0.018094
    56  H    0.174927
    57  H    0.027379
    58  H    0.060628
    59  H    0.063888
    60  H    0.003100
    61  H    0.037073
    62  H    0.011099
    63  H   -0.002813
    64  H    0.031019
    65  H    0.007245
    66  H    0.046205
    67  H    0.044531
    68  H   -0.050104
    69  H    0.053229
    70  H    0.000868
    71  H   -0.013699
    72  H   -0.002095
    73  H   -0.009505
    74  H    0.051666
    75  H    0.033331
    76  H    0.041936
    77  H    0.010048
    78  H    0.022342
    79  H    0.051110
    80  H    0.202933
    81  H    0.212016
 Sum of Mulliken charges =  -0.00000

 Dipole moment (field-independent basis, Debye):
    X=             -2.0090    Y=              1.5168    Z=             -2.2404  Tot=              3.3698
 Quadrupole moment (field-independent basis, Debye-Ang):
   XX=           -252.4479   YY=           -236.4101   ZZ=           -253.4811
   XY=             20.1835   XZ=             15.9694   YZ=            -14.8311

 Normal termination of Gaussian 16 at Sun Jun 30 07:22:00 2019.
