 Gaussian 16, Revision A.03,
 Gaussian 16:  ES64L-G16RevA.03 25-Dec-2016

 --------------------------
 # td=(NStates=1) B3LYP/SVP
 --------------------------

 --
 TD
 --
 Symbolic Z-matrix:
 Charge =  0 Multiplicity = 1

                         Standard orientation:
 ---------------------------------------------------------------------
 Center     Atomic      Atomic             Coordinates (Angstroms)
 Number     Number       Type             X           Y           Z
 ---------------------------------------------------------------------
      1          8           0        4.206532   -4.835477   -1.910992
      2          8           0       -3.413498   -4.876073   -1.070649
      3          8           0       -7.110358   -1.355518   -1.743006
      4          8           0       -3.840819   -3.046850    0.194412
      5          8           0       -7.730045    0.046720   -0.102197
      6          8           0        3.138281    2.282219    0.451654
      7          7           0        0.222620   -0.613264    0.433281
      8          7           0       -1.481414    1.820473    0.408531
      9          7           0        3.163410   -3.081252   -0.693467
     10          7           0        0.900546    2.795717    0.129015
     11          6           0       -0.636299   -2.418069    1.433550
     12          6           0       -1.025855   -1.055574    0.944218
     13          6           0        0.713868   -2.681310    1.364469
     14          6           0        1.247939   -1.482704    0.769958
     15          6           0       -3.685314    1.601536    0.346972
     16          6           0       -2.403649    0.806240    0.626702
     17          6           0       -2.222125   -0.504837    0.853774
     18          6           0       -3.433774    2.826183   -0.119287
     19          6           0       -1.699759   -3.299005    1.961061
     20          6           0        5.507980   -2.807518   -1.487104
     21          6           0        3.538544   -1.871922   -0.238721
     22          6           0       -1.913251    2.999152   -0.026692
     23          6           0        4.986552   -1.653056   -0.547886
     24          6           0       -5.094696    1.031149    0.325880
     25          6           0        2.624215   -1.062693    0.346164
     26          6           0        1.409491   -3.804028    1.765863
     27          6           0        4.214082   -3.742466   -1.419624
     28          6           0       -2.231605   -4.468990    1.029519
     29          6           0       -5.317072   -0.038240   -0.911094
     30          6           0       -4.376677    3.908770   -0.546353
     31          6           0       -1.126802    4.009313   -0.390710
     32          6           0        6.752690   -3.495091   -0.998533
     33          6           0        5.831541   -0.645982   -0.048404
     34          6           0        0.313789    3.927253   -0.211579
     35          6           0        1.288634    5.046200   -0.421512
     36          6           0        2.512888    4.542825   -0.200687
     37          6           0       -3.257287   -4.039972    0.034937
     38          6           0        5.459401    0.422075    0.825207
     39          6           0       -6.835113   -0.421445   -0.844944
     40          6           0        3.804715    5.274998   -0.288887
     41          6           0        2.297423    3.071895    0.123723
     42          6           0        0.931346    6.459280   -0.900555
     43          6           0        4.229642    5.378711    1.143491
     44          1           0        0.335964    0.374747    0.087280
     45          1           0       -3.082321   -1.093932    1.212053
     46          1           0       -2.542303   -2.741091    2.425119
     47          1           0       -1.092126   -3.864924    2.852779
     48          1           0        5.432719   -2.597715   -2.587435
     49          1           0       -5.375789    0.427148    1.135196
     50          1           0       -5.862449    1.914324    0.176862
     51          1           0        3.024912   -0.036290    0.612214
     52          1           0       -0.363367    1.803718    0.858716
     53          1           0        1.302939   -4.517092    0.941138
     54          1           0        2.502106   -3.645522    2.138416
     55          1           0        0.998770   -4.321702    2.679572
     56          1           0        2.242059   -3.334239   -0.696164
     57          1           0       -1.311870   -4.870239    0.420042
     58          1           0       -2.601506   -5.226978    1.729661
     59          1           0       -4.757442   -0.920499   -0.709800
     60          1           0       -5.008026    0.421106   -1.665000
     61          1           0       -4.317930    4.776051    0.261654
     62          1           0       -5.452659    3.317147   -1.010942
     63          1           0       -4.023574    4.373440   -1.477688
     64          1           0       -1.498473    4.903884   -0.865056
     65          1           0        7.562647   -2.887187   -1.329652
     66          1           0        6.753537   -4.428927   -1.553269
     67          1           0        6.683450   -3.633828    0.157606
     68          1           0        6.916506   -0.831564   -0.408617
     69          1           0        4.604830    1.210632    0.297191
     70          1           0        6.338028    1.005436    1.231301
     71          1           0        5.048217   -0.044214    1.805953
     72          1           0        3.852433    6.277840   -0.848257
     73          1           0        4.457152    4.589327   -0.814175
     74          1           0        0.558408    6.401827   -1.921188
     75          1           0        1.679451    7.120016   -0.713910
     76          1           0        0.021714    6.775287   -0.275624
     77          1           0        3.507099    5.892218    1.758182
     78          1           0        5.097539    6.040263    1.149972
     79          1           0        4.543111    4.324365    1.818916
     80          1           0       -4.133791   -4.390898   -1.479454
     81          1           0       -8.109598   -1.609889   -1.646377
 ---------------------------------------------------------------------

 SCF Done:  E(RB3LYP) =  -1949.09495463     A.U. after   16 cycles

 Excitation energies and oscillator strengths:

 Excited State   1:      Singlet-A      1.7400 eV  712.55 nm  f=0.2409  <S**2>=0.000
     156 ->157         0.70422
     156 <-157        -0.10750
 This state for optimization and/or second-order correction.
 Total Energy, E(TD-HF/TD-DFT) =  -1949.03101066
 Copying the excited state density for this state as the 1-particle RhoCI density.

 The electronic state is 1-A.
 Alpha  occ. eigenvalues --  -19.19290 -19.19139 -19.15217 -19.12361 -19.11991
 Alpha  occ. eigenvalues --  -19.11525 -14.37447 -14.36064 -14.35833 -14.29965
 Alpha  occ. eigenvalues --  -10.33283 -10.32459 -10.29211 -10.28053 -10.23767
 Alpha  occ. eigenvalues --  -10.23449 -10.23388 -10.23062 -10.22645 -10.22227
 Alpha  occ. eigenvalues --  -10.22022 -10.21808 -10.21415 -10.20710 -10.20066
 Alpha  occ. eigenvalues --  -10.19913 -10.19902 -10.19882 -10.19721 -10.19700
 Alpha  occ. eigenvalues --  -10.19678 -10.19622 -10.19583 -10.19402 -10.19385
 Alpha  occ. eigenvalues --  -10.19217 -10.19109 -10.19061 -10.19049 -10.18656
 Alpha  occ. eigenvalues --  -10.18309 -10.18302 -10.17736  -1.12293  -1.09440
 Alpha  occ. eigenvalues --   -1.04092  -1.03982  -1.03744  -0.98419  -0.97466
 Alpha  occ. eigenvalues --   -0.96286  -0.95602  -0.92740  -0.82617  -0.82218
 Alpha  occ. eigenvalues --   -0.81208  -0.80485  -0.80435  -0.78639  -0.77212
 Alpha  occ. eigenvalues --   -0.76496  -0.76287  -0.75697  -0.74070  -0.72406
 Alpha  occ. eigenvalues --   -0.70331  -0.69558  -0.69254  -0.67939  -0.66887
 Alpha  occ. eigenvalues --   -0.65810  -0.64897  -0.63179  -0.62143  -0.61249
 Alpha  occ. eigenvalues --   -0.60085  -0.59531  -0.58621  -0.57556  -0.56677
 Alpha  occ. eigenvalues --   -0.55808  -0.54739  -0.53803  -0.53261  -0.52433
 Alpha  occ. eigenvalues --   -0.52301  -0.51637  -0.51356  -0.50696  -0.49849
 Alpha  occ. eigenvalues --   -0.49419  -0.48618  -0.48228  -0.47851  -0.47491
 Alpha  occ. eigenvalues --   -0.47303  -0.47025  -0.46584  -0.45960  -0.45810
 Alpha  occ. eigenvalues --   -0.45239  -0.44952  -0.44430  -0.44006  -0.43527
 Alpha  occ. eigenvalues --   -0.43104  -0.42910  -0.42814  -0.42683  -0.42596
 Alpha  occ. eigenvalues --   -0.42132  -0.41855  -0.41622  -0.41154  -0.40578
 Alpha  occ. eigenvalues --   -0.40515  -0.40343  -0.40268  -0.40156  -0.39844
 Alpha  occ. eigenvalues --   -0.39514  -0.39057  -0.38946  -0.38481  -0.38289
 Alpha  occ. eigenvalues --   -0.37708  -0.37468  -0.37383  -0.36903  -0.36492
 Alpha  occ. eigenvalues --   -0.36234  -0.35405  -0.35368  -0.34743  -0.34554
 Alpha  occ. eigenvalues --   -0.34310  -0.34018  -0.33787  -0.33362  -0.33155
 Alpha  occ. eigenvalues --   -0.32580  -0.31670  -0.31572  -0.30637  -0.30244
 Alpha  occ. eigenvalues --   -0.28579  -0.27835  -0.25927  -0.25552  -0.25261
 Alpha  occ. eigenvalues --   -0.24803  -0.24527  -0.24154  -0.23544  -0.21351
 Alpha  occ. eigenvalues --   -0.16901
 Alpha virt. eigenvalues --   -0.09726  -0.05288  -0.03017  -0.01043   0.00001
 Alpha virt. eigenvalues --    0.00451   0.02006   0.02693   0.02909   0.03356
 Alpha virt. eigenvalues --    0.04555   0.04811   0.04930   0.05622   0.06133

 Mulliken charges:
               1
     1  O   -0.187001
     2  O   -0.196419
     3  O   -0.190801
     4  O   -0.171246
     5  O   -0.275290
     6  O   -0.177306
     7  N   -0.118228
     8  N   -0.177416
     9  N   -0.070660
    10  N   -0.305123
    11  C   -0.096472
    12  C    0.090103
    13  C   -0.091294
    14  C    0.042244
    15  C   -0.072419
    16  C    0.094054
    17  C   -0.071111
    18  C   -0.126979
    19  C    0.004290
    20  C   -0.081941
    21  C    0.056930
    22  C    0.150194
    23  C   -0.071625
    24  C    0.033101
    25  C   -0.133531
    26  C    0.039122
    27  C    0.107982
    28  C    0.010278
    29  C    0.079108
    30  C    0.028795
    31  C   -0.142652
    32  C    0.083454
    33  C   -0.110035
    34  C    0.053270
    35  C   -0.134115
    36  C   -0.207808
    37  C    0.135476
    38  C   -0.037354
    39  C    0.149725
    40  C    0.106798
    41  C    0.177149
    42  C    0.162826
    43  C   -0.043749
    44  H    0.146094
    45  H    0.017688
    46  H    0.023032
    47  H    0.013192
    48  H    0.045605
    49  H   -0.006425
    50  H    0.042968
    51  H    0.030671
    52  H    0.221527
    53  H    0.026816
    54  H    0.047486
    55  H    0.011258
    56  H    0.094928
    57  H    0.047147
    58  H    0.050980
    59  H    0.035425
    60  H   -0.034507
    61  H    0.058368
    62  H    0.052530
    63  H    0.016709
    64  H   -0.040063
    65  H    0.014998
    66  H    0.024368
    67  H    0.038376
    68  H    0.000662
    69  H    0.147632
    70  H    0.006154
    71  H    0.039371
    72  H    0.023750
    73  H    0.005472
    74  H    0.028992
    75  H   -0.007722
    76  H    0.018330
    77  H    0.006212
    78  H   -0.002055
    79  H    0.063468
    80  H    0.166737
    81  H    0.209500
 Sum of Mulliken charges =  -0.00000

 Dipole moment (field-independent basis, Debye):
    X=             -1.3627    Y=              1.5735    Z=             -0.6135  Tot=              2.1701
 Quadrupole moment (field-independent basis, Debye-Ang):
   XX=           -256.0706   YY=           -238.4247   ZZ=           -253.0158
   XY=             25.7921   XZ=             13.8602   YZ=            -16.8494

 Normal termination of Gaussian 16 at Wed Jul  3 05:30:24 2019.
