 Gaussian 16, Revision A.03,
 Gaussian 16:  ES64L-G16RevA.03 25-Dec-2016

 --------------------------
 # td=(NStates=1) B3LYP/SVP
 --------------------------

 --
 TD
 --
 Symbolic Z-matrix:
 Charge =  0 Multiplicity = 1

                         Standard orientation:
 ---------------------------------------------------------------------
 Center     Atomic      Atomic             Coordinates (Angstroms)
 Number     Number       Type             X           Y           Z
 ---------------------------------------------------------------------
      1          8           0        4.389478   -4.848118   -1.770061
      2          8           0       -2.790870   -4.700252   -1.283620
      3          8           0       -6.889357   -1.640155   -1.806966
      4          8           0       -3.769502   -3.243433    0.071360
      5          8           0       -7.691028   -0.521658   -0.088132
      6          8           0        2.989178    2.400858    0.485911
      7          7           0        0.235897   -0.520374    0.471386
      8          7           0       -1.479806    1.739244    0.356968
      9          7           0        3.323807   -3.117021   -0.775255
     10          7           0        0.768998    2.889061    0.178380
     11          6           0       -0.643380   -2.365766    1.460568
     12          6           0       -0.919096   -1.082058    0.973818
     13          6           0        0.792873   -2.553343    1.324996
     14          6           0        1.306319   -1.346748    0.678326
     15          6           0       -3.841848    1.514773    0.322381
     16          6           0       -2.539122    0.889224    0.621448
     17          6           0       -2.275337   -0.474567    0.871309
     18          6           0       -3.564828    2.822870   -0.060962
     19          6           0       -1.558689   -3.418591    2.021526
     20          6           0        5.629024   -2.731253   -1.373793
     21          6           0        3.568653   -1.788254   -0.284910
     22          6           0       -2.095470    2.907670    0.015504
     23          6           0        5.060348   -1.574649   -0.506410
     24          6           0       -5.115881    0.635096    0.416577
     25          6           0        2.676493   -1.030307    0.366219
     26          6           0        1.491858   -3.789492    1.773731
     27          6           0        4.363634   -3.770718   -1.397082
     28          6           0       -1.941435   -4.496860    1.039013
     29          6           0       -5.413341   -0.165346   -0.881838
     30          6           0       -4.536491    3.823721   -0.451739
     31          6           0       -1.243015    4.124639   -0.182758
     32          6           0        6.787847   -3.533078   -0.664550
     33          6           0        5.751619   -0.462692   -0.143326
     34          6           0        0.111794    4.010931   -0.147743
     35          6           0        1.000321    5.149487   -0.435248
     36          6           0        2.226392    4.699997   -0.180721
     37          6           0       -2.921330   -4.096645   -0.036455
     38          6           0        5.334358    0.646205    0.738667
     39          6           0       -6.835197   -0.711661   -0.922972
     40          6           0        3.588999    5.368499   -0.485683
     41          6           0        2.093107    3.164681    0.143988
     42          6           0        0.506534    6.544103   -0.841683
     43          6           0        4.339931    5.767035    0.835525
     44          1           0        0.140291    0.413611    0.174032
     45          1           0       -2.950771   -1.260856    0.900784
     46          1           0       -2.617829   -2.951657    2.459204
     47          1           0       -1.021029   -3.758700    2.831320
     48          1           0        5.863688   -2.450048   -2.322175
     49          1           0       -5.000994   -0.069200    1.415677
     50          1           0       -6.172669    1.252229    0.675405
     51          1           0        2.821655    0.103985    0.718209
     52          1           0       -0.543838    1.738526    0.593202
     53          1           0        1.516172   -4.634508    0.981939
     54          1           0        2.439937   -3.620955    2.311508
     55          1           0        0.544869   -4.236478    2.434086
     56          1           0        2.433521   -3.571455   -0.793827
     57          1           0       -1.242810   -4.927535    0.639861
     58          1           0       -2.551116   -5.260169    1.630171
     59          1           0       -4.615670   -1.146051   -0.787296
     60          1           0       -5.290341    0.567923   -1.885019
     61          1           0       -4.236181    4.630919    0.183122
     62          1           0       -5.533366    3.478163   -0.126902
     63          1           0       -4.518426    4.071047   -1.645301
     64          1           0       -1.633871    5.140397   -0.396789
     65          1           0        7.689085   -2.931645   -0.757591
     66          1           0        6.861389   -4.358137   -1.196017
     67          1           0        6.853380   -3.829433    0.452267
     68          1           0        6.713312   -0.399790   -0.655506
     69          1           0        4.672767    1.438314    0.082019
     70          1           0        6.234335    1.139386    1.283344
     71          1           0        4.781121    0.306063    1.629945
     72          1           0        3.477316    6.212075   -1.271658
     73          1           0        4.143435    4.407545   -1.017988
     74          1           0       -0.200085    6.349732   -1.722658
     75          1           0        1.467036    6.941145   -1.302312
     76          1           0        0.279679    7.176448    0.036893
     77          1           0        3.839978    6.646251    1.442232
     78          1           0        5.278495    6.246753    0.812635
     79          1           0        4.404502    4.912073    1.580240
     80          1           0       -3.486620   -4.183716   -1.887286
     81          1           0       -7.799673   -2.157978   -1.622393
 ---------------------------------------------------------------------

 SCF Done:  E(RB3LYP) =  -1949.07359080     A.U. after   16 cycles

 Excitation energies and oscillator strengths:

 Excited State   1:      Singlet-A      1.8601 eV  666.53 nm  f=0.2665  <S**2>=0.000
     156 ->157         0.70351
 This state for optimization and/or second-order correction.
 Total Energy, E(TD-HF/TD-DFT) =  -1949.00523190
 Copying the excited state density for this state as the 1-particle RhoCI density.

 The electronic state is 1-A.
 Alpha  occ. eigenvalues --  -19.20095 -19.19521 -19.14811 -19.12718 -19.11333
 Alpha  occ. eigenvalues --  -19.09658 -14.37790 -14.37407 -14.35971 -14.27899
 Alpha  occ. eigenvalues --  -10.34071 -10.32161 -10.28326 -10.25978 -10.25965
 Alpha  occ. eigenvalues --  -10.24294 -10.24247 -10.23784 -10.23565 -10.23296
 Alpha  occ. eigenvalues --  -10.22885 -10.22198 -10.22139 -10.21923 -10.21638
 Alpha  occ. eigenvalues --  -10.21424 -10.21377 -10.21368 -10.21026 -10.20996
 Alpha  occ. eigenvalues --  -10.20326 -10.19821 -10.19725 -10.19637 -10.19205
 Alpha  occ. eigenvalues --  -10.18849 -10.18664 -10.18618 -10.18527 -10.18378
 Alpha  occ. eigenvalues --  -10.18353 -10.17533 -10.17372  -1.12122  -1.10232
 Alpha  occ. eigenvalues --   -1.07167  -1.01044  -1.00778  -1.00729  -0.99896
 Alpha  occ. eigenvalues --   -0.98115  -0.93879  -0.91880  -0.83820  -0.82984
 Alpha  occ. eigenvalues --   -0.80722  -0.79908  -0.79086  -0.78724  -0.78044
 Alpha  occ. eigenvalues --   -0.76851  -0.75684  -0.74252  -0.73228  -0.72518
 Alpha  occ. eigenvalues --   -0.71654  -0.69728  -0.68996  -0.68270  -0.67573
 Alpha  occ. eigenvalues --   -0.67165  -0.65049  -0.62785  -0.61714  -0.61573
 Alpha  occ. eigenvalues --   -0.59978  -0.59547  -0.58199  -0.58092  -0.57714
 Alpha  occ. eigenvalues --   -0.55896  -0.55068  -0.54448  -0.53668  -0.53388
 Alpha  occ. eigenvalues --   -0.52137  -0.51544  -0.51030  -0.50072  -0.49607
 Alpha  occ. eigenvalues --   -0.49407  -0.49259  -0.48917  -0.48271  -0.48119
 Alpha  occ. eigenvalues --   -0.47231  -0.46268  -0.46047  -0.45499  -0.45248
 Alpha  occ. eigenvalues --   -0.44987  -0.44838  -0.44499  -0.44094  -0.43758
 Alpha  occ. eigenvalues --   -0.43435  -0.43148  -0.42794  -0.42597  -0.42266
 Alpha  occ. eigenvalues --   -0.41916  -0.41807  -0.41368  -0.41271  -0.40995
 Alpha  occ. eigenvalues --   -0.40802  -0.40330  -0.40113  -0.40015  -0.39607
 Alpha  occ. eigenvalues --   -0.39376  -0.38746  -0.38687  -0.38383  -0.38263
 Alpha  occ. eigenvalues --   -0.37857  -0.37657  -0.37215  -0.36694  -0.36517
 Alpha  occ. eigenvalues --   -0.35967  -0.35704  -0.35372  -0.34748  -0.34247
 Alpha  occ. eigenvalues --   -0.33713  -0.33646  -0.33236  -0.33081  -0.33025
 Alpha  occ. eigenvalues --   -0.32439  -0.31249  -0.31129  -0.30098  -0.29227
 Alpha  occ. eigenvalues --   -0.28571  -0.27271  -0.26845  -0.25742  -0.25388
 Alpha  occ. eigenvalues --   -0.25089  -0.24229  -0.23730  -0.23161  -0.21484
 Alpha  occ. eigenvalues --   -0.18269
 Alpha virt. eigenvalues --   -0.10452  -0.04689  -0.03129  -0.02439  -0.00581
 Alpha virt. eigenvalues --    0.01582   0.01915   0.02338   0.02745   0.03207
 Alpha virt. eigenvalues --    0.03613   0.03932   0.04896   0.05108   0.05498

 Mulliken charges:
               1
     1  O   -0.129552
     2  O   -0.250355
     3  O   -0.168000
     4  O   -0.228664
     5  O   -0.237932
     6  O   -0.230559
     7  N    0.002071
     8  N   -0.030040
     9  N   -0.135689
    10  N   -0.277829
    11  C   -0.104196
    12  C   -0.051268
    13  C   -0.149689
    14  C    0.039656
    15  C   -0.014331
    16  C    0.101347
    17  C   -0.005192
    18  C   -0.157792
    19  C    0.064286
    20  C   -0.075682
    21  C    0.188368
    22  C    0.075603
    23  C   -0.019585
    24  C   -0.044868
    25  C   -0.198298
    26  C    0.024069
    27  C    0.092154
    28  C    0.219449
    29  C   -0.116661
    30  C    0.087976
    31  C   -0.149596
    32  C    0.083969
    33  C   -0.128377
    34  C    0.093257
    35  C   -0.137149
    36  C   -0.175847
    37  C    0.107748
    38  C    0.013676
    39  C    0.135851
    40  C   -0.005670
    41  C    0.151165
    42  C    0.106782
    43  C   -0.012151
    44  H    0.082604
    45  H   -0.030103
    46  H    0.040579
    47  H    0.000573
    48  H    0.004470
    49  H    0.059716
    50  H    0.058008
    51  H    0.090701
    52  H    0.112010
    53  H    0.038365
    54  H    0.054322
    55  H    0.003331
    56  H    0.113186
    57  H   -0.086959
    58  H    0.051844
    59  H    0.106327
    60  H    0.068800
    61  H    0.026964
    62  H    0.019037
    63  H    0.060067
    64  H   -0.022891
    65  H   -0.001689
    66  H   -0.012173
    67  H    0.025508
    68  H   -0.016401
    69  H    0.116294
    70  H    0.008398
    71  H    0.023898
    72  H    0.026767
    73  H    0.044796
    74  H    0.040012
    75  H    0.005596
    76  H    0.050805
    77  H    0.001444
    78  H   -0.002783
    79  H    0.041053
    80  H    0.226478
    81  H    0.218591
 Sum of Mulliken charges =  -0.00000

 Dipole moment (field-independent basis, Debye):
    X=             -4.4820    Y=              0.0645    Z=             -0.9873  Tot=              4.5899
 Quadrupole moment (field-independent basis, Debye-Ang):
   XX=           -256.2183   YY=           -241.7698   ZZ=           -252.2519
   XY=             16.9062   XZ=             13.7975   YZ=            -12.9700

 Normal termination of Gaussian 16 at Thu Jun 27 17:30:34 2019.
