 Gaussian 16, Revision A.03,
 Gaussian 16:  ES64L-G16RevA.03 25-Dec-2016

 --------------------------
 # td=(NStates=1) B3LYP/SVP
 --------------------------

 --
 TD
 --
 Symbolic Z-matrix:
 Charge =  0 Multiplicity = 1

                         Standard orientation:
 ---------------------------------------------------------------------
 Center     Atomic      Atomic             Coordinates (Angstroms)
 Number     Number       Type             X           Y           Z
 ---------------------------------------------------------------------
      1          8           0        4.323755   -4.869912   -1.651446
      2          8           0       -2.968623   -4.947429   -1.044807
      3          8           0       -6.939441   -1.391922   -2.032898
      4          8           0       -3.814629   -3.170324   -0.072727
      5          8           0       -7.515531   -0.654602    0.081046
      6          8           0        3.034704    2.319695    0.205703
      7          7           0        0.177229   -0.534685    0.549491
      8          7           0       -1.545136    1.883586    0.362055
      9          7           0        3.286595   -3.230939   -0.687273
     10          7           0        0.825717    2.950544   -0.029098
     11          6           0       -0.700013   -2.351805    1.448142
     12          6           0       -0.956831   -1.080560    0.917817
     13          6           0        0.708036   -2.598931    1.259957
     14          6           0        1.222052   -1.404375    0.736792
     15          6           0       -3.793979    1.562996    0.389611
     16          6           0       -2.536296    0.889539    0.591382
     17          6           0       -2.180300   -0.368813    0.882926
     18          6           0       -3.505740    2.798737    0.000251
     19          6           0       -1.802559   -3.238217    2.086798
     20          6           0        5.431603   -2.809992   -1.411362
     21          6           0        3.644704   -1.907979   -0.207183
     22          6           0       -2.119592    3.024553   -0.024427
     23          6           0        4.981857   -1.612447   -0.443046
     24          6           0       -5.052155    0.769848    0.477414
     25          6           0        2.647653   -1.019377    0.404296
     26          6           0        1.426304   -3.891900    1.694800
     27          6           0        4.395285   -3.833211   -1.182370
     28          6           0       -2.186318   -4.475067    1.136877
     29          6           0       -5.333719   -0.032347   -0.876777
     30          6           0       -4.601465    3.858957   -0.449590
     31          6           0       -1.336652    4.185323   -0.397177
     32          6           0        6.837750   -3.309829   -1.110244
     33          6           0        5.849253   -0.670678   -0.067598
     34          6           0        0.130073    4.014482   -0.314458
     35          6           0        1.062959    5.093494   -0.444217
     36          6           0        2.361630    4.674801   -0.172337
     37          6           0       -3.102531   -4.091538   -0.005379
     38          6           0        5.570471    0.587453    0.824874
     39          6           0       -6.699611   -0.632184   -0.945191
     40          6           0        3.695653    5.303732   -0.216915
     41          6           0        2.172931    3.187829    0.016214
     42          6           0        0.739946    6.516038   -0.967696
     43          6           0        4.298293    5.542728    1.165995
     44          1           0        0.402119    0.355501    0.161062
     45          1           0       -3.159691   -0.922091    0.971372
     46          1           0       -2.618225   -2.740211    2.431542
     47          1           0       -1.327264   -3.769038    3.019805
     48          1           0        5.267177   -2.360378   -2.304353
     49          1           0       -4.906128   -0.129624    1.174290
     50          1           0       -5.721293    1.481945    0.724623
     51          1           0        2.857105    0.117958    0.454866
     52          1           0       -0.430076    1.925387    0.469322
     53          1           0        1.364437   -4.671146    0.928503
     54          1           0        2.499132   -3.440237    1.775021
     55          1           0        1.146073   -4.431470    2.654261
     56          1           0        2.261462   -3.448589   -1.120531
     57          1           0       -1.137774   -5.079721    0.895680
     58          1           0       -2.709314   -5.411728    1.684847
     59          1           0       -4.498248   -0.722465   -0.993464
     60          1           0       -5.245541    0.680905   -1.739442
     61          1           0       -4.366419    4.888973    0.131049
     62          1           0       -5.549906    3.622572   -0.358621
     63          1           0       -4.572959    4.117348   -1.505647
     64          1           0       -1.717228    5.116905   -0.262118
     65          1           0        7.637714   -2.594420   -1.128214
     66          1           0        6.996167   -4.250094   -1.830667
     67          1           0        6.654921   -3.768269   -0.067203
     68          1           0        6.903431   -0.785386   -0.373166
     69          1           0        5.221169    1.455489    0.177047
     70          1           0        6.411726    0.939007    1.393955
     71          1           0        4.627477    0.392028    1.573793
     72          1           0        3.642516    6.339010   -0.828847
     73          1           0        4.254160    4.491118   -0.741304
     74          1           0       -0.220390    6.534536   -1.640495
     75          1           0        1.634391    7.086933   -1.107182
     76          1           0        0.226982    6.871872    0.068435
     77          1           0        3.512218    5.969466    1.916476
     78          1           0        5.269333    6.138599    1.288857
     79          1           0        4.852473    4.557024    1.625080
     80          1           0       -3.446628   -4.577347   -1.814577
     81          1           0       -7.799972   -1.831488   -1.738325
 ---------------------------------------------------------------------

 SCF Done:  E(RB3LYP) =  -1949.08672744     A.U. after   16 cycles

 Excitation energies and oscillator strengths:

 Excited State   1:      Singlet-A      1.8097 eV  685.13 nm  f=0.2524  <S**2>=0.000
     156 ->157         0.70562
 This state for optimization and/or second-order correction.
 Total Energy, E(TD-HF/TD-DFT) =  -1949.02022373
 Copying the excited state density for this state as the 1-particle RhoCI density.

 The electronic state is 1-A.
 Alpha  occ. eigenvalues --  -19.20151 -19.18294 -19.14393 -19.12714 -19.11196
 Alpha  occ. eigenvalues --  -19.10559 -14.37750 -14.36360 -14.35603 -14.29268
 Alpha  occ. eigenvalues --  -10.33315 -10.33060 -10.27588 -10.27117 -10.24537
 Alpha  occ. eigenvalues --  -10.24186 -10.23663 -10.23541 -10.23424 -10.22922
 Alpha  occ. eigenvalues --  -10.22883 -10.21924 -10.21633 -10.21391 -10.21014
 Alpha  occ. eigenvalues --  -10.20613 -10.20509 -10.20392 -10.20387 -10.20263
 Alpha  occ. eigenvalues --  -10.20165 -10.20141 -10.20102 -10.20020 -10.20014
 Alpha  occ. eigenvalues --  -10.19970 -10.19852 -10.19606 -10.19369 -10.19344
 Alpha  occ. eigenvalues --  -10.19192 -10.18711 -10.18710  -1.11882  -1.09522
 Alpha  occ. eigenvalues --   -1.07613  -1.02675  -1.01558  -1.00438  -0.98261
 Alpha  occ. eigenvalues --   -0.96736  -0.94251  -0.93683  -0.83177  -0.81447
 Alpha  occ. eigenvalues --   -0.81345  -0.81081  -0.79553  -0.78009  -0.77500
 Alpha  occ. eigenvalues --   -0.76544  -0.76103  -0.74900  -0.73280  -0.71863
 Alpha  occ. eigenvalues --   -0.71151  -0.69242  -0.69158  -0.68494  -0.67936
 Alpha  occ. eigenvalues --   -0.67271  -0.65333  -0.64271  -0.62272  -0.61438
 Alpha  occ. eigenvalues --   -0.60408  -0.59725  -0.59223  -0.57419  -0.57325
 Alpha  occ. eigenvalues --   -0.56697  -0.55963  -0.55251  -0.53990  -0.53178
 Alpha  occ. eigenvalues --   -0.52400  -0.51927  -0.51192  -0.50548  -0.49897
 Alpha  occ. eigenvalues --   -0.49609  -0.49185  -0.48807  -0.48584  -0.48023
 Alpha  occ. eigenvalues --   -0.47209  -0.46326  -0.46107  -0.45700  -0.45253
 Alpha  occ. eigenvalues --   -0.44705  -0.44558  -0.44406  -0.44196  -0.43868
 Alpha  occ. eigenvalues --   -0.43511  -0.42922  -0.42842  -0.42592  -0.42322
 Alpha  occ. eigenvalues --   -0.41877  -0.41514  -0.41273  -0.41084  -0.40637
 Alpha  occ. eigenvalues --   -0.40571  -0.39991  -0.39852  -0.39411  -0.39227
 Alpha  occ. eigenvalues --   -0.39141  -0.39000  -0.38872  -0.38665  -0.38502
 Alpha  occ. eigenvalues --   -0.38230  -0.38034  -0.37764  -0.37314  -0.36911
 Alpha  occ. eigenvalues --   -0.36463  -0.35932  -0.35791  -0.35072  -0.34653
 Alpha  occ. eigenvalues --   -0.34419  -0.34234  -0.33766  -0.33198  -0.32997
 Alpha  occ. eigenvalues --   -0.31707  -0.31251  -0.30960  -0.30572  -0.30055
 Alpha  occ. eigenvalues --   -0.27799  -0.27440  -0.27044  -0.26322  -0.25765
 Alpha  occ. eigenvalues --   -0.25172  -0.25089  -0.24664  -0.22838  -0.21448
 Alpha  occ. eigenvalues --   -0.18236
 Alpha virt. eigenvalues --   -0.10606  -0.06672  -0.04789  -0.02879  -0.00716
 Alpha virt. eigenvalues --   -0.00270   0.02421   0.02992   0.03873   0.04351
 Alpha virt. eigenvalues --    0.04486   0.04780   0.05438   0.05512   0.05792

 Mulliken charges:
               1
     1  O   -0.129861
     2  O   -0.196572
     3  O   -0.181541
     4  O   -0.176478
     5  O   -0.325037
     6  O   -0.218010
     7  N    0.014670
     8  N   -0.168079
     9  N   -0.174882
    10  N   -0.274187
    11  C   -0.108388
    12  C    0.073473
    13  C   -0.157447
    14  C   -0.014353
    15  C   -0.034460
    16  C   -0.004891
    17  C   -0.034441
    18  C   -0.149834
    19  C    0.156746
    20  C   -0.047800
    21  C    0.071848
    22  C    0.070201
    23  C    0.016347
    24  C    0.142052
    25  C   -0.127589
    26  C    0.046409
    27  C    0.065342
    28  C   -0.113360
    29  C   -0.001104
    30  C    0.127151
    31  C   -0.054479
    32  C    0.024726
    33  C   -0.153122
    34  C    0.071315
    35  C   -0.161572
    36  C   -0.164264
    37  C    0.141620
    38  C    0.006538
    39  C    0.199984
    40  C    0.063948
    41  C    0.147983
    42  C    0.079623
    43  C   -0.078505
    44  H    0.115472
    45  H    0.004218
    46  H   -0.012144
    47  H    0.016814
    48  H    0.016308
    49  H    0.039957
    50  H   -0.014538
    51  H    0.065343
    52  H    0.185435
    53  H    0.025569
    54  H    0.050429
    55  H    0.028876
    56  H    0.192717
    57  H    0.061995
    58  H    0.061996
    59  H    0.053730
    60  H    0.033270
    61  H    0.033911
    62  H   -0.033997
    63  H    0.015427
    64  H   -0.041559
    65  H    0.028628
    66  H    0.044714
    67  H    0.023720
    68  H   -0.007869
    69  H    0.067302
    70  H    0.004210
    71  H    0.048729
    72  H    0.022416
    73  H    0.032314
    74  H    0.047681
    75  H    0.015706
    76  H    0.031591
    77  H    0.035557
    78  H    0.018864
    79  H    0.034984
    80  H    0.181362
    81  H    0.201146
 Sum of Mulliken charges =  -0.00000

 Dipole moment (field-independent basis, Debye):
    X=             -2.1447    Y=              1.2309    Z=             -1.4022  Tot=              2.8427
 Quadrupole moment (field-independent basis, Debye-Ang):
   XX=           -257.0124   YY=           -245.5752   ZZ=           -253.3118
   XY=             14.5194   XZ=             13.4049   YZ=             -7.1440

 Normal termination of Gaussian 16 at Sun Jun 30 05:18:09 2019.
