 Gaussian 16, Revision A.03,
 Gaussian 16:  ES64L-G16RevA.03 25-Dec-2016

 --------------------------
 # td=(NStates=1) B3LYP/SVP
 --------------------------

 --
 TD
 --
 Symbolic Z-matrix:
 Charge =  0 Multiplicity = 1

                         Standard orientation:
 ---------------------------------------------------------------------
 Center     Atomic      Atomic             Coordinates (Angstroms)
 Number     Number       Type             X           Y           Z
 ---------------------------------------------------------------------
      1          8           0        3.850609   -5.053820   -1.806119
      2          8           0       -3.241526   -4.576804   -1.082102
      3          8           0       -6.859078   -1.285779   -2.060685
      4          8           0       -4.068658   -2.941787    0.292393
      5          8           0       -7.560271   -0.490902   -0.059748
      6          8           0        3.179100    2.200098    0.411737
      7          7           0        0.160512   -0.546815    0.534031
      8          7           0       -1.444010    1.931835    0.447821
      9          7           0        3.069073   -3.188724   -0.686498
     10          7           0        0.992980    2.856782    0.131988
     11          6           0       -0.773288   -2.371430    1.415896
     12          6           0       -1.090462   -1.105366    0.921209
     13          6           0        0.598005   -2.656515    1.260363
     14          6           0        1.148146   -1.490388    0.644142
     15          6           0       -3.718107    1.719374    0.264083
     16          6           0       -2.445349    1.009694    0.703660
     17          6           0       -2.297697   -0.377774    0.856684
     18          6           0       -3.375006    3.009458   -0.071075
     19          6           0       -1.827590   -3.259475    2.130311
     20          6           0        5.338443   -3.061523   -1.430230
     21          6           0        3.496310   -2.008468   -0.166524
     22          6           0       -1.953325    3.076820    0.015534
     23          6           0        4.841906   -1.771318   -0.520347
     24          6           0       -5.056295    1.065411    0.236796
     25          6           0        2.571041   -1.057471    0.379520
     26          6           0        1.366178   -3.881874    1.651795
     27          6           0        4.042342   -3.924445   -1.381353
     28          6           0       -2.277374   -4.390588    1.166388
     29          6           0       -5.353008    0.122870   -0.873162
     30          6           0       -4.195680    4.216731   -0.413983
     31          6           0       -1.045990    4.163757   -0.334740
     32          6           0        6.631033   -3.840765   -0.940215
     33          6           0        5.719740   -0.795387   -0.117374
     34          6           0        0.341681    3.930150   -0.180778
     35          6           0        1.341207    5.123425   -0.485683
     36          6           0        2.566533    4.503145   -0.267902
     37          6           0       -3.297417   -3.858156    0.080922
     38          6           0        5.561492    0.405042    0.699214
     39          6           0       -6.637578   -0.529776   -0.974822
     40          6           0        3.870289    5.163945   -0.253142
     41          6           0        2.396300    3.106795    0.199219
     42          6           0        1.068562    6.491962   -0.820138
     43          6           0        4.569684    5.276700    1.000476
     44          1           0        0.341195    0.415258    0.265651
     45          1           0       -3.089089   -1.126740    1.084755
     46          1           0       -2.784042   -2.734993    2.220133
     47          1           0       -1.383524   -3.799673    2.982971
     48          1           0        5.591273   -2.530522   -2.508070
     49          1           0       -5.288861    0.591676    1.105424
     50          1           0       -5.694612    1.899960    0.202578
     51          1           0        2.613947    0.093306    0.647819
     52          1           0       -0.440983    1.983042    0.562510
     53          1           0        1.299735   -4.813746    0.920342
     54          1           0        2.394265   -3.727370    1.760082
     55          1           0        0.829755   -4.166928    2.768514
     56          1           0        2.241288   -3.631776   -0.499361
     57          1           0       -1.361255   -4.860778    0.622707
     58          1           0       -3.007123   -5.233963    1.721563
     59          1           0       -4.611425   -0.495088   -0.778919
     60          1           0       -4.985088    0.847562   -1.712075
     61          1           0       -4.332423    5.033456    0.550395
     62          1           0       -5.122285    3.759709   -0.594022
     63          1           0       -4.189112    4.648043   -1.408350
     64          1           0       -1.676829    5.037350   -0.630608
     65          1           0        7.500428   -3.110974   -0.900417
     66          1           0        6.799488   -4.603100   -1.691203
     67          1           0        6.425848   -4.327120    0.246250
     68          1           0        6.803266   -0.739325   -0.400580
     69          1           0        4.767883    1.041941    0.084168
     70          1           0        6.439705    0.953419    0.900861
     71          1           0        5.105677    0.036435    1.738551
     72          1           0        3.890178    6.274438   -0.857207
     73          1           0        4.283629    4.524205   -1.097177
     74          1           0        0.320067    6.652967   -1.564807
     75          1           0        2.187891    6.887998   -1.089956
     76          1           0        0.777528    7.108032    0.069792
     77          1           0        4.167371    6.140179    1.556404
     78          1           0        5.647983    5.344462    0.914412
     79          1           0        4.505717    4.363815    1.589869
     80          1           0       -3.831905   -4.192416   -1.740685
     81          1           0       -7.735222   -1.749693   -1.965983
 ---------------------------------------------------------------------

 SCF Done:  E(RB3LYP) =  -1949.08234611     A.U. after   16 cycles

 Excitation energies and oscillator strengths:

 Excited State   1:      Singlet-A      1.7661 eV  702.03 nm  f=0.2902  <S**2>=0.000
     156 ->157         0.70528
 This state for optimization and/or second-order correction.
 Total Energy, E(TD-HF/TD-DFT) =  -1949.01744416
 Copying the excited state density for this state as the 1-particle RhoCI density.

 The electronic state is 1-A.
 Alpha  occ. eigenvalues --  -19.19893 -19.19257 -19.15105 -19.11901 -19.11600
 Alpha  occ. eigenvalues --  -19.11415 -14.37101 -14.36924 -14.36220 -14.28941
 Alpha  occ. eigenvalues --  -10.34243 -10.32915 -10.29910 -10.27567 -10.24866
 Alpha  occ. eigenvalues --  -10.24224 -10.23656 -10.23652 -10.23340 -10.23061
 Alpha  occ. eigenvalues --  -10.22930 -10.22726 -10.22017 -10.21908 -10.21603
 Alpha  occ. eigenvalues --  -10.21416 -10.21369 -10.20886 -10.20390 -10.20369
 Alpha  occ. eigenvalues --  -10.20296 -10.20255 -10.20017 -10.19929 -10.19912
 Alpha  occ. eigenvalues --  -10.19885 -10.19878 -10.19700 -10.19046 -10.18626
 Alpha  occ. eigenvalues --  -10.18567 -10.18040 -10.17429  -1.10570  -1.09048
 Alpha  occ. eigenvalues --   -1.03638  -1.02647  -1.02562  -0.99341  -0.97252
 Alpha  occ. eigenvalues --   -0.96459  -0.96143  -0.91954  -0.83944  -0.82038
 Alpha  occ. eigenvalues --   -0.81102  -0.80840  -0.80580  -0.79469  -0.77802
 Alpha  occ. eigenvalues --   -0.76674  -0.76170  -0.75515  -0.74176  -0.72452
 Alpha  occ. eigenvalues --   -0.71772  -0.70016  -0.69483  -0.69073  -0.68135
 Alpha  occ. eigenvalues --   -0.67405  -0.65051  -0.63836  -0.62404  -0.62061
 Alpha  occ. eigenvalues --   -0.60970  -0.60588  -0.58971  -0.57627  -0.57096
 Alpha  occ. eigenvalues --   -0.56575  -0.55739  -0.54841  -0.54210  -0.53729
 Alpha  occ. eigenvalues --   -0.52860  -0.52152  -0.51313  -0.50774  -0.50171
 Alpha  occ. eigenvalues --   -0.49568  -0.48615  -0.48016  -0.47623  -0.47544
 Alpha  occ. eigenvalues --   -0.47294  -0.46892  -0.45732  -0.45626  -0.45564
 Alpha  occ. eigenvalues --   -0.45107  -0.44953  -0.44321  -0.44169  -0.44020
 Alpha  occ. eigenvalues --   -0.43732  -0.43108  -0.43019  -0.42774  -0.42449
 Alpha  occ. eigenvalues --   -0.41870  -0.41733  -0.41556  -0.41114  -0.41041
 Alpha  occ. eigenvalues --   -0.40921  -0.40628  -0.40499  -0.40106  -0.39906
 Alpha  occ. eigenvalues --   -0.39699  -0.39465  -0.39011  -0.38977  -0.38511
 Alpha  occ. eigenvalues --   -0.38240  -0.37732  -0.36999  -0.36849  -0.36668
 Alpha  occ. eigenvalues --   -0.36358  -0.35907  -0.35295  -0.35042  -0.34713
 Alpha  occ. eigenvalues --   -0.34268  -0.34230  -0.33724  -0.33551  -0.32232
 Alpha  occ. eigenvalues --   -0.31786  -0.30896  -0.30716  -0.30069  -0.29966
 Alpha  occ. eigenvalues --   -0.27491  -0.27143  -0.26410  -0.26298  -0.25990
 Alpha  occ. eigenvalues --   -0.25352  -0.24852  -0.24515  -0.22947  -0.21040
 Alpha  occ. eigenvalues --   -0.17691
 Alpha virt. eigenvalues --   -0.10260  -0.05920  -0.04482  -0.02140  -0.01785
 Alpha virt. eigenvalues --   -0.00998   0.01523   0.02653   0.03284   0.03649
 Alpha virt. eigenvalues --    0.04068   0.04117   0.04901   0.05152   0.05719

 Mulliken charges:
               1
     1  O   -0.213156
     2  O   -0.181428
     3  O   -0.182177
     4  O   -0.233731
     5  O   -0.313530
     6  O   -0.201134
     7  N   -0.107211
     8  N   -0.032849
     9  N   -0.061727
    10  N   -0.300100
    11  C   -0.109414
    12  C    0.014503
    13  C   -0.139614
    14  C    0.007218
    15  C   -0.175624
    16  C    0.125042
    17  C   -0.030313
    18  C   -0.121812
    19  C    0.153685
    20  C   -0.139932
    21  C    0.108398
    22  C   -0.033711
    23  C   -0.003210
    24  C    0.186703
    25  C   -0.129793
    26  C    0.012088
    27  C    0.156533
    28  C   -0.088129
    29  C    0.087141
    30  C    0.099667
    31  C   -0.110019
    32  C    0.003478
    33  C   -0.180629
    34  C    0.124948
    35  C   -0.095069
    36  C   -0.181621
    37  C    0.144803
    38  C    0.021225
    39  C    0.194294
    40  C   -0.024733
    41  C    0.184215
    42  C    0.075237
    43  C    0.076954
    44  H    0.118527
    45  H    0.027942
    46  H    0.020630
    47  H    0.015639
    48  H    0.071989
    49  H   -0.019658
    50  H   -0.019824
    51  H    0.084991
    52  H    0.125662
    53  H    0.058074
    54  H    0.016186
    55  H    0.045659
    56  H    0.092142
    57  H    0.055908
    58  H    0.071175
    59  H   -0.030085
    60  H    0.039920
    61  H    0.068737
    62  H   -0.031993
    63  H    0.019551
    64  H   -0.016876
    65  H    0.036146
    66  H    0.043657
    67  H    0.044041
    68  H    0.003199
    69  H    0.108137
    70  H   -0.003074
    71  H    0.039507
    72  H    0.009237
    73  H    0.017700
    74  H    0.022667
    75  H    0.027762
    76  H    0.032549
    77  H    0.013888
    78  H    0.000308
    79  H    0.015669
    80  H    0.184766
    81  H    0.204088
 Sum of Mulliken charges =  -0.00000

 Dipole moment (field-independent basis, Debye):
    X=             -0.8809    Y=              1.2522    Z=             -0.9005  Tot=              1.7762
 Quadrupole moment (field-independent basis, Debye-Ang):
   XX=           -251.7566   YY=           -243.9582   ZZ=           -254.5622
   XY=             13.4220   XZ=             17.5400   YZ=            -10.7522

 Normal termination of Gaussian 16 at Sun Jun 30 14:56:54 2019.
