 Gaussian 16, Revision A.03,
 Gaussian 16:  ES64L-G16RevA.03 25-Dec-2016

 --------------------------
 # td=(NStates=1) B3LYP/SVP
 --------------------------

 --
 TD
 --
 Symbolic Z-matrix:
 Charge =  0 Multiplicity = 1

                         Standard orientation:
 ---------------------------------------------------------------------
 Center     Atomic      Atomic             Coordinates (Angstroms)
 Number     Number       Type             X           Y           Z
 ---------------------------------------------------------------------
      1          8           0        4.387938   -4.732571   -1.943496
      2          8           0       -2.895496   -5.185516   -1.006237
      3          8           0       -7.179183   -1.428991   -1.969513
      4          8           0       -3.498540   -3.220839   -0.153417
      5          8           0       -7.618804   -0.510174    0.049213
      6          8           0        2.970716    2.483032    0.371647
      7          7           0        0.284032   -0.497132    0.598537
      8          7           0       -1.588397    1.759361    0.454877
      9          7           0        3.382055   -3.041584   -0.748995
     10          7           0        0.716094    2.912985   -0.021252
     11          6           0       -0.579826   -2.336832    1.460934
     12          6           0       -0.894649   -1.060937    1.017681
     13          6           0        0.828414   -2.656977    1.165086
     14          6           0        1.334262   -1.415682    0.662294
     15          6           0       -3.869997    1.440115    0.341249
     16          6           0       -2.591073    0.829680    0.665863
     17          6           0       -2.238152   -0.453834    1.037950
     18          6           0       -3.621642    2.691611   -0.110598
     19          6           0       -1.499877   -3.414899    2.053087
     20          6           0        5.658018   -2.675431   -1.301923
     21          6           0        3.647686   -1.804403   -0.164510
     22          6           0       -2.212788    3.014678    0.015913
     23          6           0        5.094278   -1.547260   -0.487497
     24          6           0       -5.141452    0.713630    0.357187
     25          6           0        2.670527   -1.035376    0.406820
     26          6           0        1.600008   -3.862733    1.549202
     27          6           0        4.419884   -3.656594   -1.432091
     28          6           0       -1.900939   -4.451248    1.126104
     29          6           0       -5.278635   -0.386748   -0.778456
     30          6           0       -4.546753    3.739217   -0.521608
     31          6           0       -1.392329    4.097814   -0.267690
     32          6           0        6.834824   -3.323097   -0.711713
     33          6           0        5.861605   -0.448857   -0.073105
     34          6           0        0.088072    3.994887   -0.205571
     35          6           0        0.999840    5.136107   -0.434463
     36          6           0        2.243295    4.707538   -0.326363
     37          6           0       -2.819578   -4.264608   -0.009358
     38          6           0        5.364857    0.718095    0.756463
     39          6           0       -6.840969   -0.798441   -0.859808
     40          6           0        3.576938    5.339519   -0.410014
     41          6           0        2.028365    3.246842    0.017260
     42          6           0        0.537488    6.575207   -0.733509
     43          6           0        4.111989    5.742899    1.013312
     44          1           0        0.389274    0.358850    0.109062
     45          1           0       -3.098195   -1.006571    1.174766
     46          1           0       -2.537161   -2.922300    2.517004
     47          1           0       -1.153891   -3.843229    3.007833
     48          1           0        6.009004   -2.125031   -2.403532
     49          1           0       -5.386381    0.274220    1.350328
     50          1           0       -6.076406    1.375295    0.340057
     51          1           0        2.701159    0.160958    0.389220
     52          1           0       -0.695151    1.665939    0.950459
     53          1           0        1.409630   -4.593849    0.766094
     54          1           0        2.499023   -3.455694    1.788512
     55          1           0        1.199408   -4.338496    2.389434
     56          1           0        2.393592   -3.341308   -0.746368
     57          1           0       -1.030629   -5.133010    0.892051
     58          1           0       -2.371140   -5.206773    1.659022
     59          1           0       -4.741123   -1.372975   -0.491774
     60          1           0       -4.786119   -0.015945   -1.771278
     61          1           0       -4.789565    4.513667    0.365109
     62          1           0       -5.681239    3.460255   -0.832841
     63          1           0       -4.282122    4.218920   -1.531045
     64          1           0       -1.921399    4.792304   -0.731725
     65          1           0        7.582265   -2.557589   -0.745640
     66          1           0        7.091310   -4.199344   -1.288301
     67          1           0        6.686870   -3.781718    0.394647
     68          1           0        6.949771   -0.256699   -0.194666
     69          1           0        4.751485    1.403588    0.161004
     70          1           0        6.304211    1.212421    1.133520
     71          1           0        4.727637    0.453170    1.572406
     72          1           0        3.504380    6.131302   -1.047477
     73          1           0        4.274636    4.491734   -0.883063
     74          1           0        0.005486    6.668642   -1.815552
     75          1           0        1.695387    6.897132   -0.789105
     76          1           0       -0.214727    7.129509   -0.013455
     77          1           0        3.422938    6.597887    1.471225
     78          1           0        5.049056    6.250200    1.111987
     79          1           0        4.275321    4.802679    1.520213
     80          1           0       -3.641742   -4.731490   -1.514287
     81          1           0       -8.234519   -1.514851   -1.940356
 ---------------------------------------------------------------------

 SCF Done:  E(RB3LYP) =  -1949.11973000     A.U. after   16 cycles

 Excitation energies and oscillator strengths:

 Excited State   1:      Singlet-A      1.5860 eV  781.72 nm  f=0.2286  <S**2>=0.000
     156 ->157         0.70793
     156 <-157        -0.10965
 This state for optimization and/or second-order correction.
 Total Energy, E(TD-HF/TD-DFT) =  -1949.06144391
 Copying the excited state density for this state as the 1-particle RhoCI density.

 The electronic state is 1-A.
 Alpha  occ. eigenvalues --  -19.20100 -19.19945 -19.13698 -19.12666 -19.11264
 Alpha  occ. eigenvalues --  -19.11081 -14.36824 -14.36655 -14.35383 -14.29386
 Alpha  occ. eigenvalues --  -10.33866 -10.32639 -10.29057 -10.27200 -10.24482
 Alpha  occ. eigenvalues --  -10.24253 -10.23591 -10.23095 -10.22657 -10.22582
 Alpha  occ. eigenvalues --  -10.21980 -10.21970 -10.21875 -10.21782 -10.21675
 Alpha  occ. eigenvalues --  -10.21249 -10.20733 -10.20509 -10.20284 -10.20267
 Alpha  occ. eigenvalues --  -10.20019 -10.19881 -10.19794 -10.19746 -10.19363
 Alpha  occ. eigenvalues --  -10.19112 -10.18805 -10.18768 -10.18713 -10.18557
 Alpha  occ. eigenvalues --  -10.18422 -10.18409 -10.16327  -1.10688  -1.09943
 Alpha  occ. eigenvalues --   -1.04217  -1.01138  -0.99984  -0.99647  -0.97566
 Alpha  occ. eigenvalues --   -0.95935  -0.95021  -0.94535  -0.83100  -0.82259
 Alpha  occ. eigenvalues --   -0.81322  -0.80942  -0.80558  -0.79453  -0.78107
 Alpha  occ. eigenvalues --   -0.75856  -0.75631  -0.74652  -0.73845  -0.72657
 Alpha  occ. eigenvalues --   -0.70951  -0.69462  -0.68773  -0.68478  -0.67545
 Alpha  occ. eigenvalues --   -0.66781  -0.64644  -0.63337  -0.62992  -0.61499
 Alpha  occ. eigenvalues --   -0.60153  -0.59627  -0.58560  -0.56945  -0.56603
 Alpha  occ. eigenvalues --   -0.55477  -0.55319  -0.54710  -0.53662  -0.53099
 Alpha  occ. eigenvalues --   -0.52652  -0.52486  -0.51793  -0.50133  -0.49666
 Alpha  occ. eigenvalues --   -0.49433  -0.48707  -0.48436  -0.48224  -0.47249
 Alpha  occ. eigenvalues --   -0.46964  -0.46755  -0.46080  -0.45756  -0.45370
 Alpha  occ. eigenvalues --   -0.45032  -0.44827  -0.44322  -0.44103  -0.43928
 Alpha  occ. eigenvalues --   -0.43523  -0.43049  -0.42861  -0.42554  -0.42355
 Alpha  occ. eigenvalues --   -0.42046  -0.41877  -0.41542  -0.41053  -0.40778
 Alpha  occ. eigenvalues --   -0.40583  -0.40107  -0.39684  -0.39421  -0.39258
 Alpha  occ. eigenvalues --   -0.39218  -0.38877  -0.38587  -0.38279  -0.38039
 Alpha  occ. eigenvalues --   -0.37684  -0.37434  -0.37145  -0.36617  -0.36525
 Alpha  occ. eigenvalues --   -0.36163  -0.35854  -0.34862  -0.34593  -0.34384
 Alpha  occ. eigenvalues --   -0.34074  -0.33231  -0.32961  -0.32905  -0.32769
 Alpha  occ. eigenvalues --   -0.32380  -0.32231  -0.31576  -0.29858  -0.29206
 Alpha  occ. eigenvalues --   -0.28252  -0.27763  -0.26546  -0.25864  -0.25745
 Alpha  occ. eigenvalues --   -0.25017  -0.24799  -0.24435  -0.24256  -0.21287
 Alpha  occ. eigenvalues --   -0.17118
 Alpha virt. eigenvalues --   -0.10518  -0.06123  -0.04060  -0.02037  -0.00310
 Alpha virt. eigenvalues --    0.00289   0.02159   0.02441   0.03313   0.04004
 Alpha virt. eigenvalues --    0.04122   0.04694   0.04936   0.05201   0.05971

 Mulliken charges:
               1
     1  O   -0.178487
     2  O   -0.188719
     3  O   -0.191114
     4  O   -0.273636
     5  O   -0.260388
     6  O   -0.245114
     7  N   -0.069233
     8  N   -0.171278
     9  N   -0.131319
    10  N   -0.150902
    11  C   -0.090982
    12  C    0.105681
    13  C   -0.238371
    14  C    0.017466
    15  C    0.004586
    16  C    0.013237
    17  C    0.006875
    18  C   -0.057274
    19  C    0.062405
    20  C   -0.150592
    21  C    0.115527
    22  C    0.090212
    23  C    0.014769
    24  C    0.052459
    25  C   -0.162737
    26  C    0.219236
    27  C    0.153215
    28  C    0.086110
    29  C   -0.086768
    30  C   -0.042931
    31  C   -0.044530
    32  C    0.068469
    33  C   -0.183034
    34  C    0.066803
    35  C   -0.101546
    36  C   -0.164053
    37  C    0.150040
    38  C    0.050741
    39  C    0.148196
    40  C    0.088101
    41  C    0.129413
    42  C   -0.019681
    43  C   -0.003330
    44  H    0.123928
    45  H   -0.052594
    46  H    0.017729
    47  H    0.010349
    48  H    0.065248
    49  H    0.018804
    50  H    0.019623
    51  H    0.067471
    52  H    0.151786
    53  H    0.024141
    54  H    0.014698
    55  H   -0.025969
    56  H    0.135590
    57  H    0.015222
    58  H    0.004365
    59  H    0.093112
    60  H    0.052461
    61  H    0.059023
    62  H    0.026722
    63  H    0.039459
    64  H   -0.089515
    65  H    0.012014
    66  H    0.021830
    67  H    0.026659
    68  H    0.006877
    69  H    0.067562
    70  H   -0.001949
    71  H    0.019103
    72  H   -0.019338
    73  H    0.037037
    74  H    0.044148
    75  H    0.039287
    76  H    0.058170
    77  H    0.023278
    78  H    0.002257
    79  H    0.034645
    80  H    0.199090
    81  H    0.220153
 Sum of Mulliken charges =  -0.00000

 Dipole moment (field-independent basis, Debye):
    X=             -3.4187    Y=              1.0608    Z=             -0.0929  Tot=              3.5807
 Quadrupole moment (field-independent basis, Debye-Ang):
   XX=           -243.7488   YY=           -240.4047   ZZ=           -254.2234
   XY=             18.2120   XZ=             16.1012   YZ=            -17.1743

 Normal termination of Gaussian 16 at Tue Jul  2 17:16:06 2019.
