 Gaussian 16, Revision A.03,
 Gaussian 16:  ES64L-G16RevA.03 25-Dec-2016

 --------------------------
 # td=(NStates=1) B3LYP/SVP
 --------------------------

 --
 TD
 --
 Symbolic Z-matrix:
 Charge =  0 Multiplicity = 1

                         Standard orientation:
 ---------------------------------------------------------------------
 Center     Atomic      Atomic             Coordinates (Angstroms)
 Number     Number       Type             X           Y           Z
 ---------------------------------------------------------------------
      1          8           0        4.637173   -4.731801   -1.708133
      2          8           0       -2.737488   -4.962537   -1.196698
      3          8           0       -7.052994   -1.713116   -1.913837
      4          8           0       -3.624374   -3.242465    0.025034
      5          8           0       -7.624225   -0.862225    0.123220
      6          8           0        2.758644    2.317019    0.366478
      7          7           0        0.288150   -0.462388    0.563205
      8          7           0       -1.676686    1.763930    0.401957
      9          7           0        3.480606   -2.988876   -0.640164
     10          7           0        0.687335    2.895698   -0.022427
     11          6           0       -0.575671   -2.378244    1.375581
     12          6           0       -0.872345   -1.030853    0.991032
     13          6           0        0.859154   -2.537877    1.215777
     14          6           0        1.429981   -1.317067    0.803183
     15          6           0       -3.938884    1.367628    0.348533
     16          6           0       -2.607257    0.781375    0.646786
     17          6           0       -2.295007   -0.464540    0.932379
     18          6           0       -3.663964    2.653331   -0.055089
     19          6           0       -1.492679   -3.375393    1.990501
     20          6           0        5.632005   -2.531092   -1.331453
     21          6           0        3.753087   -1.671830   -0.183346
     22          6           0       -2.294851    2.949216    0.012230
     23          6           0        5.126595   -1.365795   -0.385334
     24          6           0       -5.244088    0.597030    0.398107
     25          6           0        2.700839   -0.925502    0.324330
     26          6           0        1.695997   -3.684617    1.799776
     27          6           0        4.556081   -3.633713   -1.251693
     28          6           0       -1.867793   -4.472762    1.025855
     29          6           0       -5.459344   -0.212465   -0.950530
     30          6           0       -4.731480    3.768242   -0.364527
     31          6           0       -1.482348    3.974609   -0.282790
     32          6           0        7.121517   -3.146036   -1.011751
     33          6           0        5.859286   -0.390867   -0.091819
     34          6           0       -0.047014    4.002942   -0.222190
     35          6           0        0.842358    5.119487   -0.550033
     36          6           0        2.148643    4.657391   -0.346803
     37          6           0       -2.809142   -4.157962   -0.129182
     38          6           0        5.501805    0.751316    0.826555
     39          6           0       -6.776178   -0.974093   -0.833298
     40          6           0        3.454862    5.333532   -0.320169
     41          6           0        2.010431    3.189866    0.032096
     42          6           0        0.406418    6.545223   -0.772224
     43          6           0        4.161532    5.596137    0.928308
     44          1           0        0.223772    0.474671    0.035760
     45          1           0       -3.222580   -1.142491    0.926924
     46          1           0       -2.228677   -3.046916    2.445745
     47          1           0       -0.884768   -3.847722    2.804438
     48          1           0        5.526604   -2.283707   -2.164640
     49          1           0       -5.237146   -0.173172    1.115794
     50          1           0       -6.092537    1.106462    0.568751
     51          1           0        3.056293    0.096667    0.322990
     52          1           0       -0.703532    1.724067    0.767440
     53          1           0        1.682969   -4.598325    1.234610
     54          1           0        2.751117   -3.445019    2.011260
     55          1           0        1.005430   -4.248900    2.718226
     56          1           0        2.564202   -3.471213   -0.743658
     57          1           0       -1.062169   -5.145712    0.580015
     58          1           0       -2.516628   -5.358320    1.575690
     59          1           0       -4.799833   -1.065239   -1.196066
     60          1           0       -5.380229    0.597088   -1.918748
     61          1           0       -4.604924    4.729649    0.149484
     62          1           0       -5.709131    3.318286   -0.010887
     63          1           0       -4.874775    4.050427   -1.575082
     64          1           0       -2.071833    4.961197   -0.639378
     65          1           0        7.802245   -2.315583   -1.123203
     66          1           0        7.256397   -4.113470   -1.484574
     67          1           0        7.039379   -3.524515   -0.111898
     68          1           0        6.951250   -0.392565   -0.436993
     69          1           0        4.924074    1.630185    0.370608
     70          1           0        6.563188    1.212823    0.900496
     71          1           0        4.854853    0.652759    1.625723
     72          1           0        3.252064    6.273406   -0.728932
     73          1           0        4.215356    4.863262   -0.923437
     74          1           0       -0.278928    6.788393   -1.561518
     75          1           0        1.483179    7.045138   -0.978226
     76          1           0       -0.088860    7.137782    0.099804
     77          1           0        3.775554    6.727921    1.431456
     78          1           0        5.323646    5.795371    0.775304
     79          1           0        4.133196    4.793093    1.775830
     80          1           0       -3.517450   -4.816729   -1.809799
     81          1           0       -8.035775   -1.986288   -1.928603
 ---------------------------------------------------------------------

 SCF Done:  E(RB3LYP) =  -1949.01950718     A.U. after   16 cycles

 Excitation energies and oscillator strengths:

 Excited State   1:      Singlet-A      1.5434 eV  803.33 nm  f=0.2097  <S**2>=0.000
     156 ->157         0.70787
     156 <-157        -0.10141
 This state for optimization and/or second-order correction.
 Total Energy, E(TD-HF/TD-DFT) =  -1948.96278874
 Copying the excited state density for this state as the 1-particle RhoCI density.

 The electronic state is 1-A.
 Alpha  occ. eigenvalues --  -19.20551 -19.19648 -19.13375 -19.12659 -19.10941
 Alpha  occ. eigenvalues --  -19.10706 -14.37109 -14.35947 -14.35736 -14.28041
 Alpha  occ. eigenvalues --  -10.33477 -10.33140 -10.27935 -10.26325 -10.24032
 Alpha  occ. eigenvalues --  -10.23636 -10.23496 -10.23346 -10.23125 -10.22999
 Alpha  occ. eigenvalues --  -10.22810 -10.22720 -10.22016 -10.22013 -10.21257
 Alpha  occ. eigenvalues --  -10.21233 -10.21222 -10.21108 -10.20856 -10.20474
 Alpha  occ. eigenvalues --  -10.20292 -10.20168 -10.20067 -10.19495 -10.19283
 Alpha  occ. eigenvalues --  -10.19235 -10.18759 -10.18504 -10.18284 -10.17847
 Alpha  occ. eigenvalues --  -10.17634 -10.17339 -10.17062  -1.10456  -1.09119
 Alpha  occ. eigenvalues --   -1.03679  -1.03493  -1.00976  -0.98351  -0.97758
 Alpha  occ. eigenvalues --   -0.95747  -0.94066  -0.92200  -0.82418  -0.81808
 Alpha  occ. eigenvalues --   -0.81670  -0.81573  -0.80618  -0.78620  -0.77548
 Alpha  occ. eigenvalues --   -0.76326  -0.76232  -0.75307  -0.74229  -0.72008
 Alpha  occ. eigenvalues --   -0.70626  -0.69542  -0.69146  -0.68506  -0.68159
 Alpha  occ. eigenvalues --   -0.67569  -0.66020  -0.65243  -0.62336  -0.61528
 Alpha  occ. eigenvalues --   -0.60951  -0.59992  -0.58636  -0.57817  -0.57123
 Alpha  occ. eigenvalues --   -0.56464  -0.56241  -0.54458  -0.54043  -0.53366
 Alpha  occ. eigenvalues --   -0.52444  -0.51627  -0.50674  -0.50228  -0.49728
 Alpha  occ. eigenvalues --   -0.48960  -0.48599  -0.48201  -0.47976  -0.47774
 Alpha  occ. eigenvalues --   -0.47244  -0.46483  -0.45833  -0.45667  -0.45432
 Alpha  occ. eigenvalues --   -0.44964  -0.44581  -0.44234  -0.43835  -0.43745
 Alpha  occ. eigenvalues --   -0.43384  -0.42904  -0.42689  -0.42648  -0.42145
 Alpha  occ. eigenvalues --   -0.41991  -0.41793  -0.41208  -0.40836  -0.40660
 Alpha  occ. eigenvalues --   -0.40260  -0.40123  -0.40057  -0.39661  -0.39386
 Alpha  occ. eigenvalues --   -0.39038  -0.38629  -0.38526  -0.38293  -0.38086
 Alpha  occ. eigenvalues --   -0.37813  -0.37571  -0.37370  -0.37232  -0.36414
 Alpha  occ. eigenvalues --   -0.36089  -0.35854  -0.35234  -0.35003  -0.34581
 Alpha  occ. eigenvalues --   -0.34562  -0.34138  -0.33758  -0.33516  -0.33042
 Alpha  occ. eigenvalues --   -0.32012  -0.31731  -0.31695  -0.30290  -0.28571
 Alpha  occ. eigenvalues --   -0.27981  -0.27031  -0.26624  -0.26166  -0.25871
 Alpha  occ. eigenvalues --   -0.24830  -0.24431  -0.23887  -0.23530  -0.21376
 Alpha  occ. eigenvalues --   -0.17532
 Alpha virt. eigenvalues --   -0.11019  -0.06196  -0.03878  -0.02429  -0.01373
 Alpha virt. eigenvalues --    0.02136   0.02473   0.02664   0.02966   0.03391
 Alpha virt. eigenvalues --    0.03586   0.04243   0.04555   0.05104   0.05900

 Mulliken charges:
               1
     1  O   -0.190899
     2  O   -0.179501
     3  O   -0.199047
     4  O   -0.261516
     5  O   -0.301293
     6  O   -0.154064
     7  N   -0.145116
     8  N   -0.134218
     9  N   -0.168809
    10  N   -0.268998
    11  C   -0.151097
    12  C    0.040551
    13  C   -0.158385
    14  C    0.151936
    15  C   -0.051544
    16  C    0.069611
    17  C   -0.093271
    18  C   -0.108028
    19  C    0.329014
    20  C    0.006435
    21  C    0.056913
    22  C    0.140377
    23  C    0.145491
    24  C    0.210871
    25  C   -0.074408
    26  C    0.053531
    27  C    0.099377
    28  C   -0.069546
    29  C   -0.101218
    30  C    0.010297
    31  C   -0.148516
    32  C    0.130516
    33  C   -0.239869
    34  C    0.078343
    35  C   -0.062028
    36  C   -0.202820
    37  C    0.141756
    38  C    0.049385
    39  C    0.182842
    40  C    0.182947
    41  C    0.129093
    42  C    0.026152
    43  C   -0.114331
    44  H    0.162733
    45  H    0.044550
    46  H   -0.091455
    47  H   -0.005805
    48  H   -0.078928
    49  H    0.000624
    50  H   -0.019967
    51  H   -0.011050
    52  H    0.154765
    53  H    0.000129
    54  H    0.048516
    55  H    0.010870
    56  H    0.140491
    57  H    0.030391
    58  H    0.052982
    59  H    0.057642
    60  H    0.076876
    61  H    0.036757
    62  H    0.025375
    63  H    0.044572
    64  H    0.000528
    65  H    0.025735
    66  H    0.018096
    67  H   -0.041229
    68  H    0.004299
    69  H    0.051871
    70  H    0.007964
    71  H    0.014787
    72  H   -0.035806
    73  H    0.008171
    74  H    0.019586
    75  H    0.029177
    76  H    0.044082
    77  H    0.014618
    78  H    0.027556
    79  H    0.049357
    80  H    0.208752
    81  H    0.215470
 Sum of Mulliken charges =  -0.00000

 Dipole moment (field-independent basis, Debye):
    X=             -4.1761    Y=              1.7408    Z=             -1.7713  Tot=              4.8587
 Quadrupole moment (field-independent basis, Debye-Ang):
   XX=           -249.5072   YY=           -235.1825   ZZ=           -254.5821
   XY=             20.6490   XZ=             19.5227   YZ=             -8.6988

 Normal termination of Gaussian 16 at Mon Jul  1 20:59:30 2019.
