 Gaussian 16, Revision A.03,
 Gaussian 16:  ES64L-G16RevA.03 25-Dec-2016

 --------------------------
 # td=(NStates=1) B3LYP/SVP
 --------------------------

 --
 TD
 --
 Symbolic Z-matrix:
 Charge =  0 Multiplicity = 1

                         Standard orientation:
 ---------------------------------------------------------------------
 Center     Atomic      Atomic             Coordinates (Angstroms)
 Number     Number       Type             X           Y           Z
 ---------------------------------------------------------------------
      1          8           0       -4.284426   -4.941886    1.763525
      2          8           0        3.033574   -4.591278    1.149880
      3          8           0        6.846383   -1.528453    1.965345
      4          8           0        3.905460   -3.080675   -0.256745
      5          8           0        7.645654   -0.658224    0.052616
      6          8           0       -3.047577    2.490085   -0.494990
      7          7           0       -0.219863   -0.526837   -0.696641
      8          7           0        1.488473    1.868172   -0.314435
      9          7           0       -3.218068   -3.106699    0.768093
     10          7           0       -0.786201    3.010876   -0.360155
     11          6           0        0.583890   -2.435373   -1.337855
     12          6           0        0.936738   -1.151199   -0.959183
     13          6           0       -0.769982   -2.741742   -1.204283
     14          6           0       -1.295461   -1.431395   -0.798790
     15          6           0        3.738256    1.453955   -0.276576
     16          6           0        2.415670    0.854758   -0.577557
     17          6           0        2.150990   -0.452210   -0.966012
     18          6           0        3.552342    2.795996    0.122394
     19          6           0        1.657026   -3.460471   -2.012972
     20          6           0       -5.485056   -2.837189    1.298910
     21          6           0       -3.585730   -1.852627    0.239371
     22          6           0        2.128463    3.049296   -0.020820
     23          6           0       -4.982869   -1.628335    0.508099
     24          6           0        5.186386    0.889183   -0.255334
     25          6           0       -2.642207   -1.039906   -0.366263
     26          6           0       -1.511164   -3.981847   -1.613714
     27          6           0       -4.291223   -3.822069    1.311511
     28          6           0        2.116552   -4.538148   -1.025996
     29          6           0        5.347646   -0.105746    0.824142
     30          6           0        4.521752    3.882466    0.479794
     31          6           0        1.263324    4.177018    0.216468
     32          6           0       -6.905030   -3.341976    0.901929
     33          6           0       -5.816344   -0.533074    0.272352
     34          6           0       -0.130937    4.117240    0.120394
     35          6           0       -1.092989    5.159813    0.434467
     36          6           0       -2.338828    4.677621    0.195957
     37          6           0        3.105433   -3.994155   -0.035532
     38          6           0       -5.381201    0.536199   -0.671711
     39          6           0        6.719194   -0.679690    0.856356
     40          6           0       -3.703066    5.223229    0.371866
     41          6           0       -2.177497    3.302676   -0.195296
     42          6           0       -0.636322    6.432236    0.925398
     43          6           0       -4.245021    5.604242   -1.046665
     44          1           0       -0.486306    0.388392   -0.253912
     45          1           0        3.090411   -1.102471   -1.061551
     46          1           0        2.515356   -2.616307   -2.331049
     47          1           0        1.093058   -3.855747   -2.873987
     48          1           0       -5.638232   -2.595382    2.361043
     49          1           0        5.339809    0.260076   -1.148198
     50          1           0        5.985689    1.618549   -0.404977
     51          1           0       -2.847329    0.028644   -0.572486
     52          1           0        0.500812    2.078080   -0.535341
     53          1           0       -1.213394   -4.770157   -0.880925
     54          1           0       -2.438180   -3.761213   -1.678353
     55          1           0       -1.130704   -4.489243   -2.611138
     56          1           0       -2.333886   -3.451448    0.506405
     57          1           0        1.218495   -4.977732   -0.574295
     58          1           0        2.644183   -5.498272   -1.463606
     59          1           0        4.538422   -0.926210    0.738769
     60          1           0        5.221817    0.310584    1.958009
     61          1           0        4.617299    4.779269   -0.107122
     62          1           0        5.642429    3.416412    0.432428
     63          1           0        4.294805    4.122831    1.611908
     64          1           0        1.658056    4.986514    0.668302
     65          1           0       -7.648697   -2.606075    1.226603
     66          1           0       -7.008816   -4.416254    1.428401
     67          1           0       -6.861228   -3.646026   -0.175219
     68          1           0       -6.856240   -0.816035    0.404785
     69          1           0       -4.867401    1.428129   -0.206817
     70          1           0       -6.373437    0.894008   -1.075438
     71          1           0       -4.935892    0.000653   -1.561792
     72          1           0       -3.791239    6.256703    0.757692
     73          1           0       -4.522129    4.467903    1.002879
     74          1           0       -0.186003    6.305856    2.050434
     75          1           0       -1.489563    7.105305    1.141661
     76          1           0        0.092340    7.077524    0.296686
     77          1           0       -3.823697    6.522237   -1.334068
     78          1           0       -5.330816    5.851149   -0.684336
     79          1           0       -4.104410    4.804970   -1.924539
     80          1           0        3.539504   -4.082954    1.643066
     81          1           0        7.655766   -2.100068    1.725882
 ---------------------------------------------------------------------

 SCF Done:  E(RB3LYP) =  -1949.14690939     A.U. after   17 cycles

 Excitation energies and oscillator strengths:

 Excited State   1:      Singlet-A      1.7641 eV  702.84 nm  f=0.3207  <S**2>=0.000
     156 ->157         0.70773
     156 <-157        -0.11658
 This state for optimization and/or second-order correction.
 Total Energy, E(TD-HF/TD-DFT) =  -1949.08208148
 Copying the excited state density for this state as the 1-particle RhoCI density.

 The electronic state is 1-A.
 Alpha  occ. eigenvalues --  -19.20091 -19.17035 -19.14851 -19.13254 -19.11415
 Alpha  occ. eigenvalues --  -19.10267 -14.38205 -14.36895 -14.35148 -14.28275
 Alpha  occ. eigenvalues --  -10.34407 -10.32165 -10.29617 -10.26078 -10.24650
 Alpha  occ. eigenvalues --  -10.24579 -10.24515 -10.24084 -10.23184 -10.23138
 Alpha  occ. eigenvalues --  -10.22759 -10.22104 -10.22070 -10.22040 -10.21887
 Alpha  occ. eigenvalues --  -10.21514 -10.20886 -10.20725 -10.20717 -10.20706
 Alpha  occ. eigenvalues --  -10.20691 -10.20646 -10.20450 -10.20290 -10.20216
 Alpha  occ. eigenvalues --  -10.19894 -10.19826 -10.19764 -10.19489 -10.18974
 Alpha  occ. eigenvalues --  -10.18803 -10.18270 -10.17754  -1.14331  -1.07621
 Alpha  occ. eigenvalues --   -1.03728  -1.02639  -1.01092  -0.99119  -0.98608
 Alpha  occ. eigenvalues --   -0.97107  -0.95539  -0.91178  -0.82512  -0.82269
 Alpha  occ. eigenvalues --   -0.81417  -0.81334  -0.80080  -0.79033  -0.78346
 Alpha  occ. eigenvalues --   -0.77720  -0.76616  -0.75577  -0.74170  -0.73492
 Alpha  occ. eigenvalues --   -0.71381  -0.69813  -0.69369  -0.69116  -0.68112
 Alpha  occ. eigenvalues --   -0.67363  -0.65372  -0.63967  -0.62169  -0.61958
 Alpha  occ. eigenvalues --   -0.60459  -0.59283  -0.58064  -0.57466  -0.57116
 Alpha  occ. eigenvalues --   -0.56025  -0.55594  -0.55277  -0.53508  -0.53279
 Alpha  occ. eigenvalues --   -0.52591  -0.52440  -0.51353  -0.51084  -0.49761
 Alpha  occ. eigenvalues --   -0.49614  -0.49218  -0.48928  -0.48270  -0.47829
 Alpha  occ. eigenvalues --   -0.47311  -0.46890  -0.46081  -0.45868  -0.45661
 Alpha  occ. eigenvalues --   -0.44784  -0.44513  -0.44399  -0.44060  -0.43860
 Alpha  occ. eigenvalues --   -0.43492  -0.43297  -0.42884  -0.42588  -0.42456
 Alpha  occ. eigenvalues --   -0.42132  -0.42081  -0.41789  -0.41334  -0.41243
 Alpha  occ. eigenvalues --   -0.41097  -0.40347  -0.40153  -0.39982  -0.39914
 Alpha  occ. eigenvalues --   -0.39582  -0.39382  -0.39156  -0.38882  -0.38729
 Alpha  occ. eigenvalues --   -0.38191  -0.37914  -0.37663  -0.37341  -0.37069
 Alpha  occ. eigenvalues --   -0.36403  -0.35744  -0.35345  -0.35165  -0.34600
 Alpha  occ. eigenvalues --   -0.34367  -0.33698  -0.33421  -0.33128  -0.33025
 Alpha  occ. eigenvalues --   -0.32476  -0.32015  -0.31598  -0.30481  -0.29959
 Alpha  occ. eigenvalues --   -0.28350  -0.27564  -0.26443  -0.26385  -0.26147
 Alpha  occ. eigenvalues --   -0.25414  -0.25031  -0.24444  -0.23213  -0.21330
 Alpha  occ. eigenvalues --   -0.18002
 Alpha virt. eigenvalues --   -0.10870  -0.06604  -0.05048  -0.02640  -0.01213
 Alpha virt. eigenvalues --   -0.00248   0.02074   0.03029   0.03147   0.03752
 Alpha virt. eigenvalues --    0.04205   0.04416   0.05058   0.05953   0.06120

 Mulliken charges:
               1
     1  O   -0.195999
     2  O   -0.073586
     3  O   -0.257849
     4  O   -0.253652
     5  O   -0.236995
     6  O   -0.213427
     7  N   -0.081494
     8  N   -0.108906
     9  N   -0.113924
    10  N   -0.352448
    11  C   -0.151693
    12  C    0.085369
    13  C   -0.173930
    14  C   -0.006667
    15  C   -0.092908
    16  C    0.118869
    17  C   -0.106895
    18  C   -0.099175
    19  C    0.045209
    20  C   -0.104958
    21  C    0.100403
    22  C    0.058260
    23  C   -0.041579
    24  C    0.127566
    25  C   -0.099582
    26  C    0.150454
    27  C    0.157608
    28  C    0.038863
    29  C   -0.073972
    30  C    0.030257
    31  C   -0.045624
    32  C   -0.003955
    33  C   -0.100502
    34  C    0.079292
    35  C   -0.045800
    36  C   -0.118208
    37  C    0.111740
    38  C    0.032757
    39  C    0.170998
    40  C    0.006854
    41  C    0.157475
    42  C    0.020014
    43  C   -0.036018
    44  H    0.162000
    45  H    0.045746
    46  H    0.060070
    47  H    0.015358
    48  H    0.046228
    49  H    0.009311
    50  H    0.019358
    51  H    0.034640
    52  H    0.132748
    53  H    0.039200
    54  H   -0.019981
    55  H    0.036491
    56  H    0.097046
    57  H    0.024933
    58  H    0.064814
    59  H    0.080038
    60  H    0.051345
    61  H    0.041162
    62  H    0.023679
    63  H    0.043850
    64  H   -0.079144
    65  H    0.045223
    66  H    0.044315
    67  H    0.022438
    68  H   -0.006858
    69  H    0.090645
    70  H   -0.006174
    71  H    0.038629
    72  H   -0.007096
    73  H    0.055937
    74  H    0.041234
    75  H    0.001939
    76  H    0.049457
    77  H    0.001497
    78  H    0.019328
    79  H    0.058738
    80  H    0.122406
    81  H    0.197205
 Sum of Mulliken charges =  -0.00000

 Dipole moment (field-independent basis, Debye):
    X=              1.1109    Y=              0.5924    Z=              0.5278  Tot=              1.3651
 Quadrupole moment (field-independent basis, Debye-Ang):
   XX=           -263.8408   YY=           -235.2788   ZZ=           -257.8787
   XY=            -11.6294   XZ=              9.7125   YZ=             17.7013

 Normal termination of Gaussian 16 at Mon Jul  1 15:51:37 2019.
