 Gaussian 16, Revision A.03,
 Gaussian 16:  ES64L-G16RevA.03 25-Dec-2016

 --------------------------
 # td=(NStates=1) B3LYP/SVP
 --------------------------

 --
 TD
 --
 Symbolic Z-matrix:
 Charge =  0 Multiplicity = 1

                         Standard orientation:
 ---------------------------------------------------------------------
 Center     Atomic      Atomic             Coordinates (Angstroms)
 Number     Number       Type             X           Y           Z
 ---------------------------------------------------------------------
      1          8           0        4.115524   -4.844504   -1.782913
      2          8           0       -2.984851   -4.782845   -1.056662
      3          8           0       -6.741129   -1.803981   -1.850732
      4          8           0       -3.713761   -2.993818    0.046058
      5          8           0       -7.362881   -0.915796    0.132843
      6          8           0        2.963407    2.343388    0.400573
      7          7           0        0.273417   -0.468278    0.686021
      8          7           0       -1.622791    1.964859    0.428818
      9          7           0        3.148718   -3.063650   -0.716377
     10          7           0        0.776242    2.852380    0.076552
     11          6           0       -0.685093   -2.299085    1.491495
     12          6           0       -0.964998   -0.986397    0.939480
     13          6           0        0.676476   -2.478086    1.284804
     14          6           0        1.253691   -1.329700    0.795363
     15          6           0       -3.783876    1.585375    0.084057
     16          6           0       -2.529261    0.983377    0.517131
     17          6           0       -2.265512   -0.348302    0.953075
     18          6           0       -3.550050    2.929141   -0.205959
     19          6           0       -1.619591   -3.223878    2.108503
     20          6           0        5.441144   -2.863396   -1.383900
     21          6           0        3.532948   -1.805310   -0.260176
     22          6           0       -2.135771    3.165637   -0.099558
     23          6           0        4.945934   -1.675626   -0.629348
     24          6           0       -5.128910    0.885836    0.244982
     25          6           0        2.635446   -1.000959    0.383332
     26          6           0        1.490058   -3.590948    1.848264
     27          6           0        4.124014   -3.771864   -1.410498
     28          6           0       -2.081906   -4.405920    1.148442
     29          6           0       -5.234682   -0.179228   -0.939073
     30          6           0       -4.582002    3.973473   -0.667008
     31          6           0       -1.205754    4.263250   -0.351891
     32          6           0        6.722417   -3.693190   -0.993024
     33          6           0        5.780097   -0.768371   -0.204777
     34          6           0        0.106630    3.959684   -0.240173
     35          6           0        1.131004    5.137550   -0.489068
     36          6           0        2.388887    4.489120   -0.234147
     37          6           0       -3.012277   -3.973689    0.079914
     38          6           0        5.453230    0.349556    0.816757
     39          6           0       -6.540872   -0.893708   -0.766604
     40          6           0        3.771797    5.179664   -0.268326
     41          6           0        2.109439    3.188402    0.138100
     42          6           0        0.681348    6.527173   -0.867200
     43          6           0        4.225509    5.674017    1.126900
     44          1           0        0.218135    0.503061    0.118733
     45          1           0       -3.080071   -1.097970    1.022973
     46          1           0       -2.735477   -2.652366    2.466475
     47          1           0       -1.179565   -3.664298    2.899222
     48          1           0        5.593595   -2.440286   -2.393449
     49          1           0       -5.249568    0.320856    1.378987
     50          1           0       -5.863935    1.538978    0.187795
     51          1           0        2.911964    0.131313    0.451555
     52          1           0       -0.570757    1.845783    0.851753
     53          1           0        1.394727   -4.323460    1.183754
     54          1           0        2.651991   -3.452440    2.100942
     55          1           0        1.152043   -4.046348    2.807099
     56          1           0        2.038026   -3.311518   -0.937273
     57          1           0       -1.296138   -4.978227    0.569920
     58          1           0       -2.530732   -5.045065    1.860486
     59          1           0       -4.533260   -1.030729   -0.819595
     60          1           0       -5.235579    0.387134   -1.803076
     61          1           0       -4.321326    4.788988    0.048467
     62          1           0       -5.586342    3.623235   -0.680079
     63          1           0       -4.198916    4.268986   -1.743750
     64          1           0       -1.802490    5.142248   -0.770434
     65          1           0        7.831835   -3.286497   -1.121552
     66          1           0        6.936344   -4.689853   -1.388198
     67          1           0        6.617386   -3.878025    0.015885
     68          1           0        6.866275   -0.997383   -0.665685
     69          1           0        4.973150    1.254733    0.475294
     70          1           0        6.434975    0.462741    1.441175
     71          1           0        4.770530    0.033782    1.718743
     72          1           0        3.850301    6.022320   -1.009489
     73          1           0        4.566326    4.398850   -0.718758
     74          1           0        0.293723    6.473797   -1.778912
     75          1           0        1.581365    7.092633   -1.139405
     76          1           0        0.310122    6.880214    0.170508
     77          1           0        3.533213    6.405850    1.654073
     78          1           0        5.325054    6.043694    1.045745
     79          1           0        4.454711    4.877170    1.851831
     80          1           0       -3.692171   -4.318687   -1.712211
     81          1           0       -7.566116   -2.321528   -1.777207
 ---------------------------------------------------------------------

 SCF Done:  E(RB3LYP) =  -1949.06277568     A.U. after   20 cycles

 Excitation energies and oscillator strengths:

 Excited State   1:      Singlet-A      1.8140 eV  683.50 nm  f=0.3533  <S**2>=0.000
     156 ->157         0.70939
     156 <-157        -0.12660
 This state for optimization and/or second-order correction.
 Total Energy, E(TD-HF/TD-DFT) =  -1948.99611400
 Copying the excited state density for this state as the 1-particle RhoCI density.

 The electronic state is 1-A.
 Alpha  occ. eigenvalues --  -19.19272 -19.15909 -19.15079 -19.13016 -19.11709
 Alpha  occ. eigenvalues --  -19.08671 -14.38283 -14.37193 -14.36296 -14.28260
 Alpha  occ. eigenvalues --  -10.33930 -10.32084 -10.28856 -10.24666 -10.24292
 Alpha  occ. eigenvalues --  -10.24082 -10.23443 -10.23217 -10.23058 -10.22681
 Alpha  occ. eigenvalues --  -10.22549 -10.22258 -10.22222 -10.21048 -10.20964
 Alpha  occ. eigenvalues --  -10.20832 -10.20566 -10.20414 -10.20383 -10.20252
 Alpha  occ. eigenvalues --  -10.19973 -10.19870 -10.19750 -10.19550 -10.19447
 Alpha  occ. eigenvalues --  -10.19000 -10.18938 -10.18924 -10.18899 -10.18888
 Alpha  occ. eigenvalues --  -10.18384 -10.18382 -10.18108  -1.10138  -1.07744
 Alpha  occ. eigenvalues --   -1.06734  -1.00639  -1.00430  -1.00233  -0.98375
 Alpha  occ. eigenvalues --   -0.97428  -0.95195  -0.91001  -0.83191  -0.81431
 Alpha  occ. eigenvalues --   -0.81357  -0.81036  -0.79060  -0.78430  -0.77985
 Alpha  occ. eigenvalues --   -0.77297  -0.75990  -0.74502  -0.73170  -0.72159
 Alpha  occ. eigenvalues --   -0.71353  -0.69495  -0.69150  -0.68821  -0.68133
 Alpha  occ. eigenvalues --   -0.67415  -0.65200  -0.63428  -0.61511  -0.60283
 Alpha  occ. eigenvalues --   -0.59713  -0.58899  -0.58139  -0.57762  -0.56750
 Alpha  occ. eigenvalues --   -0.55582  -0.55286  -0.54860  -0.52992  -0.52903
 Alpha  occ. eigenvalues --   -0.52026  -0.51250  -0.50808  -0.50556  -0.49838
 Alpha  occ. eigenvalues --   -0.48858  -0.48602  -0.48194  -0.47290  -0.47198
 Alpha  occ. eigenvalues --   -0.46956  -0.46356  -0.46242  -0.45923  -0.45717
 Alpha  occ. eigenvalues --   -0.44918  -0.44349  -0.44267  -0.44114  -0.43443
 Alpha  occ. eigenvalues --   -0.43120  -0.43050  -0.42800  -0.42340  -0.42047
 Alpha  occ. eigenvalues --   -0.41765  -0.41264  -0.41101  -0.40973  -0.40743
 Alpha  occ. eigenvalues --   -0.40622  -0.40605  -0.40153  -0.39832  -0.39494
 Alpha  occ. eigenvalues --   -0.39349  -0.39043  -0.38096  -0.37898  -0.37798
 Alpha  occ. eigenvalues --   -0.37454  -0.37271  -0.36932  -0.36798  -0.36576
 Alpha  occ. eigenvalues --   -0.36367  -0.36242  -0.35865  -0.35655  -0.35261
 Alpha  occ. eigenvalues --   -0.34228  -0.33890  -0.33601  -0.32979  -0.32131
 Alpha  occ. eigenvalues --   -0.32089  -0.31723  -0.31287  -0.30295  -0.29410
 Alpha  occ. eigenvalues --   -0.27904  -0.26376  -0.26317  -0.25856  -0.25548
 Alpha  occ. eigenvalues --   -0.25023  -0.24530  -0.23562  -0.22756  -0.21544
 Alpha  occ. eigenvalues --   -0.17853
 Alpha virt. eigenvalues --   -0.10696  -0.05559  -0.03335  -0.02510  -0.00049
 Alpha virt. eigenvalues --    0.00773   0.01762   0.02163   0.03021   0.03530
 Alpha virt. eigenvalues --    0.04294   0.04966   0.05213   0.05316   0.05930

 Mulliken charges:
               1
     1  O   -0.108158
     2  O   -0.264859
     3  O   -0.272720
     4  O   -0.215959
     5  O   -0.220828
     6  O   -0.226537
     7  N   -0.046059
     8  N   -0.160165
     9  N   -0.206924
    10  N   -0.277660
    11  C   -0.066819
    12  C   -0.034620
    13  C   -0.188960
    14  C    0.052997
    15  C   -0.100738
    16  C    0.059175
    17  C   -0.027858
    18  C   -0.142817
    19  C    0.080235
    20  C   -0.052982
    21  C    0.124822
    22  C    0.054705
    23  C   -0.010850
    24  C    0.088950
    25  C   -0.147561
    26  C    0.112427
    27  C    0.089689
    28  C    0.023452
    29  C    0.044687
    30  C    0.087747
    31  C   -0.189352
    32  C    0.044166
    33  C   -0.158311
    34  C    0.171391
    35  C   -0.221045
    36  C   -0.118178
    37  C    0.153210
    38  C    0.003352
    39  C    0.143082
    40  C    0.038647
    41  C    0.118878
    42  C    0.216280
    43  C   -0.020868
    44  H    0.186581
    45  H    0.029617
    46  H    0.054777
    47  H   -0.032767
    48  H    0.037843
    49  H    0.059273
    50  H   -0.049107
    51  H    0.064206
    52  H    0.197509
    53  H   -0.036249
    54  H    0.049683
    55  H    0.006703
    56  H    0.186416
    57  H    0.053413
    58  H    0.040353
    59  H    0.079328
    60  H    0.019236
    61  H    0.040684
    62  H    0.016779
    63  H    0.045670
    64  H    0.003911
    65  H    0.022429
    66  H    0.024248
    67  H   -0.007514
    68  H    0.014987
    69  H    0.074157
    70  H    0.014583
    71  H    0.035103
    72  H    0.005767
    73  H    0.024381
    74  H   -0.009322
    75  H   -0.010752
    76  H    0.068351
    77  H    0.023974
    78  H    0.009650
    79  H    0.017991
    80  H    0.231145
    81  H    0.179898
 Sum of Mulliken charges =  -0.00000

 Dipole moment (field-independent basis, Debye):
    X=             -2.5912    Y=              0.1937    Z=             -0.6229  Tot=              2.6721
 Quadrupole moment (field-independent basis, Debye-Ang):
   XX=           -257.9663   YY=           -238.1863   ZZ=           -251.2505
   XY=              5.4804   XZ=             10.6507   YZ=            -14.3809

 Normal termination of Gaussian 16 at Tue Jul  2 01:12:32 2019.
