 Gaussian 16, Revision A.03,
 Gaussian 16:  ES64L-G16RevA.03 25-Dec-2016

 --------------------------
 # td=(NStates=1) B3LYP/SVP
 --------------------------

 --
 TD
 --
 Symbolic Z-matrix:
 Charge =  0 Multiplicity = 1

                         Standard orientation:
 ---------------------------------------------------------------------
 Center     Atomic      Atomic             Coordinates (Angstroms)
 Number     Number       Type             X           Y           Z
 ---------------------------------------------------------------------
      1          8           0        3.969829   -4.905522   -1.878023
      2          8           0       -2.924901   -4.829950   -1.136153
      3          8           0       -6.799974   -1.492100   -1.847279
      4          8           0       -3.935985   -3.058513    0.030231
      5          8           0       -7.509821   -0.443064   -0.002770
      6          8           0        3.090701    2.351239    0.359347
      7          7           0        0.245579   -0.507014    0.519271
      8          7           0       -1.432660    1.903580    0.391955
      9          7           0        3.153434   -3.178513   -0.643559
     10          7           0        0.902668    2.955506    0.070706
     11          6           0       -0.700446   -2.404884    1.406481
     12          6           0       -1.010267   -1.062203    0.893712
     13          6           0        0.764324   -2.567015    1.313173
     14          6           0        1.240439   -1.391538    0.747225
     15          6           0       -3.749948    1.603582    0.221347
     16          6           0       -2.496081    0.948102    0.461595
     17          6           0       -2.320537   -0.367525    0.927908
     18          6           0       -3.463127    2.944704   -0.069420
     19          6           0       -1.769711   -3.306802    2.000356
     20          6           0        5.370762   -2.966055   -1.288776
     21          6           0        3.560204   -1.916519   -0.093839
     22          6           0       -2.049987    3.164680   -0.024191
     23          6           0        4.968949   -1.758177   -0.431110
     24          6           0       -5.113357    1.014172    0.255956
     25          6           0        2.591591   -1.040570    0.384738
     26          6           0        1.288394   -3.857876    1.790679
     27          6           0        4.136460   -3.845351   -1.359005
     28          6           0       -2.245705   -4.465379    1.142469
     29          6           0       -5.313051   -0.125497   -0.783802
     30          6           0       -4.352627    3.945348   -0.505500
     31          6           0       -1.157074    4.200107   -0.336817
     32          6           0        6.594061   -3.694290   -0.765983
     33          6           0        5.811441   -0.670738   -0.221291
     34          6           0        0.203131    4.071284   -0.242885
     35          6           0        1.239391    5.137278   -0.436707
     36          6           0        2.409729    4.595135   -0.260771
     37          6           0       -3.035928   -3.959144   -0.080494
     38          6           0        5.430478    0.446114    0.658849
     39          6           0       -6.603568   -0.725797   -0.728782
     40          6           0        3.771543    5.158781   -0.289624
     41          6           0        2.211646    3.156773    0.095047
     42          6           0        0.901227    6.566767   -0.742636
     43          6           0        4.342532    5.465386    1.017317
     44          1           0        0.386952    0.411486    0.027523
     45          1           0       -3.216234   -1.034424    0.960127
     46          1           0       -2.550079   -2.642236    2.275316
     47          1           0       -1.263669   -3.620116    2.884198
     48          1           0        5.643518   -2.735164   -2.344103
     49          1           0       -5.248831    0.537353    1.183680
     50          1           0       -5.826919    1.952825    0.258764
     51          1           0        2.956088    0.019295    0.555745
     52          1           0       -0.454789    1.962326    0.570707
     53          1           0        1.209231   -4.693069    0.977387
     54          1           0        2.222056   -3.730810    2.166731
     55          1           0        0.726933   -4.129061    2.660903
     56          1           0        2.283881   -3.678862   -0.722509
     57          1           0       -1.351397   -4.901783    0.870148
     58          1           0       -2.786060   -5.280909    1.668645
     59          1           0       -4.773641   -1.090707   -0.670235
     60          1           0       -4.928692    0.350613   -1.736887
     61          1           0       -4.383074    4.721308    0.442098
     62          1           0       -5.398758    3.719074   -0.673412
     63          1           0       -3.878211    4.492062   -1.449374
     64          1           0       -1.592066    5.173392   -0.483262
     65          1           0        7.448157   -2.902323   -0.750991
     66          1           0        6.886806   -4.683547   -1.258564
     67          1           0        6.407563   -4.124741    0.259370
     68          1           0        6.687277   -0.781892   -0.776647
     69          1           0        5.027085    1.348469    0.068146
     70          1           0        6.223847    0.787520    1.309755
     71          1           0        4.620115    0.018994    1.230130
     72          1           0        4.038116    5.974825   -0.819256
     73          1           0        4.292521    4.537936   -0.881130
     74          1           0        0.368511    6.563033   -1.710552
     75          1           0        1.845201    7.318808   -1.038975
     76          1           0        0.235332    6.830227    0.097892
     77          1           0        3.802105    6.266426    1.572470
     78          1           0        5.398602    5.554886    0.984715
     79          1           0        4.188233    4.484599    1.667126
     80          1           0       -3.465172   -4.216255   -2.003186
     81          1           0       -7.711800   -1.728296   -1.875238
 ---------------------------------------------------------------------

 SCF Done:  E(RB3LYP) =  -1949.13877612     A.U. after   19 cycles

 Excitation energies and oscillator strengths:

 Excited State   1:      Singlet-A      1.7586 eV  705.01 nm  f=0.3188  <S**2>=0.000
     156 ->157         0.70717
     156 <-157        -0.11427
 This state for optimization and/or second-order correction.
 Total Energy, E(TD-HF/TD-DFT) =  -1949.07414788
 Copying the excited state density for this state as the 1-particle RhoCI density.

 The electronic state is 1-A.
 Alpha  occ. eigenvalues --  -19.22168 -19.17020 -19.15576 -19.12575 -19.10674
 Alpha  occ. eigenvalues --  -19.09678 -14.37924 -14.35994 -14.35385 -14.27930
 Alpha  occ. eigenvalues --  -10.35233 -10.31447 -10.28164 -10.25291 -10.24928
 Alpha  occ. eigenvalues --  -10.24550 -10.24010 -10.23986 -10.23735 -10.22866
 Alpha  occ. eigenvalues --  -10.22577 -10.22027 -10.21303 -10.20880 -10.20863
 Alpha  occ. eigenvalues --  -10.20695 -10.20524 -10.20470 -10.20265 -10.20263
 Alpha  occ. eigenvalues --  -10.20251 -10.20220 -10.19901 -10.19754 -10.19672
 Alpha  occ. eigenvalues --  -10.19531 -10.19124 -10.18952 -10.18339 -10.17259
 Alpha  occ. eigenvalues --  -10.16983 -10.16648 -10.15432  -1.09717  -1.08418
 Alpha  occ. eigenvalues --   -1.04303  -1.01210  -1.00863  -0.99946  -0.97493
 Alpha  occ. eigenvalues --   -0.95346  -0.94133  -0.92339  -0.83106  -0.82721
 Alpha  occ. eigenvalues --   -0.81599  -0.81276  -0.80301  -0.79468  -0.78631
 Alpha  occ. eigenvalues --   -0.77831  -0.76726  -0.75740  -0.74585  -0.73276
 Alpha  occ. eigenvalues --   -0.71714  -0.70156  -0.69364  -0.68411  -0.68220
 Alpha  occ. eigenvalues --   -0.66914  -0.65156  -0.64409  -0.61993  -0.61468
 Alpha  occ. eigenvalues --   -0.59650  -0.59520  -0.58773  -0.56779  -0.56631
 Alpha  occ. eigenvalues --   -0.55963  -0.55655  -0.54432  -0.54202  -0.53285
 Alpha  occ. eigenvalues --   -0.52679  -0.52019  -0.51444  -0.51230  -0.50595
 Alpha  occ. eigenvalues --   -0.49861  -0.49184  -0.48665  -0.48260  -0.48027
 Alpha  occ. eigenvalues --   -0.47359  -0.46939  -0.46120  -0.45857  -0.45308
 Alpha  occ. eigenvalues --   -0.45069  -0.44544  -0.44329  -0.43951  -0.43859
 Alpha  occ. eigenvalues --   -0.43482  -0.43198  -0.43181  -0.42798  -0.42578
 Alpha  occ. eigenvalues --   -0.42059  -0.41803  -0.41494  -0.41355  -0.41295
 Alpha  occ. eigenvalues --   -0.41114  -0.40942  -0.40582  -0.39942  -0.39872
 Alpha  occ. eigenvalues --   -0.39435  -0.39389  -0.38818  -0.38643  -0.38482
 Alpha  occ. eigenvalues --   -0.38138  -0.37605  -0.37403  -0.37043  -0.36704
 Alpha  occ. eigenvalues --   -0.36492  -0.36351  -0.36121  -0.35257  -0.34689
 Alpha  occ. eigenvalues --   -0.34570  -0.33912  -0.33845  -0.33488  -0.33155
 Alpha  occ. eigenvalues --   -0.33024  -0.32379  -0.30524  -0.30393  -0.29494
 Alpha  occ. eigenvalues --   -0.28228  -0.26530  -0.26000  -0.25811  -0.25237
 Alpha  occ. eigenvalues --   -0.24975  -0.24737  -0.23576  -0.23320  -0.21666
 Alpha  occ. eigenvalues --   -0.18174
 Alpha virt. eigenvalues --   -0.11063  -0.05693  -0.05081  -0.04388  -0.02765
 Alpha virt. eigenvalues --   -0.00073   0.00914   0.01858   0.03268   0.03904
 Alpha virt. eigenvalues --    0.04191   0.05367   0.05558   0.06439   0.06860

 Mulliken charges:
               1
     1  O   -0.192445
     2  O   -0.263069
     3  O   -0.199689
     4  O   -0.283185
     5  O   -0.209615
     6  O   -0.218858
     7  N   -0.094591
     8  N   -0.167722
     9  N   -0.164074
    10  N   -0.263024
    11  C   -0.197632
    12  C    0.034514
    13  C   -0.175484
    14  C    0.082352
    15  C   -0.095289
    16  C    0.114876
    17  C   -0.041614
    18  C   -0.079030
    19  C    0.143681
    20  C   -0.050416
    21  C    0.132565
    22  C    0.099154
    23  C   -0.051254
    24  C    0.155269
    25  C   -0.138260
    26  C    0.162515
    27  C    0.089754
    28  C    0.108732
    29  C   -0.057250
    30  C   -0.000161
    31  C   -0.121813
    32  C   -0.002147
    33  C   -0.087004
    34  C    0.109919
    35  C   -0.098789
    36  C   -0.189875
    37  C    0.196693
    38  C    0.093493
    39  C    0.139101
    40  C    0.209609
    41  C    0.116353
    42  C    0.068792
    43  C   -0.000767
    44  H    0.156456
    45  H    0.040630
    46  H    0.001992
    47  H   -0.004212
    48  H    0.039255
    49  H   -0.004254
    50  H    0.034918
    51  H    0.046300
    52  H    0.111674
    53  H    0.048212
    54  H   -0.014269
    55  H   -0.010942
    56  H    0.123067
    57  H   -0.015234
    58  H    0.057399
    59  H    0.059243
    60  H    0.057346
    61  H    0.041926
    62  H    0.018854
    63  H    0.051264
    64  H   -0.035119
    65  H    0.030130
    66  H    0.037423
    67  H    0.009715
    68  H   -0.040018
    69  H    0.082507
    70  H    0.009834
    71  H    0.021487
    72  H   -0.069270
    73  H   -0.048962
    74  H    0.019673
    75  H    0.041723
    76  H    0.034473
    77  H    0.013227
    78  H   -0.002728
    79  H    0.013247
    80  H    0.270696
    81  H    0.158020
 Sum of Mulliken charges =  -0.00000

 Dipole moment (field-independent basis, Debye):
    X=             -2.3773    Y=              0.2766    Z=             -0.9306  Tot=              2.5679
 Quadrupole moment (field-independent basis, Debye-Ang):
   XX=           -254.7813   YY=           -244.5381   ZZ=           -252.0954
   XY=             10.6604   XZ=             12.3049   YZ=            -15.0527

 Normal termination of Gaussian 16 at Sat Jun 29 07:02:53 2019.
