 Gaussian 16, Revision A.03,
 Gaussian 16:  ES64L-G16RevA.03 25-Dec-2016

 --------------------------
 # td=(NStates=1) B3LYP/SVP
 --------------------------

 --
 TD
 --
 Symbolic Z-matrix:
 Charge =  0 Multiplicity = 1

                         Standard orientation:
 ---------------------------------------------------------------------
 Center     Atomic      Atomic             Coordinates (Angstroms)
 Number     Number       Type             X           Y           Z
 ---------------------------------------------------------------------
      1          8           0        4.125592   -4.770924   -1.932103
      2          8           0       -3.079141   -4.817254   -1.079158
      3          8           0       -6.988786   -1.529263   -1.878179
      4          8           0       -3.881656   -3.093536    0.252024
      5          8           0       -7.556686   -0.333494   -0.059802
      6          8           0        3.049855    2.232093    0.435005
      7          7           0        0.234112   -0.514676    0.554914
      8          7           0       -1.544150    1.765642    0.343111
      9          7           0        3.204880   -3.062378   -0.773761
     10          7           0        0.851515    2.793530    0.174152
     11          6           0       -0.673643   -2.275511    1.390543
     12          6           0       -1.087849   -1.029865    0.916284
     13          6           0        0.747485   -2.581001    1.270405
     14          6           0        1.272834   -1.348007    0.777114
     15          6           0       -3.754571    1.526515    0.289300
     16          6           0       -2.535063    0.862950    0.524651
     17          6           0       -2.309173   -0.440454    0.991432
     18          6           0       -3.505857    2.843227   -0.030277
     19          6           0       -1.616045   -3.293081    2.031748
     20          6           0        5.415175   -2.820638   -1.345148
     21          6           0        3.556738   -1.857225   -0.137167
     22          6           0       -2.075043    2.953429   -0.032703
     23          6           0        4.931718   -1.682505   -0.536744
     24          6           0       -5.079261    0.833359    0.405233
     25          6           0        2.617423   -0.978397    0.351734
     26          6           0        1.323813   -3.827780    1.892972
     27          6           0        4.244648   -3.735606   -1.512519
     28          6           0       -1.998343   -4.426897    1.056921
     29          6           0       -5.368737   -0.014852   -0.931249
     30          6           0       -4.452379    3.930207   -0.505252
     31          6           0       -1.195867    4.075222   -0.412360
     32          6           0        6.598343   -3.696437   -0.747116
     33          6           0        5.775702   -0.671430   -0.154900
     34          6           0        0.281664    3.973804   -0.251773
     35          6           0        1.204442    5.141016   -0.446847
     36          6           0        2.451938    4.675698   -0.184538
     37          6           0       -2.953731   -3.994451   -0.000935
     38          6           0        5.616232    0.518125    0.573773
     39          6           0       -6.740993   -0.584269   -0.869782
     40          6           0        3.847929    5.282676   -0.281841
     41          6           0        2.213920    3.112143    0.197523
     42          6           0        0.628491    6.469485   -0.833123
     43          6           0        4.446202    5.474382    1.151791
     44          1           0        0.447134    0.510215    0.260242
     45          1           0       -3.017560   -1.248575    1.227302
     46          1           0       -2.469478   -2.797549    2.471055
     47          1           0       -0.966092   -3.650411    2.836379
     48          1           0        5.837297   -2.367555   -2.491104
     49          1           0       -4.996270    0.366081    1.374809
     50          1           0       -5.913298    1.438096    0.390731
     51          1           0        3.019881    0.017447    0.555002
     52          1           0       -0.629724    1.855837    0.562023
     53          1           0        0.960665   -4.726752    1.179189
     54          1           0        2.559322   -3.798927    1.618330
     55          1           0        1.172339   -3.955834    2.931475
     56          1           0        2.236117   -3.279897   -1.199605
     57          1           0       -1.028119   -5.012378    0.530569
     58          1           0       -2.531496   -5.091634    1.730291
     59          1           0       -4.703838   -0.930465   -0.944320
     60          1           0       -5.164458    0.500315   -1.820415
     61          1           0       -4.572382    4.712973    0.403111
     62          1           0       -5.595819    3.553714   -0.631973
     63          1           0       -4.141647    4.412045   -1.485559
     64          1           0       -1.588667    4.945675   -0.960355
     65          1           0        7.527329   -2.994076   -0.705053
     66          1           0        6.736961   -4.678642   -1.430261
     67          1           0        6.613650   -4.282576    0.242448
     68          1           0        6.808479   -0.705692   -0.755540
     69          1           0        5.020058    1.210498    0.082519
     70          1           0        6.499701    1.121867    1.010304
     71          1           0        4.952814    0.267039    1.384615
     72          1           0        3.870660    6.330104   -0.781788
     73          1           0        4.394598    4.689213   -1.098331
     74          1           0       -0.093682    6.330592   -1.808724
     75          1           0        1.612039    7.194515   -1.069213
     76          1           0        0.047580    6.894266   -0.039092
     77          1           0        3.579791    6.328193    1.439213
     78          1           0        5.389086    5.851404    1.006546
     79          1           0        4.532759    4.482394    1.637062
     80          1           0       -3.945500   -4.559400   -1.443844
     81          1           0       -8.006991   -1.790926   -1.842128
 ---------------------------------------------------------------------

 SCF Done:  E(RB3LYP) =  -1949.07277571     A.U. after   16 cycles

 Excitation energies and oscillator strengths:

 Excited State   1:      Singlet-A      1.7987 eV  689.30 nm  f=0.3272  <S**2>=0.000
     156 ->157         0.70752
     156 <-157        -0.11948
 This state for optimization and/or second-order correction.
 Total Energy, E(TD-HF/TD-DFT) =  -1949.00667489
 Copying the excited state density for this state as the 1-particle RhoCI density.

 The electronic state is 1-A.
 Alpha  occ. eigenvalues --  -19.21065 -19.16998 -19.14318 -19.12736 -19.12527
 Alpha  occ. eigenvalues --  -19.09936 -14.36776 -14.35369 -14.35231 -14.29121
 Alpha  occ. eigenvalues --  -10.34910 -10.31348 -10.28881 -10.26878 -10.24076
 Alpha  occ. eigenvalues --  -10.23971 -10.23665 -10.23539 -10.22970 -10.22678
 Alpha  occ. eigenvalues --  -10.22403 -10.22324 -10.21770 -10.21457 -10.21391
 Alpha  occ. eigenvalues --  -10.21133 -10.21113 -10.20653 -10.20588 -10.20336
 Alpha  occ. eigenvalues --  -10.20298 -10.19974 -10.19914 -10.19744 -10.19523
 Alpha  occ. eigenvalues --  -10.19507 -10.19399 -10.19325 -10.19202 -10.19113
 Alpha  occ. eigenvalues --  -10.19055 -10.18313 -10.17059  -1.10466  -1.09200
 Alpha  occ. eigenvalues --   -1.08440  -1.00226  -0.99535  -0.99315  -0.98282
 Alpha  occ. eigenvalues --   -0.96231  -0.94293  -0.89908  -0.82697  -0.82065
 Alpha  occ. eigenvalues --   -0.81393  -0.80995  -0.79058  -0.78003  -0.77332
 Alpha  occ. eigenvalues --   -0.76955  -0.76024  -0.75102  -0.74233  -0.71285
 Alpha  occ. eigenvalues --   -0.70310  -0.69373  -0.68646  -0.68005  -0.67726
 Alpha  occ. eigenvalues --   -0.66547  -0.64702  -0.63893  -0.61794  -0.61177
 Alpha  occ. eigenvalues --   -0.60194  -0.59171  -0.57679  -0.56549  -0.56243
 Alpha  occ. eigenvalues --   -0.55755  -0.54612  -0.53626  -0.52852  -0.52050
 Alpha  occ. eigenvalues --   -0.51367  -0.51177  -0.50809  -0.50079  -0.49807
 Alpha  occ. eigenvalues --   -0.49675  -0.48645  -0.48157  -0.47389  -0.47005
 Alpha  occ. eigenvalues --   -0.46665  -0.46504  -0.45791  -0.45670  -0.45147
 Alpha  occ. eigenvalues --   -0.44611  -0.44465  -0.44186  -0.43894  -0.43434
 Alpha  occ. eigenvalues --   -0.43202  -0.42849  -0.42801  -0.42485  -0.42138
 Alpha  occ. eigenvalues --   -0.41957  -0.41397  -0.41285  -0.40984  -0.40523
 Alpha  occ. eigenvalues --   -0.40258  -0.39979  -0.39852  -0.39550  -0.39249
 Alpha  occ. eigenvalues --   -0.39166  -0.38914  -0.38685  -0.38347  -0.38173
 Alpha  occ. eigenvalues --   -0.38011  -0.37649  -0.37375  -0.37065  -0.36715
 Alpha  occ. eigenvalues --   -0.35806  -0.35499  -0.34921  -0.34781  -0.34276
 Alpha  occ. eigenvalues --   -0.33575  -0.33265  -0.33049  -0.32720  -0.32574
 Alpha  occ. eigenvalues --   -0.32094  -0.31913  -0.31875  -0.30311  -0.29173
 Alpha  occ. eigenvalues --   -0.28324  -0.28188  -0.27147  -0.25640  -0.25295
 Alpha  occ. eigenvalues --   -0.24982  -0.23978  -0.23711  -0.23224  -0.21049
 Alpha  occ. eigenvalues --   -0.17220
 Alpha virt. eigenvalues --   -0.09985  -0.05485  -0.05067  -0.04187  -0.00719
 Alpha virt. eigenvalues --    0.01209   0.02368   0.02988   0.03408   0.03633
 Alpha virt. eigenvalues --    0.04462   0.04607   0.04847   0.05142   0.05622

 Mulliken charges:
               1
     1  O   -0.088405
     2  O   -0.162815
     3  O   -0.283777
     4  O   -0.330432
     5  O   -0.188554
     6  O   -0.231237
     7  N   -0.169614
     8  N    0.018999
     9  N   -0.247858
    10  N   -0.321021
    11  C   -0.179203
    12  C    0.111708
    13  C   -0.145333
    14  C    0.075159
    15  C   -0.129713
    16  C    0.119514
    17  C   -0.078617
    18  C   -0.092563
    19  C    0.116354
    20  C   -0.131652
    21  C    0.130570
    22  C    0.020344
    23  C   -0.014730
    24  C    0.177753
    25  C   -0.085022
    26  C    0.011967
    27  C    0.123222
    28  C    0.016701
    29  C   -0.004125
    30  C   -0.004338
    31  C   -0.098845
    32  C   -0.036761
    33  C   -0.165008
    34  C    0.046881
    35  C   -0.067520
    36  C   -0.191737
    37  C    0.190438
    38  C    0.127431
    39  C    0.146541
    40  C   -0.015213
    41  C    0.171147
    42  C    0.031246
    43  C    0.011573
    44  H    0.165788
    45  H    0.027139
    46  H    0.012214
    47  H   -0.001453
    48  H    0.072208
    49  H    0.023751
    50  H   -0.024633
    51  H    0.009892
    52  H    0.079273
    53  H    0.030896
    54  H    0.051071
    55  H    0.045052
    56  H    0.154824
    57  H    0.070447
    58  H    0.058251
    59  H    0.057045
    60  H    0.025218
    61  H    0.046173
    62  H    0.031767
    63  H    0.049653
    64  H   -0.025593
    65  H    0.032971
    66  H    0.045832
    67  H    0.034801
    68  H    0.009854
    69  H    0.036131
    70  H    0.024247
    71  H    0.015289
    72  H    0.001806
    73  H    0.028098
    74  H    0.054250
    75  H    0.037884
    76  H    0.034765
    77  H    0.047320
    78  H   -0.001650
    79  H    0.048880
    80  H    0.195254
    81  H    0.211829
 Sum of Mulliken charges =  -0.00000

 Dipole moment (field-independent basis, Debye):
    X=             -1.2870    Y=             -0.4039    Z=             -0.8857  Tot=              1.6137
 Quadrupole moment (field-independent basis, Debye-Ang):
   XX=           -246.2109   YY=           -238.5486   ZZ=           -253.2448
   XY=             15.5789   XZ=             11.1049   YZ=            -13.2269

 Normal termination of Gaussian 16 at Sat Jun 29 06:00:31 2019.
