 Gaussian 16, Revision A.03,
 Gaussian 16:  ES64L-G16RevA.03 25-Dec-2016

 --------------------------
 # td=(NStates=1) B3LYP/SVP
 --------------------------

 --
 TD
 --
 Symbolic Z-matrix:
 Charge =  0 Multiplicity = 1

                         Standard orientation:
 ---------------------------------------------------------------------
 Center     Atomic      Atomic             Coordinates (Angstroms)
 Number     Number       Type             X           Y           Z
 ---------------------------------------------------------------------
      1          8           0        4.172264   -4.909077   -1.935926
      2          8           0       -3.196115   -4.838211   -0.970889
      3          8           0       -7.064445   -1.202479   -2.128787
      4          8           0       -3.904000   -3.079427    0.096562
      5          8           0       -7.533299   -0.476443    0.042217
      6          8           0        3.026364    2.386069    0.500788
      7          7           0        0.221679   -0.555254    0.674122
      8          7           0       -1.471081    1.882826    0.491606
      9          7           0        3.269004   -3.127056   -0.795125
     10          7           0        0.870773    2.952189    0.199539
     11          6           0       -0.702391   -2.423613    1.474116
     12          6           0       -0.992628   -1.046984    1.010394
     13          6           0        0.635608   -2.666950    1.305073
     14          6           0        1.275086   -1.477466    0.688786
     15          6           0       -3.693699    1.560205    0.364699
     16          6           0       -2.474490    0.874537    0.544130
     17          6           0       -2.221714   -0.382796    1.041754
     18          6           0       -3.432085    2.807007   -0.096780
     19          6           0       -1.670036   -3.386574    2.138329
     20          6           0        5.430351   -2.894529   -1.491346
     21          6           0        3.551244   -1.826920   -0.298112
     22          6           0       -1.997839    3.031684    0.006964
     23          6           0        4.966056   -1.643767   -0.602727
     24          6           0       -5.117590    0.865905    0.266426
     25          6           0        2.603065   -1.113081    0.391054
     26          6           0        1.333739   -3.810196    1.900842
     27          6           0        4.258890   -3.834863   -1.426884
     28          6           0       -2.073521   -4.461342    1.126332
     29          6           0       -5.345989   -0.081069   -1.016737
     30          6           0       -4.398056    3.955399   -0.534323
     31          6           0       -1.190450    4.198244   -0.191672
     32          6           0        6.781744   -3.477774   -1.006016
     33          6           0        5.745346   -0.642101   -0.175877
     34          6           0        0.205714    4.154912   -0.189910
     35          6           0        1.180938    5.140518   -0.411288
     36          6           0        2.395707    4.588331   -0.246586
     37          6           0       -3.128329   -4.012214    0.077733
     38          6           0        5.314577    0.471702    0.745219
     39          6           0       -6.730193   -0.524585   -0.957411
     40          6           0        3.865987    5.047790   -0.261339
     41          6           0        2.210629    3.249442    0.179870
     42          6           0        0.813760    6.527912   -0.888203
     43          6           0        4.557174    5.378235    1.038214
     44          1           0        0.343664    0.407632    0.316099
     45          1           0       -2.967965   -1.161443    1.343633
     46          1           0       -2.676988   -2.874591    2.423158
     47          1           0       -1.083452   -3.910696    3.106401
     48          1           0        5.407573   -2.491299   -2.530531
     49          1           0       -5.194904    0.299102    1.356168
     50          1           0       -5.878933    1.562005    0.228747
     51          1           0        2.962065   -0.040518    0.585738
     52          1           0       -0.580501    1.707581    0.539223
     53          1           0        1.100767   -4.787366    1.199556
     54          1           0        2.340907   -3.434836    1.825046
     55          1           0        1.060476   -4.240370    2.872917
     56          1           0        2.294699   -3.557699   -0.535062
     57          1           0       -1.091148   -4.858656    0.519548
     58          1           0       -2.433708   -5.438718    1.522318
     59          1           0       -4.559888   -0.868393   -0.902284
     60          1           0       -5.033246    0.575404   -1.763604
     61          1           0       -4.371936    5.033491   -0.048009
     62          1           0       -5.338291    3.520721   -0.738393
     63          1           0       -4.204240    4.069150   -1.712999
     64          1           0       -1.938177    4.893490   -0.852725
     65          1           0        7.597211   -2.745697   -1.327509
     66          1           0        6.798131   -4.427957   -1.699338
     67          1           0        6.784221   -3.729460    0.055089
     68          1           0        6.766365   -0.704058   -0.691501
     69          1           0        4.844279    1.207839    0.382690
     70          1           0        6.125001    0.887142    1.358676
     71          1           0        4.564730   -0.027753    1.542262
     72          1           0        3.859794    5.931617   -0.755087
     73          1           0        4.512515    4.329217   -0.779126
     74          1           0        0.012421    6.355850   -1.710714
     75          1           0        1.515854    7.297471   -1.022005
     76          1           0        0.056490    6.981088   -0.202649
     77          1           0        4.008675    6.268504    1.671167
     78          1           0        5.586967    5.729817    0.780165
     79          1           0        4.653355    4.296258    1.597354
     80          1           0       -3.797170   -4.411482   -1.672737
     81          1           0       -8.024029   -1.624785   -2.132753
 ---------------------------------------------------------------------

 SCF Done:  E(RB3LYP) =  -1949.08497567     A.U. after   25 cycles

 Excitation energies and oscillator strengths:

 Excited State   1:      Singlet-A      1.7246 eV  718.89 nm  f=0.2782  <S**2>=0.000
     155 ->157         0.10917
     156 ->157         0.69786
     156 <-157        -0.12915
 This state for optimization and/or second-order correction.
 Total Energy, E(TD-HF/TD-DFT) =  -1949.02159596
 Copying the excited state density for this state as the 1-particle RhoCI density.

 The electronic state is 1-A.
 Alpha  occ. eigenvalues --  -19.19509 -19.18619 -19.14493 -19.13056 -19.11149
 Alpha  occ. eigenvalues --  -19.09009 -14.38925 -14.37348 -14.35924 -14.26671
 Alpha  occ. eigenvalues --  -10.34067 -10.33263 -10.28977 -10.25384 -10.24934
 Alpha  occ. eigenvalues --  -10.24174 -10.23988 -10.23879 -10.23845 -10.23822
 Alpha  occ. eigenvalues --  -10.23439 -10.22174 -10.22000 -10.21628 -10.21218
 Alpha  occ. eigenvalues --  -10.21162 -10.21086 -10.21060 -10.20692 -10.20638
 Alpha  occ. eigenvalues --  -10.20580 -10.20538 -10.20401 -10.20341 -10.20085
 Alpha  occ. eigenvalues --  -10.20037 -10.19731 -10.19556 -10.19434 -10.19310
 Alpha  occ. eigenvalues --  -10.17648 -10.17421 -10.17113  -1.11516  -1.06182
 Alpha  occ. eigenvalues --   -1.04623  -1.01265  -1.00130  -0.99446  -0.98308
 Alpha  occ. eigenvalues --   -0.97470  -0.95099  -0.90360  -0.83236  -0.82467
 Alpha  occ. eigenvalues --   -0.82026  -0.80998  -0.79459  -0.78582  -0.78181
 Alpha  occ. eigenvalues --   -0.78056  -0.76588  -0.75424  -0.74539  -0.72571
 Alpha  occ. eigenvalues --   -0.71541  -0.70097  -0.69400  -0.68397  -0.67890
 Alpha  occ. eigenvalues --   -0.67671  -0.65982  -0.65155  -0.63007  -0.61183
 Alpha  occ. eigenvalues --   -0.60443  -0.59765  -0.58695  -0.58184  -0.57729
 Alpha  occ. eigenvalues --   -0.56532  -0.55794  -0.54962  -0.54094  -0.52733
 Alpha  occ. eigenvalues --   -0.52217  -0.51745  -0.51242  -0.50810  -0.50222
 Alpha  occ. eigenvalues --   -0.49816  -0.49036  -0.48777  -0.48216  -0.47464
 Alpha  occ. eigenvalues --   -0.46784  -0.46574  -0.46299  -0.45726  -0.45515
 Alpha  occ. eigenvalues --   -0.44659  -0.44361  -0.44292  -0.44027  -0.43734
 Alpha  occ. eigenvalues --   -0.43219  -0.42977  -0.42659  -0.42542  -0.42311
 Alpha  occ. eigenvalues --   -0.41977  -0.41544  -0.41423  -0.41075  -0.40985
 Alpha  occ. eigenvalues --   -0.40486  -0.40119  -0.39941  -0.39711  -0.39455
 Alpha  occ. eigenvalues --   -0.39191  -0.38932  -0.38394  -0.37985  -0.37811
 Alpha  occ. eigenvalues --   -0.37656  -0.37509  -0.37338  -0.36978  -0.36664
 Alpha  occ. eigenvalues --   -0.36293  -0.36004  -0.35813  -0.35654  -0.35424
 Alpha  occ. eigenvalues --   -0.34293  -0.33727  -0.33592  -0.33327  -0.32542
 Alpha  occ. eigenvalues --   -0.32155  -0.32054  -0.31422  -0.30223  -0.29709
 Alpha  occ. eigenvalues --   -0.28076  -0.26798  -0.26568  -0.26222  -0.25978
 Alpha  occ. eigenvalues --   -0.25838  -0.25359  -0.23298  -0.23243  -0.20958
 Alpha  occ. eigenvalues --   -0.17985
 Alpha virt. eigenvalues --   -0.11042  -0.06705  -0.04269  -0.02716  -0.01709
 Alpha virt. eigenvalues --    0.00695   0.01168   0.01611   0.02728   0.03073
 Alpha virt. eigenvalues --    0.03456   0.03754   0.04587   0.05245   0.05427

 Mulliken charges:
               1
     1  O   -0.185329
     2  O   -0.195311
     3  O   -0.264612
     4  O   -0.229715
     5  O   -0.279568
     6  O   -0.224331
     7  N   -0.068422
     8  N    0.027557
     9  N   -0.182433
    10  N   -0.343782
    11  C   -0.084749
    12  C   -0.017233
    13  C   -0.152130
    14  C    0.104129
    15  C   -0.093435
    16  C    0.074399
    17  C   -0.005920
    18  C   -0.115389
    19  C    0.048628
    20  C   -0.075509
    21  C    0.098003
    22  C    0.015449
    23  C   -0.048585
    24  C    0.022861
    25  C   -0.159637
    26  C    0.036937
    27  C    0.124265
    28  C   -0.050328
    29  C    0.042348
    30  C    0.084037
    31  C   -0.113516
    32  C    0.025343
    33  C   -0.151451
    34  C    0.115466
    35  C   -0.081112
    36  C   -0.181378
    37  C    0.134113
    38  C    0.141568
    39  C    0.218121
    40  C    0.163595
    41  C    0.126319
    42  C    0.134057
    43  C   -0.079659
    44  H    0.142217
    45  H    0.019892
    46  H    0.047018
    47  H    0.048923
    48  H    0.051545
    49  H    0.050058
    50  H   -0.005079
    51  H    0.061621
    52  H    0.016358
    53  H    0.030511
    54  H    0.035837
    55  H    0.030659
    56  H    0.153815
    57  H    0.060568
    58  H    0.053695
    59  H    0.076625
    60  H    0.019497
    61  H    0.076917
    62  H   -0.018744
    63  H    0.016697
    64  H    0.021687
    65  H    0.036911
    66  H    0.050498
    67  H    0.031892
    68  H   -0.003570
    69  H   -0.012489
    70  H    0.004146
    71  H    0.035834
    72  H   -0.054319
    73  H    0.008573
    74  H    0.014853
    75  H    0.010906
    76  H    0.001130
    77  H    0.029518
    78  H    0.017879
    79  H    0.049931
    80  H    0.211111
    81  H    0.223221
 Sum of Mulliken charges =  -0.00000

 Dipole moment (field-independent basis, Debye):
    X=             -2.2940    Y=             -0.5666    Z=             -1.4660  Tot=              2.7808
 Quadrupole moment (field-independent basis, Debye-Ang):
   XX=           -251.9214   YY=           -243.8816   ZZ=           -254.1903
   XY=             12.4619   XZ=             18.0951   YZ=            -18.2972

 Normal termination of Gaussian 16 at Wed Jul  3 12:51:39 2019.
