 Gaussian 16, Revision A.03,
 Gaussian 16:  ES64L-G16RevA.03 25-Dec-2016

 --------------------------
 # td=(NStates=1) B3LYP/SVP
 --------------------------

 --
 TD
 --
 Symbolic Z-matrix:
 Charge =  0 Multiplicity = 1

                         Standard orientation:
 ---------------------------------------------------------------------
 Center     Atomic      Atomic             Coordinates (Angstroms)
 Number     Number       Type             X           Y           Z
 ---------------------------------------------------------------------
      1          8           0        4.580086   -4.820227   -1.714963
      2          8           0       -2.802317   -4.929409   -1.045734
      3          8           0       -6.749217   -2.043730   -1.892362
      4          8           0       -3.586638   -3.160738    0.130194
      5          8           0       -7.505296   -0.857030   -0.112848
      6          8           0        2.889143    2.621918    0.238426
      7          7           0        0.294632   -0.534584    0.661052
      8          7           0       -1.709948    1.820223    0.398136
      9          7           0        3.503287   -3.149934   -0.570055
     10          7           0        0.568308    2.960965    0.021713
     11          6           0       -0.447843   -2.399652    1.375748
     12          6           0       -0.916728   -1.068762    0.993380
     13          6           0        0.848125   -2.594413    1.197048
     14          6           0        1.367578   -1.351125    0.740920
     15          6           0       -3.859272    1.300026    0.204950
     16          6           0       -2.530544    0.828013    0.623275
     17          6           0       -2.175539   -0.480690    1.084809
     18          6           0       -3.690182    2.647933   -0.178669
     19          6           0       -1.482587   -3.406894    2.054517
     20          6           0        5.643825   -2.557067   -1.439324
     21          6           0        3.650891   -1.779841   -0.196208
     22          6           0       -2.255167    3.012846   -0.077035
     23          6           0        5.090503   -1.428760   -0.545725
     24          6           0       -5.177076    0.657728    0.286103
     25          6           0        2.720605   -0.958993    0.318217
     26          6           0        1.755404   -3.793985    1.725387
     27          6           0        4.528383   -3.658486   -1.312133
     28          6           0       -1.930666   -4.594970    1.148565
     29          6           0       -5.325083   -0.444163   -0.860644
     30          6           0       -4.711498    3.732416   -0.437637
     31          6           0       -1.478829    4.099661   -0.412996
     32          6           0        7.094634   -3.180414   -1.046257
     33          6           0        5.747799   -0.312916   -0.171406
     34          6           0       -0.135963    4.097838   -0.203670
     35          6           0        0.823070    5.272349   -0.478314
     36          6           0        1.998335    4.810221   -0.254500
     37          6           0       -2.912388   -4.130075    0.027010
     38          6           0        5.407353    0.716662    0.856644
     39          6           0       -6.573997   -1.198515   -0.906891
     40          6           0        3.424669    5.464774   -0.274413
     41          6           0        1.895946    3.345723    0.006612
     42          6           0        0.285366    6.696779   -0.757323
     43          6           0        3.976666    5.772947    1.142057
     44          1           0        0.360589    0.510756    0.252619
     45          1           0       -2.928546   -1.194759    1.210134
     46          1           0       -2.539019   -2.974760    2.474595
     47          1           0       -1.034087   -3.907942    2.928036
     48          1           0        5.600816   -2.447102   -2.548655
     49          1           0       -5.194648    0.184782    1.235126
     50          1           0       -5.924665    1.492110    0.354064
     51          1           0        2.892177   -0.019615    0.580767
     52          1           0       -0.709402    1.871551    0.454742
     53          1           0        1.826774   -4.687806    1.163284
     54          1           0        2.798019   -3.544754    2.028229
     55          1           0        1.295444   -4.081763    2.691110
     56          1           0        2.595999   -3.580789   -0.443924
     57          1           0       -1.127461   -5.230251    0.488432
     58          1           0       -2.558142   -5.268251    1.623778
     59          1           0       -4.428325   -0.938425   -0.920763
     60          1           0       -5.135079    0.068723   -1.793917
     61          1           0       -4.485085    4.666363    0.159128
     62          1           0       -5.663260    3.280497   -0.253845
     63          1           0       -4.810553    3.826016   -1.629224
     64          1           0       -1.987931    5.005394   -0.858164
     65          1           0        7.818370   -2.415598   -1.171183
     66          1           0        7.367625   -3.869173   -1.789191
     67          1           0        7.211013   -3.436458    0.099461
     68          1           0        6.704129   -0.230557   -0.315913
     69          1           0        4.595647    1.328927    0.369607
     70          1           0        6.279720    1.359695    0.987711
     71          1           0        4.893566    0.220520    1.577475
     72          1           0        3.197982    6.515425   -0.685070
     73          1           0        4.114033    4.908632   -0.921189
     74          1           0       -0.221396    6.719354   -1.734976
     75          1           0        1.081833    7.435369   -0.778311
     76          1           0       -0.394066    7.025215    0.099210
     77          1           0        3.410100    6.475550    1.758797
     78          1           0        5.050739    6.035555    1.138126
     79          1           0        3.909037    4.628714    1.758586
     80          1           0       -3.361102   -4.433185   -1.673718
     81          1           0       -7.635630   -2.158098   -1.705207
 ---------------------------------------------------------------------

 SCF Done:  E(RB3LYP) =  -1949.14310083     A.U. after   17 cycles

 Excitation energies and oscillator strengths:

 Excited State   1:      Singlet-A      1.8795 eV  659.65 nm  f=0.4273  <S**2>=0.000
     156 ->157         0.71409
     156 <-157        -0.14764
 This state for optimization and/or second-order correction.
 Total Energy, E(TD-HF/TD-DFT) =  -1949.07402886
 Copying the excited state density for this state as the 1-particle RhoCI density.

 The electronic state is 1-A.
 Alpha  occ. eigenvalues --  -19.20350 -19.20166 -19.14890 -19.12245 -19.10421
 Alpha  occ. eigenvalues --  -19.09702 -14.39116 -14.37339 -14.35732 -14.29153
 Alpha  occ. eigenvalues --  -10.33187 -10.32673 -10.28998 -10.25927 -10.25048
 Alpha  occ. eigenvalues --  -10.24469 -10.23798 -10.23773 -10.23537 -10.22641
 Alpha  occ. eigenvalues --  -10.22622 -10.21840 -10.21586 -10.21571 -10.20755
 Alpha  occ. eigenvalues --  -10.20708 -10.20552 -10.20367 -10.20299 -10.20258
 Alpha  occ. eigenvalues --  -10.20119 -10.20115 -10.20001 -10.19947 -10.19611
 Alpha  occ. eigenvalues --  -10.19446 -10.19215 -10.19103 -10.19001 -10.18853
 Alpha  occ. eigenvalues --  -10.18398 -10.17862 -10.16666  -1.13791  -1.12512
 Alpha  occ. eigenvalues --   -1.03967  -1.02409  -0.99971  -0.99636  -0.98943
 Alpha  occ. eigenvalues --   -0.98774  -0.94512  -0.91753  -0.82297  -0.81851
 Alpha  occ. eigenvalues --   -0.81473  -0.81070  -0.79824  -0.79051  -0.77485
 Alpha  occ. eigenvalues --   -0.77450  -0.76900  -0.75412  -0.73867  -0.72578
 Alpha  occ. eigenvalues --   -0.71460  -0.69965  -0.69271  -0.68869  -0.68174
 Alpha  occ. eigenvalues --   -0.67622  -0.66418  -0.64928  -0.62287  -0.61524
 Alpha  occ. eigenvalues --   -0.60719  -0.59947  -0.59568  -0.58805  -0.57753
 Alpha  occ. eigenvalues --   -0.56105  -0.55426  -0.55079  -0.54650  -0.53635
 Alpha  occ. eigenvalues --   -0.52423  -0.51963  -0.51424  -0.51160  -0.50777
 Alpha  occ. eigenvalues --   -0.50312  -0.50014  -0.48992  -0.48854  -0.47608
 Alpha  occ. eigenvalues --   -0.47375  -0.46824  -0.46519  -0.46285  -0.45415
 Alpha  occ. eigenvalues --   -0.45197  -0.44725  -0.44558  -0.43890  -0.43570
 Alpha  occ. eigenvalues --   -0.42974  -0.42952  -0.42645  -0.42484  -0.42248
 Alpha  occ. eigenvalues --   -0.42143  -0.41958  -0.41686  -0.41574  -0.41145
 Alpha  occ. eigenvalues --   -0.40677  -0.40553  -0.40445  -0.39994  -0.39382
 Alpha  occ. eigenvalues --   -0.39273  -0.39126  -0.38842  -0.38621  -0.38499
 Alpha  occ. eigenvalues --   -0.37962  -0.37808  -0.37583  -0.37398  -0.36767
 Alpha  occ. eigenvalues --   -0.36616  -0.35916  -0.35639  -0.35612  -0.35369
 Alpha  occ. eigenvalues --   -0.35015  -0.34707  -0.34133  -0.33798  -0.33229
 Alpha  occ. eigenvalues --   -0.32755  -0.31895  -0.30675  -0.29842  -0.29560
 Alpha  occ. eigenvalues --   -0.28027  -0.27923  -0.27126  -0.26704  -0.26023
 Alpha  occ. eigenvalues --   -0.25050  -0.24825  -0.24242  -0.23942  -0.22553
 Alpha  occ. eigenvalues --   -0.17808
 Alpha virt. eigenvalues --   -0.10762  -0.05166  -0.03350  -0.01272  -0.00211
 Alpha virt. eigenvalues --    0.00482   0.02714   0.03449   0.03978   0.04323
 Alpha virt. eigenvalues --    0.04709   0.04998   0.05379   0.06361   0.06882

 Mulliken charges:
               1
     1  O   -0.232049
     2  O   -0.159432
     3  O   -0.087196
     4  O   -0.200965
     5  O   -0.304266
     6  O   -0.249236
     7  N   -0.099163
     8  N   -0.018485
     9  N   -0.104532
    10  N   -0.315780
    11  C   -0.060104
    12  C    0.014760
    13  C   -0.157089
    14  C    0.015702
    15  C   -0.155454
    16  C    0.048002
    17  C    0.026559
    18  C   -0.164313
    19  C    0.046638
    20  C   -0.086301
    21  C    0.138235
    22  C    0.075771
    23  C    0.034963
    24  C    0.163420
    25  C   -0.000064
    26  C    0.066444
    27  C    0.112118
    28  C   -0.015822
    29  C    0.059242
    30  C    0.106729
    31  C   -0.118709
    32  C    0.076412
    33  C   -0.129954
    34  C    0.073457
    35  C   -0.095160
    36  C   -0.164146
    37  C    0.098138
    38  C    0.102576
    39  C    0.175565
    40  C    0.095017
    41  C    0.157652
    42  C    0.094088
    43  C   -0.066031
    44  H    0.182424
    45  H   -0.018164
    46  H    0.047481
    47  H    0.010163
    48  H    0.045264
    49  H   -0.000579
    50  H    0.018956
    51  H   -0.076914
    52  H    0.101491
    53  H    0.021239
    54  H    0.039899
    55  H    0.015330
    56  H    0.126959
    57  H    0.058721
    58  H    0.015248
    59  H   -0.013713
    60  H    0.012457
    61  H    0.055433
    62  H   -0.016932
    63  H    0.030140
    64  H   -0.006117
    65  H   -0.003741
    66  H    0.015516
    67  H    0.036970
    68  H   -0.069119
    69  H    0.083397
    70  H    0.012795
    71  H   -0.000789
    72  H   -0.006375
    73  H    0.025197
    74  H    0.029953
    75  H    0.005348
    76  H    0.037376
    77  H    0.019344
    78  H    0.022171
    79  H    0.036203
    80  H    0.174232
    81  H    0.135495
 Sum of Mulliken charges =  -0.00000

 Dipole moment (field-independent basis, Debye):
    X=             -2.0700    Y=              0.7444    Z=             -0.4358  Tot=              2.2426
 Quadrupole moment (field-independent basis, Debye-Ang):
   XX=           -258.7381   YY=           -245.2712   ZZ=           -251.5954
   XY=             15.3474   XZ=             14.9616   YZ=            -12.8817

 Normal termination of Gaussian 16 at Sun Jun 30 13:29:50 2019.
