 Gaussian 16, Revision A.03,
 Gaussian 16:  ES64L-G16RevA.03 25-Dec-2016

 --------------------------
 # td=(NStates=1) B3LYP/SVP
 --------------------------

 --
 TD
 --
 Symbolic Z-matrix:
 Charge =  0 Multiplicity = 1

                         Standard orientation:
 ---------------------------------------------------------------------
 Center     Atomic      Atomic             Coordinates (Angstroms)
 Number     Number       Type             X           Y           Z
 ---------------------------------------------------------------------
      1          8           0        4.526324   -4.772743   -1.788917
      2          8           0       -2.814015   -5.029416   -1.139625
      3          8           0       -7.026519   -1.550322   -1.906649
      4          8           0       -3.673602   -3.279115   -0.097871
      5          8           0       -7.700998   -0.678909   -0.007783
      6          8           0        3.018997    2.497263    0.313189
      7          7           0        0.281057   -0.510838    0.659717
      8          7           0       -1.601466    1.831205    0.433816
      9          7           0        3.420443   -3.001882   -0.629527
     10          7           0        0.737809    2.862100    0.046475
     11          6           0       -0.586652   -2.429476    1.367749
     12          6           0       -0.845519   -1.134685    0.930678
     13          6           0        0.835735   -2.561820    1.288116
     14          6           0        1.391256   -1.395589    0.745572
     15          6           0       -3.775360    1.350871    0.353207
     16          6           0       -2.479074    0.863165    0.646581
     17          6           0       -2.174208   -0.506418    0.938926
     18          6           0       -3.612977    2.708344   -0.039340
     19          6           0       -1.537758   -3.445064    1.925744
     20          6           0        5.638591   -2.633088   -1.234394
     21          6           0        3.646066   -1.665164   -0.218788
     22          6           0       -2.138325    2.980497    0.066075
     23          6           0        5.083388   -1.458378   -0.539313
     24          6           0       -5.126390    0.572413    0.440362
     25          6           0        2.785973   -0.921722    0.460564
     26          6           0        1.599987   -3.718595    1.699205
     27          6           0        4.455404   -3.688809   -1.264039
     28          6           0       -1.907887   -4.606793    1.045202
     29          6           0       -5.463279   -0.163924   -0.837682
     30          6           0       -4.580149    3.747734   -0.398710
     31          6           0       -1.402054    3.979382   -0.193337
     32          6           0        6.878326   -3.254219   -0.783602
     33          6           0        5.845207   -0.400122   -0.085785
     34          6           0       -0.038201    3.999992   -0.228892
     35          6           0        0.813328    5.076664   -0.429063
     36          6           0        2.132416    4.678138   -0.438455
     37          6           0       -2.867302   -4.181137   -0.059412
     38          6           0        5.277308    0.818268    0.643064
     39          6           0       -6.808532   -0.747356   -0.868884
     40          6           0        3.470757    5.362948   -0.468547
     41          6           0        2.048635    3.274711    0.024314
     42          6           0        0.360143    6.433851   -0.698796
     43          6           0        4.105786    5.752789    0.923526
     44          1           0        0.311800    0.323131    0.205037
     45          1           0       -2.907247   -1.147932    1.088528
     46          1           0       -2.562218   -3.024938    2.226612
     47          1           0       -1.111295   -3.922834    2.829873
     48          1           0        5.803697   -2.369628   -2.311222
     49          1           0       -5.295014   -0.185048    1.313808
     50          1           0       -5.986451    1.311296    0.462082
     51          1           0        2.749369    0.280162    0.382782
     52          1           0       -0.477552    1.984573    0.458284
     53          1           0        1.862326   -4.611368    0.977067
     54          1           0        2.791849   -3.564720    1.756505
     55          1           0        1.445633   -4.086344    2.663787
     56          1           0        2.625299   -3.745057   -0.409940
     57          1           0       -1.025614   -5.188244    0.571024
     58          1           0       -2.379802   -5.369524    1.529575
     59          1           0       -4.776895   -1.071247   -1.253580
     60          1           0       -5.520448    0.480322   -1.719727
     61          1           0       -4.500600    4.695029    0.523627
     62          1           0       -5.616048    3.228176   -0.410047
     63          1           0       -4.216993    4.136842   -1.545137
     64          1           0       -1.962838    4.880438   -0.402211
     65          1           0        7.683256   -2.446290   -1.110760
     66          1           0        7.145297   -4.127295   -1.432677
     67          1           0        6.878517   -3.585199    0.212888
     68          1           0        6.831658   -0.357447   -0.460734
     69          1           0        4.739663    1.584964    0.288329
     70          1           0        6.207443    1.260494    1.193380
     71          1           0        4.836038    0.494393    1.465690
     72          1           0        3.411629    6.352908   -0.925129
     73          1           0        4.093066    4.815450   -1.179978
     74          1           0       -0.373423    6.293761   -1.622308
     75          1           0        1.233223    7.226287   -0.831774
     76          1           0       -0.000595    6.726734    0.137725
     77          1           0        3.513703    6.483700    1.438398
     78          1           0        5.156269    6.057122    0.704236
     79          1           0        4.124208    4.741716    1.804204
     80          1           0       -3.437421   -4.574721   -1.716941
     81          1           0       -7.947722   -1.862260   -1.724474
 ---------------------------------------------------------------------

 SCF Done:  E(RB3LYP) =  -1949.06014730     A.U. after   18 cycles

 Excitation energies and oscillator strengths:

 Excited State   1:      Singlet-A      1.7460 eV  710.09 nm  f=0.2819  <S**2>=0.000
     156 ->157         0.70187
     156 <-157        -0.12328
 This state for optimization and/or second-order correction.
 Total Energy, E(TD-HF/TD-DFT) =  -1948.99598189
 Copying the excited state density for this state as the 1-particle RhoCI density.

 The electronic state is 1-A.
 Alpha  occ. eigenvalues --  -19.18621 -19.18351 -19.14858 -19.11995 -19.11664
 Alpha  occ. eigenvalues --  -19.10004 -14.37474 -14.37253 -14.35374 -14.29544
 Alpha  occ. eigenvalues --  -10.33542 -10.31746 -10.28847 -10.26399 -10.24687
 Alpha  occ. eigenvalues --  -10.24049 -10.23989 -10.23911 -10.23299 -10.22795
 Alpha  occ. eigenvalues --  -10.22783 -10.22387 -10.21930 -10.21878 -10.21762
 Alpha  occ. eigenvalues --  -10.21658 -10.21482 -10.21099 -10.20806 -10.20266
 Alpha  occ. eigenvalues --  -10.20188 -10.19852 -10.19604 -10.19586 -10.19530
 Alpha  occ. eigenvalues --  -10.19512 -10.19492 -10.19291 -10.19145 -10.19039
 Alpha  occ. eigenvalues --  -10.18462 -10.18384 -10.14716  -1.11214  -1.10466
 Alpha  occ. eigenvalues --   -1.03562  -1.01494  -1.00601  -0.99512  -0.98978
 Alpha  occ. eigenvalues --   -0.98638  -0.94658  -0.92107  -0.83514  -0.83367
 Alpha  occ. eigenvalues --   -0.81719  -0.81214  -0.80504  -0.80200  -0.78835
 Alpha  occ. eigenvalues --   -0.78557  -0.77442  -0.76055  -0.74422  -0.73312
 Alpha  occ. eigenvalues --   -0.71540  -0.69756  -0.69569  -0.69048  -0.68271
 Alpha  occ. eigenvalues --   -0.67407  -0.66909  -0.63564  -0.63114  -0.61811
 Alpha  occ. eigenvalues --   -0.60865  -0.60479  -0.58871  -0.57549  -0.56675
 Alpha  occ. eigenvalues --   -0.56231  -0.55828  -0.55326  -0.54124  -0.53331
 Alpha  occ. eigenvalues --   -0.52559  -0.52187  -0.51447  -0.50251  -0.50002
 Alpha  occ. eigenvalues --   -0.49480  -0.49351  -0.48918  -0.48538  -0.48272
 Alpha  occ. eigenvalues --   -0.47703  -0.46956  -0.46858  -0.46392  -0.45882
 Alpha  occ. eigenvalues --   -0.45380  -0.44882  -0.44302  -0.44156  -0.44069
 Alpha  occ. eigenvalues --   -0.43652  -0.43452  -0.43182  -0.43073  -0.42773
 Alpha  occ. eigenvalues --   -0.42339  -0.42268  -0.41728  -0.41474  -0.41165
 Alpha  occ. eigenvalues --   -0.41013  -0.40762  -0.40392  -0.40314  -0.39981
 Alpha  occ. eigenvalues --   -0.39614  -0.39025  -0.38554  -0.38454  -0.38072
 Alpha  occ. eigenvalues --   -0.37964  -0.37693  -0.37356  -0.37097  -0.36835
 Alpha  occ. eigenvalues --   -0.36624  -0.35892  -0.35700  -0.35156  -0.34802
 Alpha  occ. eigenvalues --   -0.34590  -0.34021  -0.33748  -0.33551  -0.33102
 Alpha  occ. eigenvalues --   -0.32115  -0.31707  -0.31608  -0.30269  -0.29757
 Alpha  occ. eigenvalues --   -0.28189  -0.27775  -0.26983  -0.25719  -0.25625
 Alpha  occ. eigenvalues --   -0.25223  -0.24929  -0.24348  -0.23276  -0.22172
 Alpha  occ. eigenvalues --   -0.18569
 Alpha virt. eigenvalues --   -0.11651  -0.06662  -0.04174  -0.01574  -0.00021
 Alpha virt. eigenvalues --    0.00555   0.01772   0.02162   0.02912   0.03357
 Alpha virt. eigenvalues --    0.04400   0.04618   0.04750   0.05798   0.06263

 Mulliken charges:
               1
     1  O   -0.199449
     2  O   -0.183781
     3  O   -0.172999
     4  O   -0.227818
     5  O   -0.279108
     6  O   -0.271438
     7  N    0.016979
     8  N   -0.072541
     9  N   -0.218181
    10  N   -0.329897
    11  C   -0.072914
    12  C   -0.012994
    13  C   -0.090011
    14  C    0.035165
    15  C   -0.058692
    16  C    0.081255
    17  C    0.047750
    18  C   -0.095835
    19  C    0.092452
    20  C   -0.073026
    21  C    0.200266
    22  C    0.074869
    23  C   -0.015029
    24  C    0.075800
    25  C   -0.170154
    26  C   -0.016534
    27  C    0.120155
    28  C    0.050017
    29  C   -0.023323
    30  C   -0.046988
    31  C   -0.158038
    32  C    0.065065
    33  C   -0.135100
    34  C    0.149041
    35  C   -0.153751
    36  C   -0.144438
    37  C    0.114412
    38  C    0.175022
    39  C    0.110766
    40  C    0.108454
    41  C    0.168853
    42  C    0.171519
    43  C   -0.054820
    44  H    0.093063
    45  H   -0.098428
    46  H    0.029246
    47  H    0.006359
    48  H    0.033205
    49  H    0.054715
    50  H    0.024323
    51  H    0.093217
    52  H    0.188138
    53  H    0.024024
    54  H    0.019135
    55  H    0.010851
    56  H    0.164497
    57  H    0.045828
    58  H    0.011505
    59  H    0.077635
    60  H    0.025472
    61  H    0.069369
    62  H    0.041010
    63  H    0.062643
    64  H   -0.044235
    65  H    0.020248
    66  H    0.026010
    67  H    0.002199
    68  H   -0.021143
    69  H    0.032966
    70  H   -0.026028
    71  H   -0.026458
    72  H   -0.018652
    73  H    0.015707
    74  H    0.052285
    75  H    0.020794
    76  H   -0.037839
    77  H    0.016311
    78  H    0.034556
    79  H    0.044257
    80  H    0.167813
    81  H    0.184422
 Sum of Mulliken charges =  -0.00000

 Dipole moment (field-independent basis, Debye):
    X=             -2.8938    Y=              1.5900    Z=             -0.0551  Tot=              3.3023
 Quadrupole moment (field-independent basis, Debye-Ang):
   XX=           -267.2132   YY=           -235.4532   ZZ=           -254.3537
   XY=             12.0621   XZ=             12.6423   YZ=            -16.5203

 Normal termination of Gaussian 16 at Sun Jun 30 17:36:40 2019.
