 Gaussian 16, Revision A.03,
 Gaussian 16:  ES64L-G16RevA.03 25-Dec-2016

 --------------------------
 # td=(NStates=1) B3LYP/SVP
 --------------------------

 --
 TD
 --
 Symbolic Z-matrix:
 Charge =  0 Multiplicity = 1

                         Standard orientation:
 ---------------------------------------------------------------------
 Center     Atomic      Atomic             Coordinates (Angstroms)
 Number     Number       Type             X           Y           Z
 ---------------------------------------------------------------------
      1          8           0        4.344765   -4.980861   -1.715963
      2          8           0       -3.038741   -4.801071   -1.027471
      3          8           0       -6.813846   -1.651143   -1.876884
      4          8           0       -3.823848   -3.010093    0.133370
      5          8           0       -7.522304   -0.594638   -0.101539
      6          8           0        2.998196    2.493151    0.366849
      7          7           0        0.269647   -0.497398    0.689888
      8          7           0       -1.431385    1.785172    0.170448
      9          7           0        3.349972   -3.162145   -0.719902
     10          7           0        0.755069    3.007585    0.120423
     11          6           0       -0.608203   -2.281507    1.480227
     12          6           0       -0.894353   -1.059443    1.023770
     13          6           0        0.740007   -2.651406    1.167598
     14          6           0        1.314840   -1.519338    0.730810
     15          6           0       -3.751608    1.476826    0.369524
     16          6           0       -2.456082    0.828046    0.563484
     17          6           0       -2.208380   -0.428000    1.053257
     18          6           0       -3.552049    2.764760   -0.143503
     19          6           0       -1.620465   -3.374234    2.027814
     20          6           0        5.551139   -2.765348   -1.347614
     21          6           0        3.513950   -1.802477   -0.293576
     22          6           0       -2.123400    2.947022   -0.125414
     23          6           0        5.012207   -1.551249   -0.482059
     24          6           0       -5.031204    0.680638    0.425890
     25          6           0        2.553150   -1.026109    0.299121
     26          6           0        1.479311   -3.825319    1.736583
     27          6           0        4.410444   -3.807179   -1.302913
     28          6           0       -2.037772   -4.490161    0.966242
     29          6           0       -5.257499   -0.172538   -0.788411
     30          6           0       -4.486849    3.768445   -0.522516
     31          6           0       -1.339599    4.063344   -0.348443
     32          6           0        6.872856   -3.395065   -0.886994
     33          6           0        5.697801   -0.578366   -0.092427
     34          6           0        0.070881    4.016915   -0.306707
     35          6           0        1.035825    5.177735   -0.292460
     36          6           0        2.270215    4.727666   -0.324565
     37          6           0       -3.085663   -3.976257    0.001444
     38          6           0        5.332250    0.634601    0.728527
     39          6           0       -6.624399   -0.813207   -0.905376
     40          6           0        3.629352    5.312424   -0.300540
     41          6           0        2.131777    3.278973    0.043005
     42          6           0        0.463732    6.612908   -0.750054
     43          6           0        4.129309    5.496867    1.092889
     44          1           0        0.500616    0.402272    0.230252
     45          1           0       -2.918109   -1.145516    1.096653
     46          1           0       -2.487281   -2.768489    2.298678
     47          1           0       -1.260388   -3.955286    2.807713
     48          1           0        5.741222   -2.100804   -2.499284
     49          1           0       -5.152704    0.099443    1.201597
     50          1           0       -5.724811    1.506082    0.544570
     51          1           0        2.810113    0.140285    0.324987
     52          1           0       -0.372429    1.853563    0.475044
     53          1           0        1.076432   -4.660413    1.191576
     54          1           0        2.644589   -3.565726    1.604204
     55          1           0        1.076178   -3.901076    2.740053
     56          1           0        2.295718   -3.678662   -0.649097
     57          1           0       -1.385532   -5.148928    0.555768
     58          1           0       -2.680757   -5.172822    1.597085
     59          1           0       -4.583156   -1.095469   -0.770363
     60          1           0       -5.029088    0.647916   -1.681622
     61          1           0       -4.452750    4.606970    0.327710
     62          1           0       -5.551331    3.450596   -0.574803
     63          1           0       -4.228809    4.316250   -1.452681
     64          1           0       -1.814520    4.903530   -0.759755
     65          1           0        7.673520   -2.753029   -1.059721
     66          1           0        7.143977   -4.215194   -1.597743
     67          1           0        6.958121   -3.935864    0.093816
     68          1           0        6.888644   -0.653892   -0.286408
     69          1           0        4.888461    1.594515    0.205497
     70          1           0        6.339110    1.122327    1.055202
     71          1           0        4.799129    0.496059    1.562679
     72          1           0        3.472800    6.281281   -0.850412
     73          1           0        4.260648    4.854021   -0.896213
     74          1           0        0.128665    6.406699   -1.929807
     75          1           0        1.340368    7.490373   -0.560485
     76          1           0       -0.407529    6.945905   -0.300320
     77          1           0        3.545745    6.081735    1.554674
     78          1           0        5.156490    6.210489    1.081091
     79          1           0        4.233436    4.720487    1.883780
     80          1           0       -3.778133   -4.618736   -1.718512
     81          1           0       -7.692678   -1.955952   -1.877944
 ---------------------------------------------------------------------

 SCF Done:  E(RB3LYP) =  -1949.03812235     A.U. after   16 cycles

 Excitation energies and oscillator strengths:

 Excited State   1:      Singlet-A      1.8023 eV  687.92 nm  f=0.2777  <S**2>=0.000
     156 ->157         0.70539
 This state for optimization and/or second-order correction.
 Total Energy, E(TD-HF/TD-DFT) =  -1948.97188862
 Copying the excited state density for this state as the 1-particle RhoCI density.

 The electronic state is 1-A.
 Alpha  occ. eigenvalues --  -19.20754 -19.18735 -19.14632 -19.11911 -19.11224
 Alpha  occ. eigenvalues --  -19.10214 -14.37529 -14.35726 -14.35074 -14.29339
 Alpha  occ. eigenvalues --  -10.33898 -10.31638 -10.28954 -10.27381 -10.24035
 Alpha  occ. eigenvalues --  -10.24021 -10.23163 -10.23125 -10.22827 -10.22255
 Alpha  occ. eigenvalues --  -10.21787 -10.21760 -10.21489 -10.21320 -10.21158
 Alpha  occ. eigenvalues --  -10.21145 -10.20906 -10.20744 -10.20737 -10.20072
 Alpha  occ. eigenvalues --  -10.19854 -10.19049 -10.19040 -10.18805 -10.18711
 Alpha  occ. eigenvalues --  -10.18512 -10.18508 -10.18376 -10.18274 -10.18259
 Alpha  occ. eigenvalues --  -10.18043 -10.17745 -10.17005  -1.12100  -1.11469
 Alpha  occ. eigenvalues --   -1.03225  -1.02295  -1.01114  -0.99605  -0.97446
 Alpha  occ. eigenvalues --   -0.96002  -0.93615  -0.92728  -0.82880  -0.81608
 Alpha  occ. eigenvalues --   -0.81294  -0.81021  -0.80532  -0.79419  -0.77942
 Alpha  occ. eigenvalues --   -0.77550  -0.75991  -0.75196  -0.74169  -0.72520
 Alpha  occ. eigenvalues --   -0.71642  -0.69436  -0.69100  -0.68799  -0.68556
 Alpha  occ. eigenvalues --   -0.67325  -0.65060  -0.64122  -0.64005  -0.62165
 Alpha  occ. eigenvalues --   -0.61489  -0.61288  -0.58953  -0.56587  -0.56512
 Alpha  occ. eigenvalues --   -0.55896  -0.55260  -0.54855  -0.53593  -0.52745
 Alpha  occ. eigenvalues --   -0.52327  -0.51008  -0.50823  -0.50709  -0.50044
 Alpha  occ. eigenvalues --   -0.49466  -0.48852  -0.48682  -0.48172  -0.47885
 Alpha  occ. eigenvalues --   -0.47094  -0.46821  -0.45716  -0.45169  -0.45055
 Alpha  occ. eigenvalues --   -0.44795  -0.44457  -0.44205  -0.43620  -0.43283
 Alpha  occ. eigenvalues --   -0.43260  -0.43093  -0.42937  -0.42543  -0.42294
 Alpha  occ. eigenvalues --   -0.41953  -0.41845  -0.41333  -0.41174  -0.41130
 Alpha  occ. eigenvalues --   -0.40481  -0.40293  -0.40105  -0.39779  -0.39552
 Alpha  occ. eigenvalues --   -0.39462  -0.38771  -0.38695  -0.38596  -0.38000
 Alpha  occ. eigenvalues --   -0.37799  -0.37577  -0.37216  -0.37113  -0.36704
 Alpha  occ. eigenvalues --   -0.36605  -0.36160  -0.35629  -0.34757  -0.34442
 Alpha  occ. eigenvalues --   -0.34237  -0.34146  -0.33765  -0.33242  -0.33108
 Alpha  occ. eigenvalues --   -0.32201  -0.31810  -0.30857  -0.30249  -0.30023
 Alpha  occ. eigenvalues --   -0.27822  -0.27087  -0.26671  -0.25961  -0.25444
 Alpha  occ. eigenvalues --   -0.25267  -0.25112  -0.24481  -0.24133  -0.21617
 Alpha  occ. eigenvalues --   -0.17836
 Alpha virt. eigenvalues --   -0.10369  -0.05890  -0.03248  -0.01134  -0.01006
 Alpha virt. eigenvalues --    0.00505   0.02001   0.02232   0.02881   0.03405
 Alpha virt. eigenvalues --    0.04103   0.04619   0.05193   0.05965   0.06217

 Mulliken charges:
               1
     1  O   -0.245068
     2  O   -0.183385
     3  O   -0.106753
     4  O   -0.233221
     5  O   -0.257541
     6  O   -0.190136
     7  N   -0.128367
     8  N   -0.204947
     9  N   -0.212347
    10  N   -0.285659
    11  C   -0.129166
    12  C    0.044928
    13  C   -0.238505
    14  C    0.159609
    15  C   -0.127346
    16  C    0.137613
    17  C   -0.009636
    18  C   -0.085095
    19  C    0.152930
    20  C   -0.174535
    21  C    0.091341
    22  C    0.121224
    23  C    0.080263
    24  C    0.228572
    25  C   -0.165220
    26  C    0.086664
    27  C    0.188367
    28  C    0.036414
    29  C   -0.066699
    30  C    0.045630
    31  C   -0.106456
    32  C    0.081729
    33  C   -0.236802
    34  C    0.092343
    35  C   -0.119873
    36  C   -0.185558
    37  C    0.130565
    38  C    0.050543
    39  C    0.103903
    40  C    0.217675
    41  C    0.156728
    42  C    0.000210
    43  C    0.052683
    44  H    0.134173
    45  H   -0.036319
    46  H    0.011931
    47  H   -0.025889
    48  H    0.080272
    49  H   -0.044326
    50  H   -0.004651
    51  H    0.078413
    52  H    0.193757
    53  H    0.005682
    54  H    0.076865
    55  H    0.025533
    56  H    0.191355
    57  H   -0.003409
    58  H    0.040565
    59  H    0.068788
    60  H    0.055622
    61  H    0.043067
    62  H    0.027985
    63  H    0.029699
    64  H   -0.056825
    65  H   -0.008749
    66  H    0.018065
    67  H    0.028441
    68  H    0.014091
    69  H    0.075796
    70  H   -0.006344
    71  H   -0.000031
    72  H   -0.013692
    73  H   -0.040145
    74  H    0.055046
    75  H    0.049877
    76  H    0.013382
    77  H   -0.059903
    78  H    0.008371
    79  H    0.032792
    80  H    0.212075
    81  H    0.161018
 Sum of Mulliken charges =  -0.00000

 Dipole moment (field-independent basis, Debye):
    X=             -3.6440    Y=              1.4591    Z=             -1.2285  Tot=              4.1130
 Quadrupole moment (field-independent basis, Debye-Ang):
   XX=           -256.5241   YY=           -235.4291   ZZ=           -252.7170
   XY=             23.5136   XZ=             18.0938   YZ=            -11.9146

 Normal termination of Gaussian 16 at Mon Jul  1 16:42:10 2019.
