 Gaussian 16, Revision A.03,
 Gaussian 16:  ES64L-G16RevA.03 25-Dec-2016

 --------------------------
 # td=(NStates=1) B3LYP/SVP
 --------------------------

 --
 TD
 --
 Symbolic Z-matrix:
 Charge =  0 Multiplicity = 1

                         Standard orientation:
 ---------------------------------------------------------------------
 Center     Atomic      Atomic             Coordinates (Angstroms)
 Number     Number       Type             X           Y           Z
 ---------------------------------------------------------------------
      1          8           0        4.016387   -4.924010   -1.788658
      2          8           0       -3.102136   -4.529825   -1.132885
      3          8           0       -6.874024   -1.295957   -2.054923
      4          8           0       -3.890714   -2.923163    0.127849
      5          8           0       -7.419618   -0.623806    0.138614
      6          8           0        3.129072    2.110965    0.273686
      7          7           0        0.157582   -0.509967    0.607466
      8          7           0       -1.541931    1.896348    0.272637
      9          7           0        3.146845   -3.146565   -0.612445
     10          7           0        0.969947    2.752423    0.146832
     11          6           0       -0.814655   -2.378480    1.336257
     12          6           0       -1.041572   -1.208861    0.880906
     13          6           0        0.639437   -2.550705    1.224695
     14          6           0        1.143866   -1.377100    0.704079
     15          6           0       -3.778410    1.636199    0.238776
     16          6           0       -2.457757    0.952639    0.501094
     17          6           0       -2.260495   -0.345929    0.903068
     18          6           0       -3.490758    2.958934   -0.019109
     19          6           0       -1.801159   -3.237610    2.011957
     20          6           0        5.334951   -2.922067   -1.269985
     21          6           0        3.538500   -1.866325   -0.210631
     22          6           0       -2.052904    3.112114   -0.048308
     23          6           0        4.969934   -1.615535   -0.494424
     24          6           0       -5.095659    0.950541    0.286451
     25          6           0        2.516350   -1.060968    0.312034
     26          6           0        1.375876   -3.799676    1.831187
     27          6           0        4.102890   -3.818866   -1.192310
     28          6           0       -2.375386   -4.397207    1.138859
     29          6           0       -5.364302    0.099733   -0.907989
     30          6           0       -4.333443    4.122934   -0.359900
     31          6           0       -1.082989    4.133270   -0.228381
     32          6           0        6.629401   -3.582535   -0.932479
     33          6           0        5.749739   -0.720867   -0.121127
     34          6           0        0.248529    3.911536   -0.184083
     35          6           0        1.298969    5.038150   -0.377122
     36          6           0        2.457013    4.414940   -0.221550
     37          6           0       -3.199978   -3.748180   -0.045096
     38          6           0        5.543437    0.369656    0.778942
     39          6           0       -6.671317   -0.641628   -0.834257
     40          6           0        3.859358    5.020848   -0.340035
     41          6           0        2.279137    3.032577    0.099130
     42          6           0        0.992732    6.380966   -0.707518
     43          6           0        4.599305    5.297105    1.010354
     44          1           0        0.289836    0.384723    0.002495
     45          1           0       -3.193155   -0.936973    1.231560
     46          1           0       -2.498409   -2.557812    2.532865
     47          1           0       -1.445667   -3.724061    2.979906
     48          1           0        5.358290   -2.590052   -2.374359
     49          1           0       -5.087951    0.317016    1.167108
     50          1           0       -5.852463    1.713893    0.441873
     51          1           0        2.962718   -0.109756    0.234217
     52          1           0       -0.504982    1.952670    0.590221
     53          1           0        1.316853   -4.658282    0.980797
     54          1           0        2.493656   -3.659893    1.913067
     55          1           0        1.092772   -4.007782    2.973337
     56          1           0        2.143464   -3.433463   -0.773050
     57          1           0       -1.538824   -5.087262    0.507562
     58          1           0       -3.121481   -5.184138    1.682784
     59          1           0       -4.537262   -0.705881   -1.008510
     60          1           0       -5.187528    0.658149   -2.069970
     61          1           0       -4.240467    5.046253    0.351716
     62          1           0       -5.488456    3.735757   -0.602140
     63          1           0       -4.067166    4.406762   -1.378118
     64          1           0       -1.588315    5.227004   -0.487458
     65          1           0        7.668489   -2.972335   -1.020685
     66          1           0        7.007347   -4.390171   -1.711612
     67          1           0        6.645539   -4.159448   -0.068753
     68          1           0        6.608721   -0.834279   -0.676827
     69          1           0        4.928446    1.339422    0.401646
     70          1           0        6.425838    0.809528    1.146483
     71          1           0        4.712328    0.146763    1.607889
     72          1           0        3.912679    5.945509   -1.047810
     73          1           0        4.341317    4.161008   -1.054109
     74          1           0        0.549647    6.459330   -1.871840
     75          1           0        1.669864    7.115707   -0.630613
     76          1           0        0.341497    6.947975   -0.084223
     77          1           0        4.093308    6.172910    1.485311
     78          1           0        5.590264    5.690738    0.784705
     79          1           0        4.732852    4.399955    1.522266
     80          1           0       -3.611530   -4.183203   -1.820895
     81          1           0       -7.672747   -1.853208   -1.848642
 ---------------------------------------------------------------------

 SCF Done:  E(RB3LYP) =  -1949.03932868     A.U. after   19 cycles

 Excitation energies and oscillator strengths:

 Excited State   1:      Singlet-A      1.7461 eV  710.06 nm  f=0.2354  <S**2>=0.000
     156 ->157         0.70403
 This state for optimization and/or second-order correction.
 Total Energy, E(TD-HF/TD-DFT) =  -1948.97515993
 Copying the excited state density for this state as the 1-particle RhoCI density.

 The electronic state is 1-A.
 Alpha  occ. eigenvalues --  -19.19319 -19.18418 -19.15011 -19.14494 -19.09454
 Alpha  occ. eigenvalues --  -19.08616 -14.37074 -14.36846 -14.36831 -14.29257
 Alpha  occ. eigenvalues --  -10.33385 -10.32229 -10.27389 -10.25795 -10.25068
 Alpha  occ. eigenvalues --  -10.24412 -10.23744 -10.23553 -10.23191 -10.23143
 Alpha  occ. eigenvalues --  -10.23068 -10.22988 -10.22695 -10.22254 -10.22091
 Alpha  occ. eigenvalues --  -10.21432 -10.21397 -10.21347 -10.21047 -10.20657
 Alpha  occ. eigenvalues --  -10.20235 -10.20139 -10.19768 -10.19450 -10.19424
 Alpha  occ. eigenvalues --  -10.19182 -10.18787 -10.18262 -10.18223 -10.17847
 Alpha  occ. eigenvalues --  -10.17740 -10.16998 -10.16954  -1.15477  -1.08717
 Alpha  occ. eigenvalues --   -1.06173  -1.01455  -1.01248  -1.00270  -0.99501
 Alpha  occ. eigenvalues --   -0.99148  -0.94132  -0.91250  -0.83514  -0.82861
 Alpha  occ. eigenvalues --   -0.82534  -0.81715  -0.80168  -0.78604  -0.78429
 Alpha  occ. eigenvalues --   -0.76519  -0.76147  -0.75351  -0.74449  -0.72762
 Alpha  occ. eigenvalues --   -0.71324  -0.70199  -0.68806  -0.68421  -0.68062
 Alpha  occ. eigenvalues --   -0.67550  -0.66031  -0.64959  -0.62507  -0.61741
 Alpha  occ. eigenvalues --   -0.61055  -0.59628  -0.58722  -0.57899  -0.56609
 Alpha  occ. eigenvalues --   -0.56531  -0.56077  -0.55467  -0.54171  -0.53699
 Alpha  occ. eigenvalues --   -0.53006  -0.51805  -0.51277  -0.50639  -0.50268
 Alpha  occ. eigenvalues --   -0.50037  -0.49555  -0.49013  -0.48319  -0.47778
 Alpha  occ. eigenvalues --   -0.47245  -0.46892  -0.46486  -0.46231  -0.46040
 Alpha  occ. eigenvalues --   -0.45064  -0.44862  -0.44549  -0.44135  -0.43967
 Alpha  occ. eigenvalues --   -0.43430  -0.43264  -0.42998  -0.42546  -0.42280
 Alpha  occ. eigenvalues --   -0.41923  -0.41754  -0.41292  -0.41005  -0.40740
 Alpha  occ. eigenvalues --   -0.40491  -0.40239  -0.40124  -0.39866  -0.39775
 Alpha  occ. eigenvalues --   -0.38836  -0.38581  -0.38240  -0.37799  -0.37666
 Alpha  occ. eigenvalues --   -0.37217  -0.37109  -0.36673  -0.36483  -0.36221
 Alpha  occ. eigenvalues --   -0.35956  -0.35608  -0.35523  -0.35121  -0.34379
 Alpha  occ. eigenvalues --   -0.34200  -0.33948  -0.33505  -0.33439  -0.33365
 Alpha  occ. eigenvalues --   -0.32405  -0.31680  -0.30666  -0.29983  -0.29627
 Alpha  occ. eigenvalues --   -0.29184  -0.27080  -0.26978  -0.26519  -0.25392
 Alpha  occ. eigenvalues --   -0.24661  -0.24335  -0.23847  -0.23575  -0.21675
 Alpha  occ. eigenvalues --   -0.18750
 Alpha virt. eigenvalues --   -0.11337  -0.05735  -0.03803  -0.02076   0.00704
 Alpha virt. eigenvalues --    0.01127   0.02131   0.02753   0.03166   0.03229
 Alpha virt. eigenvalues --    0.03986   0.04638   0.05212   0.05770   0.06058

 Mulliken charges:
               1
     1  O   -0.274739
     2  O   -0.153143
     3  O   -0.225482
     4  O   -0.089739
     5  O   -0.229123
     6  O   -0.257556
     7  N   -0.085895
     8  N   -0.088719
     9  N   -0.053852
    10  N   -0.296863
    11  C   -0.082844
    12  C    0.054349
    13  C   -0.212875
    14  C    0.116045
    15  C   -0.111567
    16  C    0.093142
    17  C   -0.108029
    18  C   -0.097434
    19  C    0.096851
    20  C   -0.055091
    21  C   -0.045538
    22  C    0.046980
    23  C    0.105604
    24  C    0.185526
    25  C   -0.038614
    26  C    0.011689
    27  C    0.089075
    28  C   -0.095664
    29  C   -0.117368
    30  C    0.024259
    31  C   -0.180631
    32  C    0.016912
    33  C   -0.117643
    34  C    0.132188
    35  C   -0.045685
    36  C   -0.143974
    37  C    0.071001
    38  C    0.016857
    39  C    0.196139
    40  C   -0.037244
    41  C    0.153104
    42  C    0.110809
    43  C    0.067244
    44  H    0.175715
    45  H    0.038406
    46  H    0.014613
    47  H    0.008862
    48  H    0.051347
    49  H    0.015192
    50  H    0.007917
    51  H   -0.041597
    52  H    0.180095
    53  H    0.043091
    54  H    0.028184
    55  H    0.054170
    56  H    0.155279
    57  H    0.065090
    58  H    0.068741
    59  H    0.063166
    60  H    0.062819
    61  H    0.060942
    62  H    0.030304
    63  H    0.027139
    64  H    0.025872
    65  H    0.023502
    66  H    0.022306
    67  H    0.000210
    68  H   -0.056004
    69  H    0.094217
    70  H   -0.008752
    71  H    0.035042
    72  H    0.006476
    73  H    0.030885
    74  H    0.040801
    75  H   -0.038024
    76  H   -0.000421
    77  H    0.014451
    78  H    0.002552
    79  H    0.022377
    80  H    0.145764
    81  H    0.186809
 Sum of Mulliken charges =  -0.00000

 Dipole moment (field-independent basis, Debye):
    X=             -4.9257    Y=              3.6886    Z=             -0.5365  Tot=              6.1771
 Quadrupole moment (field-independent basis, Debye-Ang):
   XX=           -254.3033   YY=           -244.2326   ZZ=           -254.0489
   XY=             19.2772   XZ=             14.1301   YZ=            -12.4404

 Normal termination of Gaussian 16 at Mon Jul  1 00:04:04 2019.
