 Gaussian 16, Revision A.03,
 Gaussian 16:  ES64L-G16RevA.03 25-Dec-2016

 --------------------------
 # td=(NStates=1) B3LYP/SVP
 --------------------------

 --
 TD
 --
 Symbolic Z-matrix:
 Charge =  0 Multiplicity = 1

                         Standard orientation:
 ---------------------------------------------------------------------
 Center     Atomic      Atomic             Coordinates (Angstroms)
 Number     Number       Type             X           Y           Z
 ---------------------------------------------------------------------
      1          8           0        4.170002   -4.954028   -1.712323
      2          8           0       -2.803575   -4.698161   -1.125666
      3          8           0       -6.861196   -1.460861   -2.054170
      4          8           0       -3.848357   -3.031692    0.085635
      5          8           0       -7.423210   -0.750984    0.087081
      6          8           0        2.981203    2.305593    0.411529
      7          7           0        0.187284   -0.563530    0.670503
      8          7           0       -1.593123    1.801306    0.356615
      9          7           0        3.276093   -3.192655   -0.751122
     10          7           0        0.778107    2.923726    0.161756
     11          6           0       -0.784830   -2.383197    1.535690
     12          6           0       -0.988055   -1.101524    1.083775
     13          6           0        0.640862   -2.574272    1.452722
     14          6           0        1.232293   -1.517217    0.812688
     15          6           0       -3.787302    1.557279    0.137487
     16          6           0       -2.570755    0.924861    0.507914
     17          6           0       -2.193693   -0.400136    0.978624
     18          6           0       -3.432337    2.929287   -0.062011
     19          6           0       -1.780743   -3.337185    2.093078
     20          6           0        5.425632   -2.823809   -1.376961
     21          6           0        3.527764   -1.932615   -0.194964
     22          6           0       -2.057789    3.023123   -0.042547
     23          6           0        4.955921   -1.614330   -0.599599
     24          6           0       -5.049306    0.865098    0.308461
     25          6           0        2.625238   -1.103426    0.453097
     26          6           0        1.476574   -3.834824    1.927455
     27          6           0        4.323281   -3.882252   -1.334920
     28          6           0       -2.131941   -4.479319    0.996176
     29          6           0       -5.290390   -0.124551   -0.894816
     30          6           0       -4.459197    3.899895   -0.561504
     31          6           0       -1.215284    4.147243   -0.251907
     32          6           0        6.808907   -3.506742   -1.007614
     33          6           0        5.718588   -0.599876   -0.235113
     34          6           0        0.193402    4.133672   -0.217546
     35          6           0        1.123968    5.134526   -0.448004
     36          6           0        2.314127    4.598077   -0.277398
     37          6           0       -3.032878   -3.886797   -0.100493
     38          6           0        5.466588    0.674326    0.559883
     39          6           0       -6.624172   -0.759874   -0.846998
     40          6           0        3.693085    5.247139   -0.263891
     41          6           0        2.177897    3.173409    0.166108
     42          6           0        0.679566    6.485294   -0.870111
     43          6           0        4.270367    5.683363    1.183510
     44          1           0        0.555279    0.239245    0.059518
     45          1           0       -3.212463   -0.975559    1.474021
     46          1           0       -2.554511   -2.596862    2.390730
     47          1           0       -1.072339   -4.015851    2.824308
     48          1           0        5.405991   -2.568448   -2.556343
     49          1           0       -5.178327    0.259307    1.124738
     50          1           0       -5.918040    1.636341    0.293752
     51          1           0        2.806378    0.028999    0.513465
     52          1           0       -0.573272    1.529433    0.394947
     53          1           0        1.413359   -4.664880    1.121695
     54          1           0        2.323281   -3.546755    2.042186
     55          1           0        1.059351   -4.140171    2.885988
     56          1           0        2.593241   -3.782390   -0.522715
     57          1           0       -1.195906   -4.991065    0.767850
     58          1           0       -2.802920   -5.185749    1.559108
     59          1           0       -4.532649   -0.762185   -0.980441
     60          1           0       -5.112423    0.103757   -2.061171
     61          1           0       -3.749946    4.984593   -0.302835
     62          1           0       -5.450499    3.905839   -0.024813
     63          1           0       -4.470099    3.602460   -1.771793
     64          1           0       -1.722747    5.295768   -0.524965
     65          1           0        7.672246   -2.881324   -1.385285
     66          1           0        6.691561   -4.692390   -1.443932
     67          1           0        6.718972   -3.438627    0.152384
     68          1           0        6.785142   -0.601429   -0.523107
     69          1           0        4.937950    1.392430   -0.069015
     70          1           0        6.294637    1.045572    1.080986
     71          1           0        4.718673    0.371390    1.206600
     72          1           0        3.600480    6.172073   -0.928410
     73          1           0        4.519648    4.767610   -0.810171
     74          1           0        0.000161    6.489320   -1.880848
     75          1           0        1.433181    7.030473   -1.125706
     76          1           0        0.245756    6.993717   -0.043299
     77          1           0        3.646971    6.434582    1.568386
     78          1           0        5.270453    6.169394    1.084123
     79          1           0        4.358390    4.856357    1.912298
     80          1           0       -3.635502   -4.399845   -1.662542
     81          1           0       -7.659251   -1.813895   -2.102283
 ---------------------------------------------------------------------

 SCF Done:  E(RB3LYP) =  -1948.99048409     A.U. after   20 cycles

 Excitation energies and oscillator strengths:

 Excited State   1:      Singlet-A      1.6741 eV  740.60 nm  f=0.2874  <S**2>=0.000
     154 ->157         0.10526
     156 ->157         0.70953
     156 <-157        -0.15452
 This state for optimization and/or second-order correction.
 Total Energy, E(TD-HF/TD-DFT) =  -1948.92896203
 Copying the excited state density for this state as the 1-particle RhoCI density.

 The electronic state is 1-A.
 Alpha  occ. eigenvalues --  -19.21507 -19.16530 -19.15694 -19.13213 -19.12497
 Alpha  occ. eigenvalues --  -19.09802 -14.37479 -14.35849 -14.35497 -14.26592
 Alpha  occ. eigenvalues --  -10.34040 -10.32526 -10.29178 -10.25424 -10.25042
 Alpha  occ. eigenvalues --  -10.23727 -10.23560 -10.23435 -10.23244 -10.22916
 Alpha  occ. eigenvalues --  -10.22659 -10.22306 -10.22038 -10.21665 -10.21643
 Alpha  occ. eigenvalues --  -10.20884 -10.20393 -10.20316 -10.20264 -10.20186
 Alpha  occ. eigenvalues --  -10.20132 -10.20013 -10.19806 -10.19778 -10.19706
 Alpha  occ. eigenvalues --  -10.19684 -10.19390 -10.19314 -10.18444 -10.18427
 Alpha  occ. eigenvalues --  -10.18360 -10.17929 -10.16219  -1.12762  -1.08564
 Alpha  occ. eigenvalues --   -1.08127  -1.04438  -1.01233  -1.00469  -0.99403
 Alpha  occ. eigenvalues --   -0.98079  -0.96113  -0.90393  -0.82341  -0.82080
 Alpha  occ. eigenvalues --   -0.81783  -0.81198  -0.79111  -0.78681  -0.77023
 Alpha  occ. eigenvalues --   -0.76941  -0.76166  -0.74868  -0.74222  -0.72474
 Alpha  occ. eigenvalues --   -0.71589  -0.69618  -0.68882  -0.68625  -0.67841
 Alpha  occ. eigenvalues --   -0.67596  -0.65794  -0.65479  -0.63071  -0.61655
 Alpha  occ. eigenvalues --   -0.60505  -0.60248  -0.58523  -0.56570  -0.56368
 Alpha  occ. eigenvalues --   -0.56087  -0.55298  -0.54729  -0.53954  -0.53282
 Alpha  occ. eigenvalues --   -0.52151  -0.51823  -0.51620  -0.51167  -0.50275
 Alpha  occ. eigenvalues --   -0.49784  -0.49452  -0.48701  -0.48361  -0.47611
 Alpha  occ. eigenvalues --   -0.47096  -0.46988  -0.45702  -0.45511  -0.45262
 Alpha  occ. eigenvalues --   -0.44970  -0.44680  -0.44431  -0.44053  -0.43505
 Alpha  occ. eigenvalues --   -0.43348  -0.43134  -0.42738  -0.42517  -0.42430
 Alpha  occ. eigenvalues --   -0.42116  -0.41827  -0.41173  -0.40997  -0.40886
 Alpha  occ. eigenvalues --   -0.40641  -0.40446  -0.39928  -0.39866  -0.39368
 Alpha  occ. eigenvalues --   -0.39160  -0.38874  -0.38834  -0.38508  -0.38285
 Alpha  occ. eigenvalues --   -0.37892  -0.37327  -0.37102  -0.36648  -0.36248
 Alpha  occ. eigenvalues --   -0.36132  -0.35856  -0.35708  -0.35395  -0.35334
 Alpha  occ. eigenvalues --   -0.34747  -0.34538  -0.33651  -0.33255  -0.33026
 Alpha  occ. eigenvalues --   -0.32592  -0.32266  -0.31949  -0.30780  -0.29746
 Alpha  occ. eigenvalues --   -0.28464  -0.27576  -0.26988  -0.26356  -0.25905
 Alpha  occ. eigenvalues --   -0.25032  -0.24281  -0.22935  -0.22739  -0.21174
 Alpha  occ. eigenvalues --   -0.17492
 Alpha virt. eigenvalues --   -0.11058  -0.05669  -0.04020  -0.01475  -0.00880
 Alpha virt. eigenvalues --    0.00484   0.02081   0.02419   0.02843   0.03130
 Alpha virt. eigenvalues --    0.04357   0.04975   0.05312   0.05790   0.05822

 Mulliken charges:
               1
     1  O   -0.129546
     2  O   -0.163486
     3  O   -0.189407
     4  O   -0.202692
     5  O   -0.231331
     6  O   -0.200093
     7  N   -0.149453
     8  N   -0.024020
     9  N   -0.075282
    10  N   -0.368379
    11  C   -0.107930
    12  C    0.136741
    13  C   -0.215083
    14  C    0.043613
    15  C   -0.054899
    16  C   -0.022416
    17  C   -0.113105
    18  C   -0.139274
    19  C    0.053361
    20  C   -0.099726
    21  C    0.127656
    22  C    0.133652
    23  C    0.040238
    24  C    0.158758
    25  C   -0.156783
    26  C    0.209542
    27  C    0.067334
    28  C    0.007288
    29  C   -0.014131
    30  C   -0.045948
    31  C   -0.169178
    32  C   -0.042118
    33  C   -0.237703
    34  C    0.054085
    35  C   -0.075972
    36  C   -0.184091
    37  C    0.145833
    38  C    0.159937
    39  C    0.180864
    40  C    0.035295
    41  C    0.161155
    42  C    0.207364
    43  C    0.012237
    44  H    0.180532
    45  H    0.065093
    46  H    0.031043
    47  H    0.028546
    48  H    0.060492
    49  H    0.003441
    50  H    0.018472
    51  H    0.069789
    52  H    0.132273
    53  H    0.048036
    54  H   -0.078605
    55  H    0.014103
    56  H    0.062363
    57  H    0.031483
    58  H    0.054738
    59  H   -0.016296
    60  H    0.032516
    61  H    0.047166
    62  H    0.056934
    63  H    0.073525
    64  H    0.024440
    65  H    0.047023
    66  H    0.075171
    67  H    0.038142
    68  H   -0.009247
    69  H    0.057518
    70  H   -0.003268
    71  H   -0.002714
    72  H   -0.011557
    73  H    0.008219
    74  H    0.041239
    75  H   -0.071201
    76  H    0.013041
    77  H   -0.003323
    78  H    0.010410
    79  H    0.034258
    80  H    0.188704
    81  H    0.124594
 Sum of Mulliken charges =  -0.00000

 Dipole moment (field-independent basis, Debye):
    X=             -1.0536    Y=             -0.8286    Z=             -1.3113  Tot=              1.8751
 Quadrupole moment (field-independent basis, Debye-Ang):
   XX=           -252.5888   YY=           -239.1998   ZZ=           -253.8064
   XY=             14.9384   XZ=             13.8106   YZ=             -9.8589

 Normal termination of Gaussian 16 at Tue Jul  2 15:50:24 2019.
