 Gaussian 16, Revision A.03,
 Gaussian 16:  ES64L-G16RevA.03 25-Dec-2016

 --------------------------
 # td=(NStates=1) B3LYP/SVP
 --------------------------

 --
 TD
 --
 Symbolic Z-matrix:
 Charge =  0 Multiplicity = 1

                         Standard orientation:
 ---------------------------------------------------------------------
 Center     Atomic      Atomic             Coordinates (Angstroms)
 Number     Number       Type             X           Y           Z
 ---------------------------------------------------------------------
      1          8           0        4.301320   -4.997996   -1.757090
      2          8           0       -2.794282   -4.882136   -0.975160
      3          8           0       -6.966324   -1.641195   -1.890380
      4          8           0       -3.813557   -3.146723    0.112015
      5          8           0       -7.574117   -0.693557    0.048187
      6          8           0        2.978527    2.393352    0.535380
      7          7           0        0.285973   -0.526838    0.399966
      8          7           0       -1.568170    1.908984    0.361418
      9          7           0        3.330287   -3.170898   -0.744788
     10          7           0        0.780644    2.996584    0.063088
     11          6           0       -0.653557   -2.315949    1.437957
     12          6           0       -0.966237   -1.017588    0.952495
     13          6           0        0.848838   -2.579540    1.334867
     14          6           0        1.301544   -1.374963    0.674559
     15          6           0       -3.768993    1.471193    0.098867
     16          6           0       -2.482887    0.873320    0.496454
     17          6           0       -2.199270   -0.510907    0.829409
     18          6           0       -3.627550    2.790689   -0.276032
     19          6           0       -1.582731   -3.215185    2.075121
     20          6           0        5.543654   -2.839048   -1.402420
     21          6           0        3.556721   -1.943954   -0.251174
     22          6           0       -2.115027    3.001538   -0.012184
     23          6           0        5.034088   -1.637057   -0.551813
     24          6           0       -5.016911    0.792517    0.166384
     25          6           0        2.636438   -1.046952    0.362266
     26          6           0        1.509288   -3.739352    1.814699
     27          6           0        4.458922   -3.820642   -1.352245
     28          6           0       -2.111339   -4.443483    1.245421
     29          6           0       -5.356765   -0.366159   -0.827805
     30          6           0       -4.576799    3.807913   -0.616372
     31          6           0       -1.327267    4.153722   -0.376937
     32          6           0        6.882873   -3.334218   -0.893690
     33          6           0        5.782485   -0.603987   -0.267348
     34          6           0        0.111211    4.116413   -0.239917
     35          6           0        1.031407    5.248557   -0.358061
     36          6           0        2.253505    4.709527   -0.164109
     37          6           0       -3.028668   -4.058725    0.094151
     38          6           0        5.427455    0.591312    0.667372
     39          6           0       -6.761855   -0.846705   -0.801433
     40          6           0        3.536080    5.430303   -0.257998
     41          6           0        2.144919    3.296340    0.087159
     42          6           0        0.643997    6.612307   -0.714267
     43          6           0        4.215093    5.600083    1.134848
     44          1           0        0.439942    0.294326   -0.329194
     45          1           0       -3.172032   -1.203155    0.914265
     46          1           0       -2.586868   -2.719746    2.324637
     47          1           0       -1.139285   -3.660503    2.955733
     48          1           0        5.693714   -2.353935   -2.499629
     49          1           0       -4.982207    0.269299    1.154866
     50          1           0       -5.937862    1.423851    0.341134
     51          1           0        3.193958    0.001201    0.285288
     52          1           0       -0.480072    2.002188    0.362176
     53          1           0        1.270283   -4.695354    1.246389
     54          1           0        2.645101   -3.511410    2.031110
     55          1           0        1.028081   -3.636583    3.110222
     56          1           0        2.570088   -3.795287   -0.977726
     57          1           0       -1.247217   -5.143777    1.038445
     58          1           0       -2.786458   -4.942707    2.071384
     59          1           0       -4.739488   -1.452335   -0.766646
     60          1           0       -5.092543    0.232309   -1.743766
     61          1           0       -4.633886    4.583114    0.063503
     62          1           0       -5.620283    3.342089   -0.255020
     63          1           0       -4.590790    4.205526   -1.682471
     64          1           0       -1.864252    4.928225   -0.687249
     65          1           0        7.667597   -2.681294   -0.893335
     66          1           0        7.232779   -4.440814   -1.319049
     67          1           0        6.755071   -3.759019    0.239412
     68          1           0        6.729092   -0.515922   -0.843219
     69          1           0        5.056546    1.633156    0.285267
     70          1           0        6.456494    0.928465    1.246375
     71          1           0        4.653534    0.308738    1.339626
     72          1           0        3.281763    6.449264   -0.686528
     73          1           0        4.268719    5.001327   -0.965540
     74          1           0       -0.067473    6.641711   -1.534204
     75          1           0        1.477758    7.281500   -0.681666
     76          1           0        0.062235    7.260127    0.058900
     77          1           0        3.456948    6.154561    1.778953
     78          1           0        4.960176    6.183754    1.026846
     79          1           0        4.535281    4.577574    1.499358
     80          1           0       -3.478593   -4.787183   -1.764005
     81          1           0       -7.925485   -1.919977   -1.535385
 ---------------------------------------------------------------------

 SCF Done:  E(RB3LYP) =  -1949.04965995     A.U. after   19 cycles

 Excitation energies and oscillator strengths:

 Excited State   1:      Singlet-A      1.7640 eV  702.84 nm  f=0.3204  <S**2>=0.000
     156 ->157         0.70661
     156 <-157        -0.12213
 This state for optimization and/or second-order correction.
 Total Energy, E(TD-HF/TD-DFT) =  -1948.98483265
 Copying the excited state density for this state as the 1-particle RhoCI density.

 The electronic state is 1-A.
 Alpha  occ. eigenvalues --  -19.20318 -19.18072 -19.15696 -19.13255 -19.12691
 Alpha  occ. eigenvalues --  -19.09284 -14.37902 -14.37854 -14.35536 -14.28129
 Alpha  occ. eigenvalues --  -10.34766 -10.31496 -10.30650 -10.25785 -10.25697
 Alpha  occ. eigenvalues --  -10.23875 -10.23336 -10.23096 -10.23055 -10.22976
 Alpha  occ. eigenvalues --  -10.22897 -10.22887 -10.22008 -10.21913 -10.20928
 Alpha  occ. eigenvalues --  -10.20927 -10.20908 -10.20750 -10.20254 -10.20192
 Alpha  occ. eigenvalues --  -10.20111 -10.19865 -10.19745 -10.19696 -10.19422
 Alpha  occ. eigenvalues --  -10.19326 -10.19157 -10.19060 -10.18847 -10.18331
 Alpha  occ. eigenvalues --  -10.18022 -10.17909 -10.16505  -1.10470  -1.10086
 Alpha  occ. eigenvalues --   -1.03448  -1.02617  -1.00732  -0.98957  -0.97045
 Alpha  occ. eigenvalues --   -0.96332  -0.95563  -0.90776  -0.82842  -0.82539
 Alpha  occ. eigenvalues --   -0.82351  -0.80804  -0.79879  -0.78321  -0.77326
 Alpha  occ. eigenvalues --   -0.77037  -0.76304  -0.75124  -0.73881  -0.72127
 Alpha  occ. eigenvalues --   -0.71309  -0.69408  -0.69160  -0.67778  -0.67376
 Alpha  occ. eigenvalues --   -0.66907  -0.65680  -0.65063  -0.62920  -0.61540
 Alpha  occ. eigenvalues --   -0.60962  -0.59566  -0.56995  -0.56843  -0.56051
 Alpha  occ. eigenvalues --   -0.55640  -0.54370  -0.54058  -0.53880  -0.53137
 Alpha  occ. eigenvalues --   -0.52352  -0.51808  -0.51371  -0.50602  -0.49479
 Alpha  occ. eigenvalues --   -0.49466  -0.48795  -0.48576  -0.48471  -0.47740
 Alpha  occ. eigenvalues --   -0.47021  -0.46685  -0.46299  -0.45549  -0.45207
 Alpha  occ. eigenvalues --   -0.44894  -0.44611  -0.44443  -0.44139  -0.43819
 Alpha  occ. eigenvalues --   -0.43671  -0.43104  -0.42946  -0.42819  -0.42488
 Alpha  occ. eigenvalues --   -0.42054  -0.41659  -0.41379  -0.41201  -0.40851
 Alpha  occ. eigenvalues --   -0.40475  -0.40138  -0.40051  -0.39737  -0.39475
 Alpha  occ. eigenvalues --   -0.39347  -0.38639  -0.38518  -0.38225  -0.37834
 Alpha  occ. eigenvalues --   -0.37415  -0.37082  -0.36787  -0.36428  -0.36122
 Alpha  occ. eigenvalues --   -0.35711  -0.35332  -0.34944  -0.34767  -0.34663
 Alpha  occ. eigenvalues --   -0.34344  -0.33420  -0.33302  -0.32736  -0.32585
 Alpha  occ. eigenvalues --   -0.32182  -0.31583  -0.31102  -0.30848  -0.29489
 Alpha  occ. eigenvalues --   -0.28728  -0.27621  -0.26757  -0.26369  -0.25125
 Alpha  occ. eigenvalues --   -0.24349  -0.23669  -0.23485  -0.22767  -0.21006
 Alpha  occ. eigenvalues --   -0.17206
 Alpha virt. eigenvalues --   -0.10135  -0.06323  -0.04182  -0.02845  -0.02628
 Alpha virt. eigenvalues --    0.00672   0.01441   0.01613   0.02330   0.03047
 Alpha virt. eigenvalues --    0.04049   0.04662   0.04732   0.05143   0.05610

 Mulliken charges:
               1
     1  O   -0.239398
     2  O   -0.239420
     3  O   -0.233858
     4  O   -0.203385
     5  O   -0.211465
     6  O   -0.294407
     7  N   -0.143441
     8  N   -0.025539
     9  N   -0.108380
    10  N   -0.301617
    11  C   -0.085029
    12  C    0.180678
    13  C   -0.097636
    14  C    0.118554
    15  C   -0.039025
    16  C    0.055165
    17  C   -0.151049
    18  C   -0.127628
    19  C    0.053706
    20  C   -0.046045
    21  C    0.078566
    22  C   -0.033206
    23  C   -0.024329
    24  C    0.036003
    25  C   -0.166983
    26  C   -0.064293
    27  C    0.136900
    28  C   -0.035741
    29  C   -0.097205
    30  C    0.090467
    31  C   -0.018928
    32  C    0.002605
    33  C   -0.156735
    34  C    0.085828
    35  C   -0.053679
    36  C   -0.161543
    37  C    0.179416
    38  C   -0.013415
    39  C    0.143353
    40  C    0.020817
    41  C    0.186540
    42  C    0.110615
    43  C    0.070349
    44  H    0.187682
    45  H    0.078781
    46  H    0.021650
    47  H   -0.005723
    48  H    0.082308
    49  H    0.006006
    50  H    0.022104
    51  H    0.074607
    52  H    0.161431
    53  H    0.066807
    54  H    0.059579
    55  H    0.045899
    56  H    0.134415
    57  H    0.040404
    58  H    0.061356
    59  H    0.114479
    60  H    0.041304
    61  H    0.001307
    62  H    0.005477
    63  H    0.046732
    64  H   -0.100900
    65  H    0.009392
    66  H    0.048758
    67  H    0.024837
    68  H    0.002959
    69  H    0.084242
    70  H    0.019060
    71  H    0.032935
    72  H   -0.013072
    73  H    0.008474
    74  H    0.025614
    75  H   -0.007270
    76  H    0.013150
    77  H    0.008853
    78  H   -0.046886
    79  H    0.047666
    80  H    0.227373
    81  H    0.192028
 Sum of Mulliken charges =  -0.00000

 Dipole moment (field-independent basis, Debye):
    X=             -1.6350    Y=             -0.6115    Z=             -1.7428  Tot=              2.4667
 Quadrupole moment (field-independent basis, Debye-Ang):
   XX=           -250.8942   YY=           -235.8248   ZZ=           -256.3881
   XY=             13.5299   XZ=              5.5214   YZ=            -11.5672

 Normal termination of Gaussian 16 at Wed Jun 26 21:05:24 2019.
