 Gaussian 16, Revision A.03,
 Gaussian 16:  ES64L-G16RevA.03 25-Dec-2016

 --------------------------
 # td=(NStates=1) B3LYP/SVP
 --------------------------

 --
 TD
 --
 Symbolic Z-matrix:
 Charge =  0 Multiplicity = 1

                         Standard orientation:
 ---------------------------------------------------------------------
 Center     Atomic      Atomic             Coordinates (Angstroms)
 Number     Number       Type             X           Y           Z
 ---------------------------------------------------------------------
      1          8           0        4.136518   -4.833114   -1.890526
      2          8           0       -3.097759   -4.751612   -1.152523
      3          8           0       -6.940936   -1.363915   -1.985061
      4          8           0       -3.867733   -3.092596   -0.007202
      5          8           0       -7.441168   -0.741782    0.157528
      6          8           0        2.942839    2.331140    0.336673
      7          7           0        0.230269   -0.453390    0.775468
      8          7           0       -1.551416    1.883410    0.467680
      9          7           0        3.218787   -3.172719   -0.702268
     10          7           0        0.766319    2.977888    0.087746
     11          6           0       -0.591223   -2.411862    1.414525
     12          6           0       -0.938791   -1.056552    1.042482
     13          6           0        0.794892   -2.591343    1.345433
     14          6           0        1.370681   -1.348942    0.833482
     15          6           0       -3.793205    1.532055    0.363942
     16          6           0       -2.468544    0.805880    0.541720
     17          6           0       -2.306566   -0.459193    0.858785
     18          6           0       -3.539177    2.890127    0.046165
     19          6           0       -1.672031   -3.372793    1.972758
     20          6           0        5.468726   -2.898414   -1.313625
     21          6           0        3.527116   -1.855079   -0.223958
     22          6           0       -2.071003    3.066617    0.097316
     23          6           0        4.924222   -1.682817   -0.531754
     24          6           0       -5.085858    0.812976    0.357773
     25          6           0        2.625347   -0.943458    0.399759
     26          6           0        1.573252   -3.821776    1.884837
     27          6           0        4.213983   -3.776936   -1.381163
     28          6           0       -2.014840   -4.504811    0.974951
     29          6           0       -5.329625   -0.007559   -1.006291
     30          6           0       -4.462488    3.982780   -0.377049
     31          6           0       -1.249237    4.171468   -0.267700
     32          6           0        6.738314   -3.643826   -0.899072
     33          6           0        5.791093   -0.664859   -0.104136
     34          6           0        0.121630    4.097683   -0.207993
     35          6           0        1.077900    5.201716   -0.588459
     36          6           0        2.351003    4.648287   -0.277767
     37          6           0       -3.062417   -4.060744   -0.070416
     38          6           0        5.345687    0.442654    0.731227
     39          6           0       -6.688196   -0.811626   -0.870865
     40          6           0        3.719647    5.239162   -0.373393
     41          6           0        2.066161    3.174780    0.076693
     42          6           0        0.837155    6.576677   -0.830953
     43          6           0        4.467907    5.510911    0.938211
     44          1           0        0.376364    0.425494    0.292585
     45          1           0       -3.002976   -0.964484    1.208911
     46          1           0       -2.532040   -2.786638    2.528709
     47          1           0       -1.223794   -3.875914    2.762109
     48          1           0        5.515861   -2.643829   -2.326974
     49          1           0       -5.084843    0.072973    1.115626
     50          1           0       -5.967577    1.493283    0.455351
     51          1           0        2.843283    0.072794    0.440515
     52          1           0       -0.466217    2.000676    0.388933
     53          1           0        1.778712   -4.469646    1.122845
     54          1           0        2.497222   -3.559680    2.126481
     55          1           0        1.169795   -4.441603    2.787802
     56          1           0        2.229545   -3.476300   -0.777702
     57          1           0       -1.203887   -4.755771    0.573202
     58          1           0       -2.649103   -5.374664    1.437466
     59          1           0       -4.564420   -0.736054   -1.110697
     60          1           0       -5.209483    0.449148   -2.013384
     61          1           0       -4.254340    4.855875    0.158362
     62          1           0       -5.570037    3.525742   -0.310862
     63          1           0       -4.190097    4.325201   -1.455289
     64          1           0       -1.665323    4.998921   -0.673575
     65          1           0        7.600491   -3.069606   -1.171213
     66          1           0        6.626155   -4.578208   -1.423871
     67          1           0        6.828184   -3.915708    0.158443
     68          1           0        6.740607   -0.576060   -0.568356
     69          1           0        4.924603    1.388613    0.170617
     70          1           0        6.322475    0.879898    1.073515
     71          1           0        4.794759    0.514705    1.689868
     72          1           0        3.694057    6.256565   -0.836366
     73          1           0        4.241442    4.464391   -0.843663
     74          1           0        0.459567    6.599870   -1.947190
     75          1           0        1.632178    7.500635   -0.823952
     76          1           0       -0.234295    6.862148   -0.274234
     77          1           0        3.927194    6.222730    1.563016
     78          1           0        5.301459    5.942021    1.000007
     79          1           0        4.673334    4.556116    1.574152
     80          1           0       -3.725021   -4.407189   -1.641246
     81          1           0       -7.584716   -2.254823   -1.834229
 ---------------------------------------------------------------------

 SCF Done:  E(RB3LYP) =  -1949.05734173     A.U. after   17 cycles

 Excitation energies and oscillator strengths:

 Excited State   1:      Singlet-A      1.6193 eV  765.66 nm  f=0.2800  <S**2>=0.000
     156 ->157         0.70898
     156 <-157        -0.10860
 This state for optimization and/or second-order correction.
 Total Energy, E(TD-HF/TD-DFT) =  -1948.99783286
 Copying the excited state density for this state as the 1-particle RhoCI density.

 The electronic state is 1-A.
 Alpha  occ. eigenvalues --  -19.20896 -19.19816 -19.12917 -19.11751 -19.10274
 Alpha  occ. eigenvalues --  -19.09623 -14.37394 -14.36855 -14.35572 -14.29132
 Alpha  occ. eigenvalues --  -10.33507 -10.32345 -10.27924 -10.26214 -10.24596
 Alpha  occ. eigenvalues --  -10.24528 -10.23632 -10.23476 -10.23469 -10.23302
 Alpha  occ. eigenvalues --  -10.22143 -10.21991 -10.21101 -10.21089 -10.20786
 Alpha  occ. eigenvalues --  -10.20435 -10.20378 -10.20320 -10.20240 -10.20104
 Alpha  occ. eigenvalues --  -10.19932 -10.19865 -10.19708 -10.19559 -10.19342
 Alpha  occ. eigenvalues --  -10.19183 -10.18838 -10.18663 -10.18565 -10.18469
 Alpha  occ. eigenvalues --  -10.18132 -10.17292 -10.16394  -1.15384  -1.11030
 Alpha  occ. eigenvalues --   -1.05221  -1.00599  -0.99540  -0.97609  -0.97558
 Alpha  occ. eigenvalues --   -0.96630  -0.94895  -0.93049  -0.82378  -0.82047
 Alpha  occ. eigenvalues --   -0.80874  -0.80659  -0.79916  -0.79122  -0.77926
 Alpha  occ. eigenvalues --   -0.77185  -0.76275  -0.75603  -0.75006  -0.72761
 Alpha  occ. eigenvalues --   -0.71082  -0.70134  -0.69873  -0.68654  -0.67830
 Alpha  occ. eigenvalues --   -0.66987  -0.66048  -0.64134  -0.63387  -0.62954
 Alpha  occ. eigenvalues --   -0.61934  -0.60748  -0.60208  -0.58634  -0.57108
 Alpha  occ. eigenvalues --   -0.55720  -0.55459  -0.55102  -0.53384  -0.53149
 Alpha  occ. eigenvalues --   -0.52756  -0.52615  -0.50947  -0.50337  -0.49731
 Alpha  occ. eigenvalues --   -0.49476  -0.49283  -0.48797  -0.48100  -0.47940
 Alpha  occ. eigenvalues --   -0.47134  -0.46632  -0.46517  -0.45936  -0.45454
 Alpha  occ. eigenvalues --   -0.44761  -0.44346  -0.44237  -0.44041  -0.43735
 Alpha  occ. eigenvalues --   -0.43641  -0.43599  -0.43300  -0.42922  -0.42221
 Alpha  occ. eigenvalues --   -0.42158  -0.41861  -0.41400  -0.41161  -0.41081
 Alpha  occ. eigenvalues --   -0.40566  -0.40395  -0.40179  -0.39957  -0.39505
 Alpha  occ. eigenvalues --   -0.39393  -0.39311  -0.38996  -0.38746  -0.38508
 Alpha  occ. eigenvalues --   -0.38364  -0.37720  -0.37522  -0.36962  -0.36572
 Alpha  occ. eigenvalues --   -0.36017  -0.35845  -0.35622  -0.35028  -0.34852
 Alpha  occ. eigenvalues --   -0.34338  -0.34050  -0.33855  -0.33181  -0.32698
 Alpha  occ. eigenvalues --   -0.32581  -0.32503  -0.31159  -0.29938  -0.28632
 Alpha  occ. eigenvalues --   -0.27919  -0.27200  -0.26288  -0.25723  -0.25342
 Alpha  occ. eigenvalues --   -0.24401  -0.24252  -0.23992  -0.22621  -0.21827
 Alpha  occ. eigenvalues --   -0.17249
 Alpha virt. eigenvalues --   -0.10572  -0.06121  -0.04472  -0.01695  -0.01053
 Alpha virt. eigenvalues --    0.00893   0.01424   0.02298   0.03051   0.04191
 Alpha virt. eigenvalues --    0.04709   0.04793   0.05031   0.06415   0.06623

 Mulliken charges:
               1
     1  O   -0.175385
     2  O   -0.031677
     3  O   -0.175064
     4  O   -0.298969
     5  O   -0.295420
     6  O   -0.244827
     7  N   -0.087357
     8  N   -0.138854
     9  N   -0.124558
    10  N   -0.232410
    11  C   -0.151084
    12  C   -0.006366
    13  C   -0.174535
    14  C    0.075427
    15  C   -0.102670
    16  C    0.184377
    17  C    0.106479
    18  C   -0.139880
    19  C    0.118711
    20  C   -0.015788
    21  C    0.085046
    22  C    0.066816
    23  C   -0.052848
    24  C    0.137242
    25  C   -0.035197
    26  C    0.196625
    27  C    0.037444
    28  C    0.127174
    29  C   -0.035184
    30  C    0.095539
    31  C   -0.059473
    32  C    0.099754
    33  C   -0.075399
    34  C    0.094561
    35  C   -0.055921
    36  C   -0.194904
    37  C    0.066986
    38  C   -0.000166
    39  C    0.164997
    40  C    0.137085
    41  C    0.133807
    42  C   -0.034451
    43  C    0.044889
    44  H    0.130764
    45  H   -0.130473
    46  H    0.043176
    47  H   -0.029472
    48  H    0.009129
    49  H    0.008764
    50  H    0.025119
    51  H   -0.021748
    52  H    0.169359
    53  H   -0.028235
    54  H   -0.029715
    55  H    0.032900
    56  H    0.142727
    57  H   -0.042563
    58  H    0.060349
    59  H    0.015190
    60  H    0.027191
    61  H    0.008181
    62  H    0.046780
    63  H    0.029764
    64  H   -0.083319
    65  H    0.010747
    66  H    0.023125
    67  H    0.010413
    68  H   -0.013075
    69  H    0.077780
    70  H   -0.017995
    71  H    0.039745
    72  H   -0.001717
    73  H    0.004932
    74  H    0.027341
    75  H    0.065040
    76  H    0.040443
    77  H   -0.012918
    78  H   -0.058399
    79  H    0.024295
    80  H    0.114796
    81  H    0.247006
 Sum of Mulliken charges =  -0.00000

 Dipole moment (field-independent basis, Debye):
    X=             -2.1592    Y=              0.1154    Z=             -1.7943  Tot=              2.8098
 Quadrupole moment (field-independent basis, Debye-Ang):
   XX=           -255.2209   YY=           -231.3469   ZZ=           -253.8925
   XY=             22.7864   XZ=             18.2675   YZ=            -12.1720

 Normal termination of Gaussian 16 at Wed Jul  3 05:47:43 2019.
