 Gaussian 16, Revision A.03,
 Gaussian 16:  ES64L-G16RevA.03 25-Dec-2016

 --------------------------
 # td=(NStates=1) B3LYP/SVP
 --------------------------

 --
 TD
 --
 Symbolic Z-matrix:
 Charge =  0 Multiplicity = 1

                         Standard orientation:
 ---------------------------------------------------------------------
 Center     Atomic      Atomic             Coordinates (Angstroms)
 Number     Number       Type             X           Y           Z
 ---------------------------------------------------------------------
      1          8           0        3.958411   -5.038348   -1.961431
      2          8           0       -3.250720   -4.708667   -1.063276
      3          8           0       -7.059923   -1.273947   -1.899158
      4          8           0       -4.051357   -3.024575    0.195229
      5          8           0       -7.703798   -0.217358   -0.072489
      6          8           0        3.269083    2.362426    0.615714
      7          7           0        0.228222   -0.524161    0.628424
      8          7           0       -1.431147    1.908731    0.455465
      9          7           0        3.161188   -3.282896   -0.751272
     10          7           0        0.943829    2.901538    0.063680
     11          6           0       -0.775069   -2.401372    1.479416
     12          6           0       -0.993102   -0.988350    1.038106
     13          6           0        0.634590   -2.633925    1.266850
     14          6           0        1.239033   -1.442399    0.646933
     15          6           0       -3.678292    1.701115    0.336070
     16          6           0       -2.453762    0.969568    0.635044
     17          6           0       -2.225410   -0.334690    0.953412
     18          6           0       -3.395175    2.982356   -0.165394
     19          6           0       -1.793535   -3.324121    2.152964
     20          6           0        5.380525   -3.049976   -1.331005
     21          6           0        3.495956   -2.048228   -0.331065
     22          6           0       -2.000903    3.101958   -0.070180
     23          6           0        4.883197   -1.790611   -0.617127
     24          6           0       -4.936707    0.980565    0.330308
     25          6           0        2.601733   -1.203139    0.358650
     26          6           0        1.401209   -3.823086    1.709048
     27          6           0        4.145393   -3.950752   -1.323749
     28          6           0       -2.187821   -4.393660    1.096632
     29          6           0       -5.382423   -0.009709   -0.825290
     30          6           0       -4.262797    4.030348   -0.610037
     31          6           0       -1.089254    4.125062   -0.342949
     32          6           0        6.686153   -3.755617   -0.841223
     33          6           0        5.675014   -0.754064   -0.191329
     34          6           0        0.252723    3.991207   -0.400652
     35          6           0        1.337957    5.146629   -0.450761
     36          6           0        2.521858    4.659146   -0.108686
     37          6           0       -3.282080   -3.980689    0.079423
     38          6           0        5.466238    0.427372    0.681975
     39          6           0       -6.835724   -0.517628   -0.810394
     40          6           0        3.849645    5.171114   -0.308682
     41          6           0        2.320287    3.234747    0.181416
     42          6           0        0.979991    6.529080   -0.857845
     43          6           0        4.613972    5.431173    1.124521
     44          1           0        0.554051    0.353888    0.305269
     45          1           0       -3.121480   -0.933393    1.133430
     46          1           0       -2.618264   -2.768803    2.684220
     47          1           0       -1.218274   -3.880823    2.909978
     48          1           0        5.487747   -2.816576   -2.516979
     49          1           0       -5.033476    0.438377    1.235226
     50          1           0       -5.896121    1.681602    0.396312
     51          1           0        2.974086   -0.249446    0.477766
     52          1           0       -0.415006    1.813249    0.430329
     53          1           0        1.395040   -4.671816    0.873381
     54          1           0        2.422306   -3.525942    1.925003
     55          1           0        0.726420   -4.222765    2.558819
     56          1           0        2.098783   -3.620784   -1.104968
     57          1           0       -1.168825   -4.585053    0.573205
     58          1           0       -2.450698   -5.505908    1.569517
     59          1           0       -4.750743   -0.831444   -0.866428
     60          1           0       -5.319208    0.255602   -1.954777
     61          1           0       -4.077997    4.894335   -0.124900
     62          1           0       -5.351119    3.720026   -0.375344
     63          1           0       -4.045330    4.223345   -1.574246
     64          1           0       -1.750921    5.060796   -0.805963
     65          1           0        7.506074   -3.195283   -0.744184
     66          1           0        6.852259   -4.568236   -1.384956
     67          1           0        6.424210   -4.189112    0.186205
     68          1           0        6.672282   -0.728119   -0.675535
     69          1           0        4.850884    1.105047    0.120722
     70          1           0        6.430207    0.931642    0.934284
     71          1           0        4.956673    0.033161    1.453642
     72          1           0        3.736644    6.285465   -0.587287
     73          1           0        4.371451    4.387570   -1.027685
     74          1           0        0.370913    6.278712   -1.622683
     75          1           0        1.955741    6.992024   -1.287999
     76          1           0        0.431304    7.239771   -0.254079
     77          1           0        4.106855    6.264540    1.588462
     78          1           0        5.462471    5.844418    0.855693
     79          1           0        4.822818    4.508927    1.701391
     80          1           0       -4.205838   -4.632990   -1.378779
     81          1           0       -7.954643   -1.681275   -1.823253
 ---------------------------------------------------------------------

 SCF Done:  E(RB3LYP) =  -1949.09808354     A.U. after   20 cycles

 Excitation energies and oscillator strengths:

 Excited State   1:      Singlet-A      1.6833 eV  736.56 nm  f=0.3220  <S**2>=0.000
     156 ->157         0.71140
     156 <-157        -0.13052
 This state for optimization and/or second-order correction.
 Total Energy, E(TD-HF/TD-DFT) =  -1949.03622353
 Copying the excited state density for this state as the 1-particle RhoCI density.

 The electronic state is 1-A.
 Alpha  occ. eigenvalues --  -19.20122 -19.17894 -19.15037 -19.12571 -19.10371
 Alpha  occ. eigenvalues --  -19.08966 -14.38991 -14.38511 -14.35063 -14.29019
 Alpha  occ. eigenvalues --  -10.34562 -10.31743 -10.29086 -10.26097 -10.25119
 Alpha  occ. eigenvalues --  -10.24428 -10.24309 -10.24290 -10.23504 -10.22941
 Alpha  occ. eigenvalues --  -10.22575 -10.22507 -10.22330 -10.21512 -10.21386
 Alpha  occ. eigenvalues --  -10.20911 -10.20825 -10.20686 -10.20627 -10.20586
 Alpha  occ. eigenvalues --  -10.20486 -10.20429 -10.19923 -10.19729 -10.19615
 Alpha  occ. eigenvalues --  -10.19504 -10.18938 -10.18485 -10.18241 -10.17999
 Alpha  occ. eigenvalues --  -10.17119 -10.16604 -10.16300  -1.10920  -1.10402
 Alpha  occ. eigenvalues --   -1.03053  -1.01446  -1.01307  -0.99080  -0.96380
 Alpha  occ. eigenvalues --   -0.95507  -0.94412  -0.88862  -0.82618  -0.82546
 Alpha  occ. eigenvalues --   -0.81967  -0.81754  -0.80041  -0.79479  -0.77571
 Alpha  occ. eigenvalues --   -0.77416  -0.76603  -0.75505  -0.74486  -0.73155
 Alpha  occ. eigenvalues --   -0.72221  -0.70818  -0.69666  -0.68766  -0.68557
 Alpha  occ. eigenvalues --   -0.68259  -0.65828  -0.64672  -0.62992  -0.61879
 Alpha  occ. eigenvalues --   -0.60454  -0.59936  -0.59680  -0.58531  -0.57197
 Alpha  occ. eigenvalues --   -0.55945  -0.55843  -0.54966  -0.53851  -0.52697
 Alpha  occ. eigenvalues --   -0.52422  -0.51690  -0.50645  -0.50424  -0.49780
 Alpha  occ. eigenvalues --   -0.49041  -0.48775  -0.48657  -0.48167  -0.47916
 Alpha  occ. eigenvalues --   -0.47363  -0.46946  -0.46580  -0.46182  -0.45930
 Alpha  occ. eigenvalues --   -0.45270  -0.44761  -0.44620  -0.44026  -0.43795
 Alpha  occ. eigenvalues --   -0.43434  -0.43229  -0.42834  -0.42764  -0.42420
 Alpha  occ. eigenvalues --   -0.42325  -0.41922  -0.41596  -0.41329  -0.41132
 Alpha  occ. eigenvalues --   -0.40828  -0.40648  -0.40330  -0.39935  -0.39789
 Alpha  occ. eigenvalues --   -0.39388  -0.39304  -0.38933  -0.38553  -0.38150
 Alpha  occ. eigenvalues --   -0.37984  -0.37664  -0.37422  -0.36908  -0.36672
 Alpha  occ. eigenvalues --   -0.36379  -0.35928  -0.35752  -0.35453  -0.34944
 Alpha  occ. eigenvalues --   -0.34260  -0.33940  -0.33871  -0.33422  -0.33217
 Alpha  occ. eigenvalues --   -0.32710  -0.32503  -0.31797  -0.30175  -0.29237
 Alpha  occ. eigenvalues --   -0.28148  -0.26434  -0.26007  -0.25513  -0.25316
 Alpha  occ. eigenvalues --   -0.24935  -0.24700  -0.23225  -0.23063  -0.21507
 Alpha  occ. eigenvalues --   -0.17764
 Alpha virt. eigenvalues --   -0.11003  -0.06023  -0.04689  -0.03342  -0.01675
 Alpha virt. eigenvalues --    0.00895   0.01085   0.01800   0.02994   0.03914
 Alpha virt. eigenvalues --    0.04186   0.04326   0.04611   0.05261   0.05376

 Mulliken charges:
               1
     1  O   -0.282674
     2  O   -0.194535
     3  O   -0.201187
     4  O   -0.236387
     5  O   -0.190710
     6  O   -0.355589
     7  N   -0.028110
     8  N   -0.140934
     9  N   -0.072784
    10  N   -0.344742
    11  C   -0.141931
    12  C    0.090287
    13  C   -0.185658
    14  C    0.063987
    15  C   -0.040332
    16  C    0.083782
    17  C   -0.043101
    18  C   -0.119805
    19  C    0.145028
    20  C   -0.106674
    21  C    0.015449
    22  C    0.042462
    23  C    0.015433
    24  C    0.054824
    25  C   -0.064531
    26  C    0.069174
    27  C    0.090237
    28  C   -0.087669
    29  C    0.012369
    30  C    0.213579
    31  C   -0.113154
    32  C    0.165433
    33  C   -0.220822
    34  C    0.118244
    35  C   -0.133338
    36  C   -0.082064
    37  C    0.170797
    38  C    0.186349
    39  C    0.104035
    40  C   -0.021830
    41  C    0.203751
    42  C    0.128939
    43  C    0.070345
    44  H    0.122660
    45  H    0.002963
    46  H    0.039928
    47  H    0.004982
    48  H    0.067036
    49  H    0.005771
    50  H    0.023920
    51  H   -0.051193
    52  H    0.123299
    53  H    0.036043
    54  H    0.038454
    55  H    0.021113
    56  H    0.206920
    57  H    0.061659
    58  H    0.069014
    59  H    0.002271
    60  H    0.035572
    61  H   -0.009734
    62  H    0.026454
    63  H   -0.010277
    64  H    0.003866
    65  H   -0.011171
    66  H   -0.007753
    67  H    0.008373
    68  H    0.001171
    69  H    0.070069
    70  H    0.012964
    71  H    0.001440
    72  H   -0.000287
    73  H    0.049848
    74  H   -0.016163
    75  H    0.017072
    76  H    0.030664
    77  H   -0.002039
    78  H   -0.043902
    79  H    0.044801
    80  H    0.204105
    81  H    0.184146
 Sum of Mulliken charges =  -0.00000

 Dipole moment (field-independent basis, Debye):
    X=             -2.6583    Y=             -0.8659    Z=             -0.7920  Tot=              2.9057
 Quadrupole moment (field-independent basis, Debye-Ang):
   XX=           -244.7787   YY=           -241.6459   ZZ=           -257.2854
   XY=             19.2567   XZ=             11.2232   YZ=            -17.8220

 Normal termination of Gaussian 16 at Wed Jul  3 01:44:49 2019.
