 Gaussian 16, Revision A.03,
 Gaussian 16:  ES64L-G16RevA.03 25-Dec-2016

 --------------------------
 # td=(NStates=1) B3LYP/SVP
 --------------------------

 --
 TD
 --
 Symbolic Z-matrix:
 Charge =  0 Multiplicity = 1

                         Standard orientation:
 ---------------------------------------------------------------------
 Center     Atomic      Atomic             Coordinates (Angstroms)
 Number     Number       Type             X           Y           Z
 ---------------------------------------------------------------------
      1          8           0        4.318429   -4.894037   -1.745966
      2          8           0       -3.284678   -4.782925   -1.120484
      3          8           0       -6.984998   -1.332213   -1.936310
      4          8           0       -3.873820   -3.018742    0.071603
      5          8           0       -7.497520   -0.472903    0.027714
      6          8           0        3.028649    2.289933    0.389302
      7          7           0        0.279028   -0.477688    0.577495
      8          7           0       -1.584358    1.897405    0.389252
      9          7           0        3.237553   -3.186722   -0.675478
     10          7           0        0.885448    2.905278    0.190002
     11          6           0       -0.630589   -2.331304    1.412250
     12          6           0       -0.917370   -1.089867    0.953953
     13          6           0        0.728943   -2.679655    1.134360
     14          6           0        1.238129   -1.424996    0.646114
     15          6           0       -3.819061    1.545529    0.318286
     16          6           0       -2.437139    0.965377    0.594719
     17          6           0       -2.229287   -0.403494    0.960941
     18          6           0       -3.575709    2.846858   -0.108335
     19          6           0       -1.593383   -3.349351    1.919554
     20          6           0        5.479681   -2.769530   -1.308407
     21          6           0        3.605112   -1.774910   -0.203688
     22          6           0       -2.114213    3.055508    0.019634
     23          6           0        5.051978   -1.634705   -0.433391
     24          6           0       -5.080269    0.765048    0.406052
     25          6           0        2.749465   -1.028541    0.506947
     26          6           0        1.468642   -3.856382    1.720520
     27          6           0        4.290367   -3.825785   -1.303072
     28          6           0       -2.232257   -4.404892    1.035649
     29          6           0       -5.328852   -0.147515   -0.772539
     30          6           0       -4.609484    3.862109   -0.516994
     31          6           0       -1.192736    4.127258   -0.259735
     32          6           0        6.833580   -3.400497   -1.179266
     33          6           0        5.803022   -0.584457   -0.027362
     34          6           0        0.207630    3.991935   -0.202631
     35          6           0        1.189673    5.053679   -0.490648
     36          6           0        2.390911    4.557913   -0.273246
     37          6           0       -3.247795   -3.973442   -0.059183
     38          6           0        5.462467    0.521722    0.879835
     39          6           0       -6.660521   -0.716140   -0.877135
     40          6           0        3.729862    5.163787   -0.297631
     41          6           0        2.233780    3.122269    0.038646
     42          6           0        0.668556    6.445527   -0.971730
     43          6           0        4.378208    5.614788    0.999104
     44          1           0        0.428836    0.436443    0.209769
     45          1           0       -3.038142   -1.140117    0.859707
     46          1           0       -2.622451   -2.882436    2.395667
     47          1           0       -1.370361   -3.933898    2.991773
     48          1           0        5.477229   -2.305074   -2.313289
     49          1           0       -4.930060    0.041327    1.208970
     50          1           0       -5.863820    1.634482    0.698319
     51          1           0        3.010252   -0.018340    0.782715
     52          1           0       -0.568425    1.862187    0.493198
     53          1           0        1.553706   -4.751615    1.139322
     54          1           0        2.474430   -3.551886    1.967884
     55          1           0        0.930194   -4.354854    2.622720
     56          1           0        2.274168   -3.609133   -0.603197
     57          1           0       -1.304611   -5.005014    0.611421
     58          1           0       -2.777991   -5.175200    1.662416
     59          1           0       -4.603731   -0.874748   -0.702125
     60          1           0       -5.290745    0.437960   -1.729201
     61          1           0       -4.472967    4.770539    0.252824
     62          1           0       -5.624438    3.351497   -0.031563
     63          1           0       -4.607273    4.185774   -1.463662
     64          1           0       -1.601220    5.020106   -0.626160
     65          1           0        7.794522   -2.867204   -1.490219
     66          1           0        6.929712   -4.301115   -1.761118
     67          1           0        7.107892   -3.795361   -0.071870
     68          1           0        6.859217   -0.500627   -0.378706
     69          1           0        4.952418    1.326422    0.519119
     70          1           0        6.463033    0.698894    1.433425
     71          1           0        4.870051    0.140583    1.647955
     72          1           0        3.483947    6.013531   -0.944128
     73          1           0        4.426079    4.607206   -0.882293
     74          1           0       -0.006969    6.170297   -1.923022
     75          1           0        1.521955    6.879042   -1.436572
     76          1           0       -0.050610    6.753524   -0.079311
     77          1           0        3.774946    6.241430    1.633000
     78          1           0        5.403360    6.107265    0.833131
     79          1           0        4.631937    4.818417    1.631359
     80          1           0       -4.127913   -4.527594   -1.582161
     81          1           0       -7.926406   -1.646595   -2.001269
 ---------------------------------------------------------------------

 SCF Done:  E(RB3LYP) =  -1949.12878381     A.U. after   16 cycles

 Excitation energies and oscillator strengths:

 Excited State   1:      Singlet-A      1.8987 eV  653.00 nm  f=0.2881  <S**2>=0.000
     156 ->157         0.70046
     156 <-157        -0.10871
 This state for optimization and/or second-order correction.
 Total Energy, E(TD-HF/TD-DFT) =  -1949.05900887
 Copying the excited state density for this state as the 1-particle RhoCI density.

 The electronic state is 1-A.
 Alpha  occ. eigenvalues --  -19.20248 -19.20127 -19.15273 -19.10598 -19.10417
 Alpha  occ. eigenvalues --  -19.10358 -14.38075 -14.37138 -14.35486 -14.28250
 Alpha  occ. eigenvalues --  -10.33613 -10.31568 -10.27922 -10.25900 -10.25093
 Alpha  occ. eigenvalues --  -10.24103 -10.24101 -10.23845 -10.22979 -10.22674
 Alpha  occ. eigenvalues --  -10.22469 -10.22402 -10.22122 -10.21556 -10.21525
 Alpha  occ. eigenvalues --  -10.21331 -10.21263 -10.20979 -10.20141 -10.19679
 Alpha  occ. eigenvalues --  -10.19666 -10.19606 -10.19520 -10.19476 -10.19268
 Alpha  occ. eigenvalues --  -10.19144 -10.18829 -10.18759 -10.18516 -10.18298
 Alpha  occ. eigenvalues --  -10.18138 -10.17607 -10.15846  -1.13769  -1.12377
 Alpha  occ. eigenvalues --   -1.05242  -1.04966  -1.02873  -1.01988  -0.98836
 Alpha  occ. eigenvalues --   -0.98047  -0.92601  -0.91571  -0.83153  -0.82149
 Alpha  occ. eigenvalues --   -0.81030  -0.80745  -0.80227  -0.78748  -0.78092
 Alpha  occ. eigenvalues --   -0.77133  -0.76143  -0.75199  -0.74071  -0.72801
 Alpha  occ. eigenvalues --   -0.71688  -0.69781  -0.69567  -0.68896  -0.67983
 Alpha  occ. eigenvalues --   -0.67427  -0.65124  -0.63816  -0.63216  -0.62795
 Alpha  occ. eigenvalues --   -0.61324  -0.60879  -0.59012  -0.58188  -0.56494
 Alpha  occ. eigenvalues --   -0.56368  -0.55277  -0.55034  -0.54446  -0.52748
 Alpha  occ. eigenvalues --   -0.52676  -0.52455  -0.51682  -0.50999  -0.50867
 Alpha  occ. eigenvalues --   -0.49991  -0.49600  -0.48808  -0.48102  -0.47943
 Alpha  occ. eigenvalues --   -0.47347  -0.46875  -0.46656  -0.46111  -0.45762
 Alpha  occ. eigenvalues --   -0.45556  -0.45123  -0.44700  -0.44094  -0.43652
 Alpha  occ. eigenvalues --   -0.43510  -0.43341  -0.43101  -0.42907  -0.42538
 Alpha  occ. eigenvalues --   -0.42253  -0.42128  -0.41618  -0.41241  -0.41085
 Alpha  occ. eigenvalues --   -0.40802  -0.40676  -0.40467  -0.40108  -0.39954
 Alpha  occ. eigenvalues --   -0.39725  -0.39161  -0.39039  -0.38716  -0.38305
 Alpha  occ. eigenvalues --   -0.38146  -0.37497  -0.37056  -0.36970  -0.36285
 Alpha  occ. eigenvalues --   -0.35824  -0.35324  -0.35302  -0.35152  -0.35011
 Alpha  occ. eigenvalues --   -0.34155  -0.34099  -0.33831  -0.32840  -0.32745
 Alpha  occ. eigenvalues --   -0.32418  -0.31571  -0.31054  -0.30121  -0.29486
 Alpha  occ. eigenvalues --   -0.26991  -0.26509  -0.26266  -0.26015  -0.25817
 Alpha  occ. eigenvalues --   -0.25452  -0.24717  -0.24312  -0.23268  -0.21558
 Alpha  occ. eigenvalues --   -0.18381
 Alpha virt. eigenvalues --   -0.10760  -0.05512  -0.03403  -0.00488   0.00813
 Alpha virt. eigenvalues --    0.02163   0.02464   0.02695   0.03359   0.03460
 Alpha virt. eigenvalues --    0.03719   0.03859   0.04251   0.04568   0.06542

 Mulliken charges:
               1
     1  O   -0.146503
     2  O   -0.169009
     3  O   -0.123000
     4  O   -0.159755
     5  O   -0.292554
     6  O   -0.177521
     7  N   -0.040775
     8  N    0.068656
     9  N   -0.230828
    10  N   -0.300016
    11  C   -0.020916
    12  C    0.018820
    13  C   -0.151726
    14  C    0.000698
    15  C   -0.124331
    16  C    0.018033
    17  C   -0.044200
    18  C   -0.136041
    19  C   -0.062849
    20  C   -0.064353
    21  C    0.155923
    22  C    0.051511
    23  C    0.044384
    24  C    0.090472
    25  C   -0.099664
    26  C    0.086691
    27  C    0.124659
    28  C   -0.024172
    29  C    0.081497
    30  C    0.074525
    31  C   -0.106782
    32  C    0.006639
    33  C   -0.210785
    34  C    0.091481
    35  C   -0.116803
    36  C   -0.232179
    37  C    0.116750
    38  C    0.143115
    39  C    0.085807
    40  C    0.124777
    41  C    0.143298
    42  C    0.098422
    43  C    0.042588
    44  H    0.120517
    45  H    0.033998
    46  H    0.014868
    47  H    0.036203
    48  H    0.040759
    49  H    0.013135
    50  H    0.049427
    51  H    0.015110
    52  H    0.120093
    53  H    0.004763
    54  H    0.035198
    55  H    0.018038
    56  H    0.147584
    57  H    0.036602
    58  H    0.043604
    59  H    0.008394
    60  H    0.027579
    61  H    0.038172
    62  H    0.034398
    63  H    0.014977
    64  H   -0.058075
    65  H    0.014859
    66  H    0.014696
    67  H    0.014481
    68  H   -0.005428
    69  H    0.034594
    70  H    0.003903
    71  H   -0.002742
    72  H   -0.029998
    73  H   -0.004411
    74  H    0.034557
    75  H    0.012262
    76  H    0.071455
    77  H    0.000966
    78  H    0.013900
    79  H    0.000543
    80  H    0.188260
    81  H    0.208772
 Sum of Mulliken charges =  -0.00000

 Dipole moment (field-independent basis, Debye):
    X=             -4.6615    Y=              1.2715    Z=             -1.8920  Tot=              5.1890
 Quadrupole moment (field-independent basis, Debye-Ang):
   XX=           -250.6107   YY=           -242.0713   ZZ=           -252.3625
   XY=             25.5552   XZ=             20.9410   YZ=            -12.8453

 Normal termination of Gaussian 16 at Tue Jul  2 20:03:42 2019.
