 Gaussian 16, Revision A.03,
 Gaussian 16:  ES64L-G16RevA.03 25-Dec-2016

 --------------------------
 # td=(NStates=1) B3LYP/SVP
 --------------------------

 --
 TD
 --
 Symbolic Z-matrix:
 Charge =  0 Multiplicity = 1

                         Standard orientation:
 ---------------------------------------------------------------------
 Center     Atomic      Atomic             Coordinates (Angstroms)
 Number     Number       Type             X           Y           Z
 ---------------------------------------------------------------------
      1          8           0        4.103160   -4.930109   -1.980807
      2          8           0       -3.366408   -4.672809   -1.135364
      3          8           0       -6.635531   -1.467592   -1.881092
      4          8           0       -4.013808   -2.858927    0.149511
      5          8           0       -7.493424   -0.324959   -0.160470
      6          8           0        3.080411    2.441037    0.487508
      7          7           0        0.196996   -0.577945    0.560117
      8          7           0       -1.396738    1.833473    0.365729
      9          7           0        3.250603   -3.246631   -0.781082
     10          7           0        0.859997    2.876733    0.069059
     11          6           0       -0.765358   -2.410055    1.402368
     12          6           0       -0.966609   -1.076565    0.907699
     13          6           0        0.570616   -2.712894    1.197070
     14          6           0        1.179523   -1.506350    0.737717
     15          6           0       -3.648975    1.640705    0.388721
     16          6           0       -2.407554    0.892640    0.650154
     17          6           0       -2.182842   -0.438027    0.902775
     18          6           0       -3.363937    2.969786   -0.115146
     19          6           0       -1.840822   -3.341975    2.024205
     20          6           0        5.430204   -2.995695   -1.258239
     21          6           0        3.518524   -1.977584   -0.195985
     22          6           0       -1.930142    3.096443   -0.044830
     23          6           0        4.916082   -1.695798   -0.597051
     24          6           0       -4.984276    1.048556    0.398492
     25          6           0        2.645711   -1.211738    0.546722
     26          6           0        1.323348   -3.915550    1.736562
     27          6           0        4.230754   -3.859800   -1.419979
     28          6           0       -2.345127   -4.405569    1.014029
     29          6           0       -5.171340   -0.082714   -0.700028
     30          6           0       -4.346629    4.115269   -0.453157
     31          6           0       -1.154109    4.095691   -0.383362
     32          6           0        6.612270   -3.780149   -0.648087
     33          6           0        5.856969   -0.768771   -0.125970
     34          6           0        0.202718    4.105869   -0.319804
     35          6           0        1.267774    5.183714   -0.508385
     36          6           0        2.466543    4.585202   -0.318470
     37          6           0       -3.383146   -3.835361   -0.010756
     38          6           0        5.429552    0.504567    0.576718
     39          6           0       -6.512974   -0.667352   -0.917404
     40          6           0        3.806634    5.345203   -0.257638
     41          6           0        2.132711    3.129551    0.166105
     42          6           0        0.818423    6.528127   -0.813859
     43          6           0        4.343259    5.455960    1.097399
     44          1           0        0.417910    0.356038    0.144888
     45          1           0       -3.049418   -1.137099    1.103547
     46          1           0       -2.697884   -2.733752    2.381592
     47          1           0       -1.468921   -3.951965    2.791390
     48          1           0        5.839040   -2.723958   -2.294759
     49          1           0       -5.064652    0.429921    1.440479
     50          1           0       -5.898233    1.789352    0.095578
     51          1           0        2.730856   -0.151130    0.758545
     52          1           0       -0.383867    1.702349    0.578297
     53          1           0        1.258506   -4.862476    1.027220
     54          1           0        2.375975   -3.654315    1.801381
     55          1           0        0.643478   -4.118608    2.659943
     56          1           0        2.447984   -3.640877   -0.350898
     57          1           0       -1.525628   -5.114448    0.713084
     58          1           0       -3.008625   -5.132109    1.688635
     59          1           0       -4.549263   -1.236663   -0.651094
     60          1           0       -4.775836    0.407412   -1.721374
     61          1           0       -4.369076    4.628767    0.451927
     62          1           0       -5.203953    3.496526   -0.581064
     63          1           0       -4.099710    4.725569   -1.370131
     64          1           0       -1.590938    4.816466   -0.818491
     65          1           0        7.448658   -3.025681   -0.599121
     66          1           0        6.911528   -4.646518   -1.155400
     67          1           0        6.442750   -4.102333    0.375573
     68          1           0        6.834954   -0.936011   -0.342810
     69          1           0        4.732273    1.295564    0.160257
     70          1           0        6.211655    1.146572    0.950856
     71          1           0        5.062094    0.101171    1.536731
     72          1           0        3.745693    6.252538   -0.789134
     73          1           0        4.514216    4.733428   -0.933118
     74          1           0        0.017875    6.629932   -1.581748
     75          1           0        1.644500    7.220384   -1.159742
     76          1           0        0.381861    7.129705   -0.050641
     77          1           0        3.674778    6.188436    1.625313
     78          1           0        5.393615    5.996346    0.937943
     79          1           0        4.304801    4.526930    1.603011
     80          1           0       -4.153465   -4.250948   -1.646820
     81          1           0       -7.453393   -1.939057   -2.062396
 ---------------------------------------------------------------------

 SCF Done:  E(RB3LYP) =  -1949.10715692     A.U. after   17 cycles

 Excitation energies and oscillator strengths:

 Excited State   1:      Singlet-A      1.8861 eV  657.35 nm  f=0.3601  <S**2>=0.000
     156 ->157         0.70776
     156 <-157        -0.11953
 This state for optimization and/or second-order correction.
 Total Energy, E(TD-HF/TD-DFT) =  -1949.03784288
 Copying the excited state density for this state as the 1-particle RhoCI density.

 The electronic state is 1-A.
 Alpha  occ. eigenvalues --  -19.20932 -19.19932 -19.17806 -19.09869 -19.09811
 Alpha  occ. eigenvalues --  -19.08586 -14.39092 -14.36851 -14.35301 -14.28182
 Alpha  occ. eigenvalues --  -10.35608 -10.31599 -10.28166 -10.25443 -10.25032
 Alpha  occ. eigenvalues --  -10.24143 -10.23687 -10.23506 -10.23387 -10.23060
 Alpha  occ. eigenvalues --  -10.22992 -10.22252 -10.22046 -10.21900 -10.21853
 Alpha  occ. eigenvalues --  -10.21395 -10.21368 -10.20822 -10.20511 -10.20448
 Alpha  occ. eigenvalues --  -10.20362 -10.20347 -10.20003 -10.19910 -10.19878
 Alpha  occ. eigenvalues --  -10.19131 -10.18859 -10.18834 -10.18026 -10.18003
 Alpha  occ. eigenvalues --  -10.17478 -10.16822 -10.16644  -1.12813  -1.12432
 Alpha  occ. eigenvalues --   -1.04405  -1.03636  -1.01040  -1.00609  -0.96239
 Alpha  occ. eigenvalues --   -0.95681  -0.95519  -0.90254  -0.82944  -0.82573
 Alpha  occ. eigenvalues --   -0.81134  -0.81054  -0.80083  -0.79429  -0.78216
 Alpha  occ. eigenvalues --   -0.77421  -0.76477  -0.75509  -0.74563  -0.72973
 Alpha  occ. eigenvalues --   -0.72024  -0.69958  -0.69358  -0.69026  -0.68404
 Alpha  occ. eigenvalues --   -0.68268  -0.66563  -0.64749  -0.62860  -0.62341
 Alpha  occ. eigenvalues --   -0.60477  -0.60068  -0.59517  -0.58974  -0.57796
 Alpha  occ. eigenvalues --   -0.56291  -0.55999  -0.54222  -0.53886  -0.53635
 Alpha  occ. eigenvalues --   -0.53109  -0.52735  -0.52075  -0.50865  -0.49721
 Alpha  occ. eigenvalues --   -0.49678  -0.49192  -0.48434  -0.48412  -0.47612
 Alpha  occ. eigenvalues --   -0.47197  -0.47074  -0.46876  -0.46597  -0.45818
 Alpha  occ. eigenvalues --   -0.45636  -0.45247  -0.45122  -0.44420  -0.44298
 Alpha  occ. eigenvalues --   -0.43634  -0.43077  -0.43002  -0.42596  -0.41907
 Alpha  occ. eigenvalues --   -0.41701  -0.41514  -0.41403  -0.41203  -0.41099
 Alpha  occ. eigenvalues --   -0.40858  -0.40484  -0.40218  -0.39984  -0.39624
 Alpha  occ. eigenvalues --   -0.39295  -0.39217  -0.38674  -0.38355  -0.38186
 Alpha  occ. eigenvalues --   -0.37822  -0.37600  -0.37483  -0.37407  -0.36836
 Alpha  occ. eigenvalues --   -0.36571  -0.36244  -0.36038  -0.35230  -0.34661
 Alpha  occ. eigenvalues --   -0.34456  -0.33703  -0.33632  -0.33427  -0.33014
 Alpha  occ. eigenvalues --   -0.32695  -0.31734  -0.30984  -0.29739  -0.29431
 Alpha  occ. eigenvalues --   -0.27044  -0.26414  -0.26306  -0.25382  -0.25324
 Alpha  occ. eigenvalues --   -0.25112  -0.24386  -0.22995  -0.22628  -0.22118
 Alpha  occ. eigenvalues --   -0.18183
 Alpha virt. eigenvalues --   -0.10740  -0.05509  -0.04194  -0.02915   0.00294
 Alpha virt. eigenvalues --    0.00562   0.01655   0.01869   0.02852   0.03669
 Alpha virt. eigenvalues --    0.03984   0.04403   0.04773   0.05462   0.06068

 Mulliken charges:
               1
     1  O   -0.214778
     2  O   -0.227733
     3  O   -0.100958
     4  O   -0.171896
     5  O   -0.321137
     6  O   -0.239749
     7  N   -0.003779
     8  N   -0.176246
     9  N   -0.052004
    10  N   -0.306252
    11  C   -0.114514
    12  C    0.038641
    13  C   -0.149529
    14  C   -0.035993
    15  C   -0.063289
    16  C    0.135418
    17  C   -0.106148
    18  C   -0.187851
    19  C    0.146527
    20  C   -0.128242
    21  C    0.103577
    22  C    0.192277
    23  C    0.006201
    24  C    0.038565
    25  C   -0.078077
    26  C    0.022378
    27  C    0.114388
    28  C   -0.057685
    29  C   -0.171834
    30  C    0.164373
    31  C   -0.055905
    32  C    0.079267
    33  C   -0.070783
    34  C    0.108801
    35  C   -0.005597
    36  C   -0.233286
    37  C    0.181662
    38  C    0.035764
    39  C    0.132606
    40  C    0.087490
    41  C    0.128489
    42  C    0.082519
    43  C    0.028214
    44  H    0.152054
    45  H    0.028165
    46  H    0.019082
    47  H   -0.018874
    48  H    0.042383
    49  H    0.043086
    50  H    0.064424
    51  H    0.021417
    52  H    0.141839
    53  H    0.050640
    54  H    0.038802
    55  H    0.048420
    56  H    0.097578
    57  H    0.048630
    58  H    0.053611
    59  H    0.105077
    60  H    0.045768
    61  H    0.027501
    62  H   -0.002749
    63  H    0.043176
    64  H   -0.146318
    65  H    0.013866
    66  H    0.021254
    67  H    0.002311
    68  H   -0.032316
    69  H    0.094764
    70  H   -0.017381
    71  H    0.022492
    72  H   -0.028058
    73  H    0.002440
    74  H    0.011805
    75  H    0.005091
    76  H    0.005606
    77  H    0.001568
    78  H    0.021506
    79  H    0.027782
    80  H    0.197143
    81  H    0.192523
 Sum of Mulliken charges =  -0.00000

 Dipole moment (field-independent basis, Debye):
    X=             -3.1187    Y=             -0.9761    Z=             -0.1309  Tot=              3.2705
 Quadrupole moment (field-independent basis, Debye-Ang):
   XX=           -256.4298   YY=           -237.6509   ZZ=           -255.0439
   XY=             20.2380   XZ=             20.6177   YZ=            -18.3103

 Normal termination of Gaussian 16 at Wed Jun 26 23:57:10 2019.
