 Gaussian 16, Revision A.03,
 Gaussian 16:  ES64L-G16RevA.03 25-Dec-2016

 --------------------------
 # td=(NStates=1) B3LYP/SVP
 --------------------------

 --
 TD
 --
 Symbolic Z-matrix:
 Charge =  0 Multiplicity = 1

                         Standard orientation:
 ---------------------------------------------------------------------
 Center     Atomic      Atomic             Coordinates (Angstroms)
 Number     Number       Type             X           Y           Z
 ---------------------------------------------------------------------
      1          8           0       -4.349269   -4.879430    1.877428
      2          8           0        3.263577   -4.750808    1.160291
      3          8           0        6.856716   -1.384741    2.002411
      4          8           0        3.786558   -3.067195   -0.143463
      5          8           0        7.497906   -0.725254   -0.046742
      6          8           0       -3.095322    2.443917   -0.441424
      7          7           0       -0.228610   -0.518463   -0.597896
      8          7           0        1.564379    1.825282   -0.372906
      9          7           0       -3.363597   -3.254960    0.563225
     10          7           0       -0.854916    2.924220   -0.069130
     11          6           0        0.709593   -2.391964   -1.373452
     12          6           0        0.907777   -1.052884   -1.021819
     13          6           0       -0.744490   -2.642764   -1.255070
     14          6           0       -1.315157   -1.472669   -0.780858
     15          6           0        3.816194    1.428287   -0.315649
     16          6           0        2.451941    0.877712   -0.580731
     17          6           0        2.149060   -0.474438   -0.922213
     18          6           0        3.603476    2.750736    0.025830
     19          6           0        1.667529   -3.456829   -1.941227
     20          6           0       -5.533923   -2.737326    1.388259
     21          6           0       -3.590055   -1.926921    0.191539
     22          6           0        2.114167    2.980601   -0.020275
     23          6           0       -5.045387   -1.594286    0.484852
     24          6           0        5.161140    0.827896   -0.335872
     25          6           0       -2.640794   -1.064856   -0.418458
     26          6           0       -1.457933   -3.834911   -1.780483
     27          6           0       -4.393934   -3.747838    1.278340
     28          6           0        2.139752   -4.481176   -1.029498
     29          6           0        5.213962   -0.160721    0.867883
     30          6           0        4.581506    3.868755    0.466463
     31          6           0        1.305074    4.060870    0.337995
     32          6           0       -6.865833   -3.500254    0.982688
     33          6           0       -5.800739   -0.616471   -0.017686
     34          6           0       -0.178091    4.012622    0.219019
     35          6           0       -0.994484    5.138344    0.485268
     36          6           0       -2.301125    4.663813    0.306308
     37          6           0        3.112836   -3.998327   -0.022394
     38          6           0       -5.494041    0.691128   -0.700239
     39          6           0        6.600579   -0.746087    0.865574
     40          6           0       -3.561609    5.489878    0.349255
     41          6           0       -2.217626    3.240809   -0.150992
     42          6           0       -0.640858    6.570492    0.754961
     43          6           0       -4.191203    5.610295   -0.988522
     44          1           0       -0.407076    0.322187   -0.044889
     45          1           0        3.167346   -1.181605   -1.171292
     46          1           0        2.548946   -3.089209   -2.446846
     47          1           0        1.161348   -3.965890   -2.778744
     48          1           0       -5.526786   -2.549293    2.395625
     49          1           0        5.430281    0.372452   -1.280811
     50          1           0        5.938986    1.528142   -0.088160
     51          1           0       -2.877555    0.000805   -0.479963
     52          1           0        0.469579    2.014317   -0.170187
     53          1           0       -1.340149   -4.679097   -1.237139
     54          1           0       -2.655401   -3.760746   -1.745395
     55          1           0       -1.200169   -4.066568   -2.744104
     56          1           0       -2.455253   -3.882808    0.602930
     57          1           0        1.180996   -4.941545   -0.663289
     58          1           0        2.782468   -5.246497   -1.487331
     59          1           0        4.490101   -0.970139    0.829517
     60          1           0        5.034765    0.234469    1.949600
     61          1           0        4.705968    4.632672   -0.355988
     62          1           0        5.619882    3.447421    0.555782
     63          1           0        4.257773    4.591912    1.327007
     64          1           0        1.878784    4.977226    0.769795
     65          1           0       -7.625601   -2.893879    1.274600
     66          1           0       -6.815423   -4.356238    1.637403
     67          1           0       -6.832788   -3.659101    0.079336
     68          1           0       -6.877324   -0.776918    0.348696
     69          1           0       -5.190115    1.629921    0.116036
     70          1           0       -6.495533    0.766629   -1.252561
     71          1           0       -4.585860    0.825002   -1.664392
     72          1           0       -3.187876    6.546703    0.823674
     73          1           0       -4.224207    4.953349    0.923947
     74          1           0       -0.066606    6.580252    1.642110
     75          1           0       -1.588630    7.175728    0.777534
     76          1           0        0.118902    6.877625    0.107294
     77          1           0       -3.642551    6.297691   -1.829736
     78          1           0       -5.180524    5.931424   -0.832954
     79          1           0       -4.518476    4.589562   -1.491202
     80          1           0        3.876148   -4.204559    1.708265
     81          1           0        7.725692   -1.864960    1.871992
 ---------------------------------------------------------------------

 SCF Done:  E(RB3LYP) =  -1949.08457362     A.U. after   17 cycles

 Excitation energies and oscillator strengths:

 Excited State   1:      Singlet-A      1.6974 eV  730.44 nm  f=0.2911  <S**2>=0.000
     156 ->157         0.70837
     156 <-157        -0.13037
 This state for optimization and/or second-order correction.
 Total Energy, E(TD-HF/TD-DFT) =  -1949.02219538
 Copying the excited state density for this state as the 1-particle RhoCI density.

 The electronic state is 1-A.
 Alpha  occ. eigenvalues --  -19.19033 -19.17630 -19.14924 -19.12163 -19.11353
 Alpha  occ. eigenvalues --  -19.09955 -14.38599 -14.37001 -14.35588 -14.29549
 Alpha  occ. eigenvalues --  -10.33066 -10.32293 -10.28498 -10.27420 -10.25325
 Alpha  occ. eigenvalues --  -10.23958 -10.23563 -10.23467 -10.23232 -10.22736
 Alpha  occ. eigenvalues --  -10.21904 -10.21830 -10.21441 -10.21390 -10.21327
 Alpha  occ. eigenvalues --  -10.20819 -10.20779 -10.20688 -10.20498 -10.20391
 Alpha  occ. eigenvalues --  -10.20314 -10.20280 -10.20245 -10.20108 -10.19913
 Alpha  occ. eigenvalues --  -10.19582 -10.19501 -10.19319 -10.19216 -10.19150
 Alpha  occ. eigenvalues --  -10.18918 -10.18809 -10.16467  -1.12077  -1.09652
 Alpha  occ. eigenvalues --   -1.02313  -1.01486  -1.01285  -0.99827  -0.97625
 Alpha  occ. eigenvalues --   -0.97331  -0.93878  -0.93425  -0.83396  -0.82660
 Alpha  occ. eigenvalues --   -0.81603  -0.81210  -0.80382  -0.79083  -0.77991
 Alpha  occ. eigenvalues --   -0.77261  -0.76634  -0.76043  -0.74062  -0.72357
 Alpha  occ. eigenvalues --   -0.71006  -0.69931  -0.69463  -0.68928  -0.68310
 Alpha  occ. eigenvalues --   -0.67729  -0.66067  -0.64239  -0.62761  -0.61544
 Alpha  occ. eigenvalues --   -0.60053  -0.59760  -0.59145  -0.58269  -0.56817
 Alpha  occ. eigenvalues --   -0.56246  -0.55863  -0.55339  -0.53550  -0.53085
 Alpha  occ. eigenvalues --   -0.52910  -0.52393  -0.51380  -0.51002  -0.50211
 Alpha  occ. eigenvalues --   -0.49796  -0.49076  -0.48680  -0.48386  -0.47895
 Alpha  occ. eigenvalues --   -0.47301  -0.46677  -0.45810  -0.45454  -0.45202
 Alpha  occ. eigenvalues --   -0.44963  -0.44615  -0.44529  -0.44079  -0.43924
 Alpha  occ. eigenvalues --   -0.43778  -0.43144  -0.42723  -0.42474  -0.42393
 Alpha  occ. eigenvalues --   -0.42121  -0.41813  -0.41419  -0.41279  -0.40925
 Alpha  occ. eigenvalues --   -0.40762  -0.40259  -0.40130  -0.40026  -0.39744
 Alpha  occ. eigenvalues --   -0.39482  -0.39166  -0.38871  -0.38622  -0.38514
 Alpha  occ. eigenvalues --   -0.38351  -0.38059  -0.37998  -0.37865  -0.37173
 Alpha  occ. eigenvalues --   -0.36939  -0.36357  -0.36085  -0.34936  -0.34338
 Alpha  occ. eigenvalues --   -0.34308  -0.33996  -0.33758  -0.33401  -0.32709
 Alpha  occ. eigenvalues --   -0.32030  -0.31616  -0.31221  -0.30189  -0.29887
 Alpha  occ. eigenvalues --   -0.28766  -0.27767  -0.26414  -0.26056  -0.25288
 Alpha  occ. eigenvalues --   -0.25115  -0.24880  -0.24652  -0.23050  -0.21715
 Alpha  occ. eigenvalues --   -0.17533
 Alpha virt. eigenvalues --   -0.10822  -0.06271  -0.04295  -0.01164  -0.00279
 Alpha virt. eigenvalues --   -0.00142   0.02559   0.03143   0.03468   0.03830
 Alpha virt. eigenvalues --    0.03958   0.04889   0.04909   0.05722   0.05853

 Mulliken charges:
               1
     1  O   -0.296058
     2  O   -0.243008
     3  O   -0.176949
     4  O   -0.168461
     5  O   -0.305831
     6  O   -0.200429
     7  N   -0.093730
     8  N   -0.054276
     9  N   -0.110276
    10  N   -0.298837
    11  C   -0.125154
    12  C    0.113679
    13  C   -0.166625
    14  C    0.094872
    15  C   -0.095530
    16  C    0.042640
    17  C   -0.163978
    18  C   -0.098220
    19  C    0.129708
    20  C   -0.042348
    21  C    0.085284
    22  C    0.009914
    23  C    0.006064
    24  C    0.158087
    25  C   -0.099490
    26  C    0.120580
    27  C    0.071718
    28  C    0.042186
    29  C   -0.047092
    30  C    0.050347
    31  C   -0.136477
    32  C    0.218402
    33  C   -0.141686
    34  C    0.079834
    35  C   -0.153066
    36  C   -0.224950
    37  C    0.105722
    38  C   -0.075610
    39  C    0.150211
    40  C    0.123671
    41  C    0.174774
    42  C    0.215768
    43  C   -0.039737
    44  H    0.137340
    45  H    0.083530
    46  H   -0.007928
    47  H   -0.003439
    48  H    0.012810
    49  H    0.032585
    50  H   -0.002427
    51  H    0.018653
    52  H    0.192710
    53  H   -0.018741
    54  H    0.041306
    55  H    0.003041
    56  H    0.182916
    57  H    0.037686
    58  H    0.042152
    59  H    0.049398
    60  H    0.049133
    61  H    0.024629
    62  H    0.017942
    63  H    0.041797
    64  H   -0.003195
    65  H   -0.010522
    66  H    0.029852
    67  H   -0.062130
    68  H    0.008575
    69  H    0.104150
    70  H    0.028119
    71  H    0.079167
    72  H    0.020331
    73  H   -0.020555
    74  H   -0.006781
    75  H    0.027192
    76  H   -0.009138
    77  H    0.034683
    78  H   -0.011001
    79  H    0.039463
    80  H    0.185244
    81  H    0.195814
 Sum of Mulliken charges =  -0.00000

 Dipole moment (field-independent basis, Debye):
    X=              1.9678    Y=              1.6459    Z=              0.6007  Tot=              2.6348
 Quadrupole moment (field-independent basis, Debye-Ang):
   XX=           -255.7550   YY=           -244.5955   ZZ=           -255.7905
   XY=            -14.5335   XZ=             14.4716   YZ=             18.8558

 Normal termination of Gaussian 16 at Thu Jun 27 02:48:17 2019.
