 Gaussian 16, Revision A.03,
 Gaussian 16:  ES64L-G16RevA.03 25-Dec-2016

 --------------------------
 # td=(NStates=1) B3LYP/SVP
 --------------------------

 --
 TD
 --
 Symbolic Z-matrix:
 Charge =  0 Multiplicity = 1

                         Standard orientation:
 ---------------------------------------------------------------------
 Center     Atomic      Atomic             Coordinates (Angstroms)
 Number     Number       Type             X           Y           Z
 ---------------------------------------------------------------------
      1          8           0        4.306017   -5.000817   -1.932710
      2          8           0       -2.961822   -4.818502   -1.157362
      3          8           0       -6.954174   -1.534026   -1.845871
      4          8           0       -3.860272   -3.103400    0.052832
      5          8           0       -7.595617   -0.630020    0.014700
      6          8           0        3.133820    2.509608    0.486809
      7          7           0        0.291810   -0.595865    0.588880
      8          7           0       -1.536875    1.840358    0.280328
      9          7           0        3.245033   -3.253045   -0.619207
     10          7           0        0.900316    2.815893    0.071553
     11          6           0       -0.762508   -2.325436    1.532855
     12          6           0       -0.983509   -0.999117    1.079673
     13          6           0        0.655504   -2.637680    1.298993
     14          6           0        1.219092   -1.506918    0.646973
     15          6           0       -3.782404    1.544091    0.342310
     16          6           0       -2.451391    0.915890    0.569342
     17          6           0       -2.207957   -0.411212    0.979028
     18          6           0       -3.469964    2.853402   -0.098566
     19          6           0       -1.716907   -3.301372    2.027329
     20          6           0        5.455613   -2.871865   -1.250241
     21          6           0        3.501698   -1.966746   -0.187526
     22          6           0       -2.087176    3.016962   -0.100070
     23          6           0        4.897093   -1.618591   -0.525558
     24          6           0       -5.111637    1.012753    0.372283
     25          6           0        2.581892   -1.115961    0.262224
     26          6           0        1.429861   -3.860299    1.733125
     27          6           0        4.315426   -3.852081   -1.376036
     28          6           0       -2.038893   -4.524425    1.006827
     29          6           0       -5.311919    0.011434   -0.783348
     30          6           0       -4.478823    4.026291   -0.468613
     31          6           0       -1.114220    4.035244   -0.409178
     32          6           0        6.791177   -3.507779   -0.863637
     33          6           0        5.655635   -0.608307   -0.132233
     34          6           0        0.219248    4.004678   -0.346820
     35          6           0        1.021243    5.238287   -0.504627
     36          6           0        2.259831    4.701972   -0.248908
     37          6           0       -3.145152   -4.068410   -0.078113
     38          6           0        5.563495    0.565801    0.769566
     39          6           0       -6.780156   -0.709165   -0.800236
     40          6           0        3.661757    5.410003   -0.226983
     41          6           0        2.228127    3.277516    0.081035
     42          6           0        0.677864    6.555203   -0.937658
     43          6           0        4.511838    5.436275    1.037743
     44          1           0        0.401992    0.263067    0.205165
     45          1           0       -3.356199   -0.999089    0.926597
     46          1           0       -2.679148   -2.717364    2.300492
     47          1           0       -1.244471   -3.668367    3.013367
     48          1           0        5.460964   -2.442605   -2.299072
     49          1           0       -5.616629    0.326769    1.225699
     50          1           0       -5.907489    1.897796    0.321276
     51          1           0        2.697661    0.051499    0.369858
     52          1           0       -0.500727    1.940825    0.688650
     53          1           0        1.228324   -5.005613    1.305120
     54          1           0        2.527180   -3.685498    1.776290
     55          1           0        1.314111   -4.011171    2.783815
     56          1           0        2.149134   -3.471973   -0.780851
     57          1           0       -1.080420   -4.950331    0.669786
     58          1           0       -2.551475   -5.030347    1.882753
     59          1           0       -4.648774   -0.857713   -0.667556
     60          1           0       -5.195146    0.478103   -1.795083
     61          1           0       -4.302819    5.077272    0.150664
     62          1           0       -5.480994    3.776716    0.165747
     63          1           0       -4.787459    4.142768   -1.542601
     64          1           0       -1.363234    5.093928   -0.659598
     65          1           0        7.650857   -2.807131   -1.050729
     66          1           0        6.978229   -4.112776   -1.472012
     67          1           0        6.832552   -3.801219    0.276555
     68          1           0        6.614042   -0.768474   -0.552122
     69          1           0        4.718953    1.303937    0.363516
     70          1           0        6.554130    0.918480    1.142878
     71          1           0        4.961456    0.208006    1.535281
     72          1           0        3.506094    6.352357   -0.676675
     73          1           0        4.431488    4.869459   -0.855013
     74          1           0        0.455880    6.659290   -1.966755
     75          1           0        1.566314    7.177369   -0.742190
     76          1           0       -0.207211    6.849594   -0.221286
     77          1           0        4.100032    6.013539    1.984508
     78          1           0        5.580020    5.808748    1.051699
     79          1           0        4.679699    4.389108    1.379161
     80          1           0       -3.701106   -4.544964   -1.897575
     81          1           0       -7.854092   -2.080737   -1.943546
 ---------------------------------------------------------------------

 SCF Done:  E(RB3LYP) =  -1949.02610715     A.U. after   19 cycles

 Excitation energies and oscillator strengths:

 Excited State   1:      Singlet-A      1.7712 eV  700.02 nm  f=0.2785  <S**2>=0.000
     154 ->157        -0.11060
     156 ->157         0.69951
     156 <-157        -0.10974
 This state for optimization and/or second-order correction.
 Total Energy, E(TD-HF/TD-DFT) =  -1948.96101851
 Copying the excited state density for this state as the 1-particle RhoCI density.

 The electronic state is 1-A.
 Alpha  occ. eigenvalues --  -19.21871 -19.17640 -19.15633 -19.12571 -19.11843
 Alpha  occ. eigenvalues --  -19.08324 -14.38152 -14.37654 -14.35894 -14.27672
 Alpha  occ. eigenvalues --  -10.35062 -10.31789 -10.30531 -10.24707 -10.24279
 Alpha  occ. eigenvalues --  -10.24080 -10.23611 -10.23579 -10.23413 -10.23376
 Alpha  occ. eigenvalues --  -10.23134 -10.22391 -10.21955 -10.21742 -10.21573
 Alpha  occ. eigenvalues --  -10.21460 -10.21212 -10.21039 -10.20705 -10.20676
 Alpha  occ. eigenvalues --  -10.20589 -10.20253 -10.19857 -10.19521 -10.19442
 Alpha  occ. eigenvalues --  -10.19344 -10.18883 -10.18680 -10.18391 -10.18296
 Alpha  occ. eigenvalues --  -10.18054 -10.17542 -10.17260  -1.11615  -1.10255
 Alpha  occ. eigenvalues --   -1.03356  -1.00689  -1.00628  -1.00228  -0.99024
 Alpha  occ. eigenvalues --   -0.98132  -0.94564  -0.89086  -0.83059  -0.82102
 Alpha  occ. eigenvalues --   -0.81710  -0.81280  -0.79201  -0.78839  -0.77193
 Alpha  occ. eigenvalues --   -0.76701  -0.76190  -0.75182  -0.74297  -0.72254
 Alpha  occ. eigenvalues --   -0.70431  -0.70293  -0.68884  -0.68607  -0.68110
 Alpha  occ. eigenvalues --   -0.66938  -0.66158  -0.64855  -0.62281  -0.61637
 Alpha  occ. eigenvalues --   -0.60794  -0.59745  -0.58266  -0.57993  -0.57342
 Alpha  occ. eigenvalues --   -0.56078  -0.55087  -0.54671  -0.53393  -0.52318
 Alpha  occ. eigenvalues --   -0.51855  -0.51286  -0.51115  -0.50620  -0.49554
 Alpha  occ. eigenvalues --   -0.49400  -0.48898  -0.48630  -0.47817  -0.47322
 Alpha  occ. eigenvalues --   -0.47244  -0.46974  -0.46425  -0.45616  -0.45458
 Alpha  occ. eigenvalues --   -0.44928  -0.44402  -0.44185  -0.43714  -0.43385
 Alpha  occ. eigenvalues --   -0.43141  -0.42821  -0.42629  -0.42224  -0.42117
 Alpha  occ. eigenvalues --   -0.41961  -0.41332  -0.41169  -0.41049  -0.40605
 Alpha  occ. eigenvalues --   -0.40561  -0.39881  -0.39765  -0.39416  -0.39123
 Alpha  occ. eigenvalues --   -0.38789  -0.38590  -0.38470  -0.38073  -0.37638
 Alpha  occ. eigenvalues --   -0.37425  -0.37151  -0.36675  -0.36599  -0.35977
 Alpha  occ. eigenvalues --   -0.35677  -0.35559  -0.35416  -0.34889  -0.34723
 Alpha  occ. eigenvalues --   -0.34183  -0.33950  -0.33230  -0.32756  -0.32389
 Alpha  occ. eigenvalues --   -0.32176  -0.31926  -0.30977  -0.30720  -0.30302
 Alpha  occ. eigenvalues --   -0.28063  -0.27279  -0.26556  -0.26148  -0.25441
 Alpha  occ. eigenvalues --   -0.24862  -0.24483  -0.23160  -0.22438  -0.21151
 Alpha  occ. eigenvalues --   -0.18154
 Alpha virt. eigenvalues --   -0.10891  -0.05122  -0.03799  -0.02142  -0.01257
 Alpha virt. eigenvalues --    0.00028   0.01179   0.01891   0.02610   0.02727
 Alpha virt. eigenvalues --    0.03434   0.04340   0.04534   0.04863   0.05829

 Mulliken charges:
               1
     1  O   -0.257242
     2  O   -0.201983
     3  O   -0.254207
     4  O   -0.210051
     5  O   -0.166235
     6  O   -0.272567
     7  N    0.013619
     8  N   -0.089504
     9  N   -0.196501
    10  N   -0.361449
    11  C   -0.088245
    12  C    0.129975
    13  C   -0.161517
    14  C    0.009447
    15  C    0.006645
    16  C   -0.026997
    17  C   -0.126084
    18  C   -0.105822
    19  C   -0.001656
    20  C   -0.082682
    21  C    0.124785
    22  C    0.120076
    23  C   -0.029283
    24  C   -0.034752
    25  C   -0.161558
    26  C    0.031616
    27  C    0.171202
    28  C   -0.004957
    29  C   -0.058479
    30  C   -0.021784
    31  C   -0.110571
    32  C    0.236184
    33  C   -0.167647
    34  C    0.048263
    35  C   -0.091909
    36  C   -0.151707
    37  C    0.167674
    38  C    0.115684
    39  C    0.115205
    40  C    0.120153
    41  C    0.181332
    42  C    0.102512
    43  C   -0.063410
    44  H    0.079086
    45  H    0.107434
    46  H    0.030988
    47  H    0.031067
    48  H    0.050172
    49  H    0.052143
    50  H    0.031568
    51  H    0.068008
    52  H    0.196749
    53  H    0.046869
    54  H    0.026785
    55  H    0.000084
    56  H    0.184171
    57  H    0.051656
    58  H    0.060203
    59  H    0.053091
    60  H    0.035927
    61  H    0.050434
    62  H    0.025863
    63  H    0.055391
    64  H   -0.049374
    65  H   -0.002100
    66  H   -0.092930
    67  H    0.043350
    68  H   -0.036436
    69  H    0.106617
    70  H    0.027505
    71  H   -0.011095
    72  H   -0.033191
    73  H    0.014916
    74  H    0.031612
    75  H    0.019941
    76  H    0.044029
    77  H    0.003600
    78  H    0.006757
    79  H    0.033690
    80  H    0.234199
    81  H    0.225645
 Sum of Mulliken charges =  -0.00000

 Dipole moment (field-independent basis, Debye):
    X=             -3.9851    Y=             -1.1164    Z=             -1.2603  Tot=              4.3262
 Quadrupole moment (field-independent basis, Debye-Ang):
   XX=           -244.7904   YY=           -245.6895   ZZ=           -252.2463
   XY=             16.9738   XZ=             17.3010   YZ=            -12.5855

 Normal termination of Gaussian 16 at Thu Jun 27 07:13:03 2019.
