 Gaussian 16, Revision A.03,
 Gaussian 16:  ES64L-G16RevA.03 25-Dec-2016

 --------------------------
 # td=(NStates=1) B3LYP/SVP
 --------------------------

 --
 TD
 --
 Symbolic Z-matrix:
 Charge =  0 Multiplicity = 1

                         Standard orientation:
 ---------------------------------------------------------------------
 Center     Atomic      Atomic             Coordinates (Angstroms)
 Number     Number       Type             X           Y           Z
 ---------------------------------------------------------------------
      1          8           0        4.100672   -4.801263   -1.849155
      2          8           0       -3.108667   -4.774124   -1.229169
      3          8           0       -7.033388   -1.210225   -2.058859
      4          8           0       -3.776763   -2.997279    0.068327
      5          8           0       -7.646321   -0.497369   -0.029044
      6          8           0        3.012226    2.291410    0.539271
      7          7           0        0.251139   -0.478670    0.792770
      8          7           0       -1.594728    1.821303    0.459971
      9          7           0        3.216221   -3.084297   -0.724683
     10          7           0        0.790137    2.769674    0.179337
     11          6           0       -0.604703   -2.410709    1.562867
     12          6           0       -0.939502   -1.085905    1.053857
     13          6           0        0.742554   -2.607381    1.358365
     14          6           0        1.303649   -1.363301    0.767020
     15          6           0       -3.731236    1.492640    0.340916
     16          6           0       -2.499058    0.906046    0.658199
     17          6           0       -2.199882   -0.453109    1.039474
     18          6           0       -3.514320    2.778081   -0.160697
     19          6           0       -1.626542   -3.392263    2.056974
     20          6           0        5.350176   -2.771220   -1.309591
     21          6           0        3.571941   -1.866048   -0.196241
     22          6           0       -2.099041    2.986666    0.060414
     23          6           0        4.938470   -1.593362   -0.543836
     24          6           0       -5.005159    0.835112    0.506258
     25          6           0        2.617026   -1.110285    0.462340
     26          6           0        1.576594   -3.787441    1.687677
     27          6           0        4.168702   -3.761262   -1.388224
     28          6           0       -2.089840   -4.431381    0.937852
     29          6           0       -5.432016    0.030044   -0.764882
     30          6           0       -4.492154    3.779422   -0.599519
     31          6           0       -1.237395    4.053861   -0.278226
     32          6           0        6.788855   -3.438033   -0.994105
     33          6           0        5.731929   -0.644874   -0.233503
     34          6           0        0.202865    3.917992   -0.188371
     35          6           0        1.128880    5.044010   -0.557513
     36          6           0        2.342836    4.547619   -0.278279
     37          6           0       -3.013786   -3.953406   -0.083433
     38          6           0        5.548235    0.592114    0.568568
     39          6           0       -6.825520   -0.546248   -0.905024
     40          6           0        3.811615    5.252717   -0.347423
     41          6           0        2.139173    3.128432    0.176950
     42          6           0        0.849409    6.372834   -0.998744
     43          6           0        4.319447    5.419330    1.117555
     44          1           0        0.684982    0.413029    0.515219
     45          1           0       -2.988773   -1.170929    1.246402
     46          1           0       -2.537192   -3.103142    2.310295
     47          1           0       -1.190500   -3.834574    2.968928
     48          1           0        5.574037   -2.282796   -2.390912
     49          1           0       -5.049366   -0.108984    1.392454
     50          1           0       -5.884702    1.418383    0.872773
     51          1           0        2.682877   -0.112575    0.556657
     52          1           0       -0.565121    1.806078    0.794174
     53          1           0        1.683222   -4.518472    0.849843
     54          1           0        2.597526   -3.425688    2.035103
     55          1           0        1.040628   -4.289946    2.553771
     56          1           0        2.284035   -3.531851   -0.562809
     57          1           0       -1.093324   -4.797027    0.553004
     58          1           0       -2.716858   -5.191848    1.477270
     59          1           0       -4.734564   -0.873892   -0.973525
     60          1           0       -5.128260    0.554759   -1.691262
     61          1           0       -4.200991    4.778430   -0.007458
     62          1           0       -5.523165    3.513365   -0.173387
     63          1           0       -4.516224    4.015467   -1.646613
     64          1           0       -1.798789    4.942887   -0.713636
     65          1           0        7.494325   -2.600319   -0.903783
     66          1           0        7.135584   -4.324125   -1.751744
     67          1           0        6.633193   -3.825798   -0.010363
     68          1           0        6.744864   -0.726631   -0.671796
     69          1           0        4.927094    1.453064    0.030746
     70          1           0        6.523549    0.830554    0.897697
     71          1           0        4.844254    0.414996    1.359471
     72          1           0        4.040518    6.149497   -0.849962
     73          1           0        4.419495    4.524945   -0.887509
     74          1           0        0.182158    6.407817   -1.868416
     75          1           0        1.881731    6.838681   -1.308452
     76          1           0        0.501409    7.180139   -0.074779
     77          1           0        3.737085    6.128261    1.628407
     78          1           0        5.383026    6.000979    0.873725
     79          1           0        4.505104    4.441609    1.644544
     80          1           0       -3.743015   -4.272884   -1.906277
     81          1           0       -7.784537   -1.630881   -1.816564
 ---------------------------------------------------------------------

 SCF Done:  E(RB3LYP) =  -1949.12403040     A.U. after   17 cycles

 Excitation energies and oscillator strengths:

 Excited State   1:      Singlet-A      1.6598 eV  747.00 nm  f=0.3394  <S**2>=0.000
     156 ->157         0.71434
     156 <-157        -0.14624
 This state for optimization and/or second-order correction.
 Total Energy, E(TD-HF/TD-DFT) =  -1949.06303496
 Copying the excited state density for this state as the 1-particle RhoCI density.

 The electronic state is 1-A.
 Alpha  occ. eigenvalues --  -19.19626 -19.17936 -19.15027 -19.12500 -19.11820
 Alpha  occ. eigenvalues --  -19.09549 -14.38264 -14.37558 -14.35319 -14.29240
 Alpha  occ. eigenvalues --  -10.34380 -10.31796 -10.29017 -10.26396 -10.25484
 Alpha  occ. eigenvalues --  -10.23969 -10.23819 -10.23132 -10.22808 -10.22506
 Alpha  occ. eigenvalues --  -10.22303 -10.21368 -10.21288 -10.21216 -10.21042
 Alpha  occ. eigenvalues --  -10.20853 -10.20822 -10.20812 -10.20409 -10.20329
 Alpha  occ. eigenvalues --  -10.20325 -10.20047 -10.19308 -10.19294 -10.19205
 Alpha  occ. eigenvalues --  -10.19194 -10.19193 -10.19121 -10.19065 -10.18843
 Alpha  occ. eigenvalues --  -10.18618 -10.18192 -10.17270  -1.11800  -1.08644
 Alpha  occ. eigenvalues --   -1.08277  -1.01471  -1.00429  -1.00352  -0.99200
 Alpha  occ. eigenvalues --   -0.99073  -0.98034  -0.91417  -0.83558  -0.83308
 Alpha  occ. eigenvalues --   -0.81877  -0.81796  -0.79795  -0.79346  -0.78953
 Alpha  occ. eigenvalues --   -0.76515  -0.75991  -0.74967  -0.74586  -0.72500
 Alpha  occ. eigenvalues --   -0.71444  -0.70741  -0.69607  -0.68700  -0.68037
 Alpha  occ. eigenvalues --   -0.67382  -0.66067  -0.65694  -0.62457  -0.60683
 Alpha  occ. eigenvalues --   -0.60422  -0.59676  -0.59025  -0.58358  -0.57286
 Alpha  occ. eigenvalues --   -0.56134  -0.55391  -0.54698  -0.54442  -0.52926
 Alpha  occ. eigenvalues --   -0.52253  -0.52094  -0.51774  -0.50476  -0.50229
 Alpha  occ. eigenvalues --   -0.49677  -0.49228  -0.49096  -0.49001  -0.47951
 Alpha  occ. eigenvalues --   -0.47773  -0.46796  -0.46253  -0.46075  -0.46021
 Alpha  occ. eigenvalues --   -0.45608  -0.45029  -0.44876  -0.44532  -0.44341
 Alpha  occ. eigenvalues --   -0.43209  -0.42918  -0.42740  -0.42649  -0.42379
 Alpha  occ. eigenvalues --   -0.42168  -0.41762  -0.41648  -0.41247  -0.41029
 Alpha  occ. eigenvalues --   -0.40689  -0.40526  -0.40252  -0.40076  -0.39759
 Alpha  occ. eigenvalues --   -0.39585  -0.39196  -0.38897  -0.38774  -0.38327
 Alpha  occ. eigenvalues --   -0.38134  -0.37939  -0.37522  -0.36971  -0.36919
 Alpha  occ. eigenvalues --   -0.36345  -0.36208  -0.35755  -0.35282  -0.35189
 Alpha  occ. eigenvalues --   -0.34749  -0.34590  -0.33601  -0.33566  -0.32760
 Alpha  occ. eigenvalues --   -0.32111  -0.31351  -0.31153  -0.30073  -0.29691
 Alpha  occ. eigenvalues --   -0.28439  -0.28215  -0.27111  -0.27016  -0.26167
 Alpha  occ. eigenvalues --   -0.25479  -0.24616  -0.24179  -0.23704  -0.21711
 Alpha  occ. eigenvalues --   -0.16927
 Alpha virt. eigenvalues --   -0.10450  -0.05844  -0.04109  -0.03047   0.00408
 Alpha virt. eigenvalues --    0.00789   0.02019   0.02458   0.02901   0.03725
 Alpha virt. eigenvalues --    0.04410   0.04706   0.05419   0.05954   0.06367

 Mulliken charges:
               1
     1  O   -0.113781
     2  O   -0.266588
     3  O   -0.124241
     4  O   -0.238567
     5  O   -0.223809
     6  O   -0.270222
     7  N   -0.066303
     8  N   -0.005633
     9  N   -0.103260
    10  N   -0.297552
    11  C   -0.102505
    12  C    0.057255
    13  C   -0.176385
    14  C    0.007177
    15  C   -0.020170
    16  C    0.049365
    17  C   -0.031104
    18  C   -0.121415
    19  C    0.160368
    20  C   -0.189191
    21  C    0.102169
    22  C    0.021405
    23  C    0.143444
    24  C   -0.011037
    25  C   -0.064986
    26  C    0.053555
    27  C    0.113920
    28  C    0.002862
    29  C   -0.039128
    30  C    0.054715
    31  C   -0.128662
    32  C    0.029865
    33  C   -0.258646
    34  C    0.087073
    35  C   -0.085979
    36  C   -0.140015
    37  C    0.167204
    38  C    0.099567
    39  C    0.129032
    40  C    0.096642
    41  C    0.159947
    42  C    0.010507
    43  C   -0.042368
    44  H    0.162797
    45  H   -0.003205
    46  H   -0.039491
    47  H    0.014185
    48  H    0.056601
    49  H    0.037029
    50  H    0.031651
    51  H   -0.066680
    52  H    0.171800
    53  H    0.034303
    54  H    0.048317
    55  H    0.019694
    56  H    0.136825
    57  H    0.046029
    58  H    0.065440
    59  H    0.048572
    60  H    0.017473
    61  H    0.034309
    62  H    0.027962
    63  H    0.029164
    64  H   -0.016290
    65  H    0.016364
    66  H    0.063686
    67  H    0.008962
    68  H   -0.010782
    69  H    0.091182
    70  H    0.001015
    71  H    0.013741
    72  H   -0.009667
    73  H    0.006766
    74  H    0.031494
    75  H    0.024877
    76  H    0.051979
    77  H    0.011236
    78  H    0.007532
    79  H    0.058418
    80  H    0.228742
    81  H    0.123449
 Sum of Mulliken charges =  -0.00000

 Dipole moment (field-independent basis, Debye):
    X=             -0.3613    Y=             -0.6987    Z=             -0.4572  Tot=              0.9099
 Quadrupole moment (field-independent basis, Debye-Ang):
   XX=           -258.9972   YY=           -241.7965   ZZ=           -253.9927
   XY=             12.2650   XZ=              9.2479   YZ=            -16.2056

 Normal termination of Gaussian 16 at Sun Jun 30 07:16:18 2019.
