 Gaussian 16, Revision A.03,
 Gaussian 16:  ES64L-G16RevA.03 25-Dec-2016

 --------------------------
 # td=(NStates=1) B3LYP/SVP
 --------------------------

 --
 TD
 --
 Symbolic Z-matrix:
 Charge =  0 Multiplicity = 1

                         Standard orientation:
 ---------------------------------------------------------------------
 Center     Atomic      Atomic             Coordinates (Angstroms)
 Number     Number       Type             X           Y           Z
 ---------------------------------------------------------------------
      1          8           0        4.258121   -4.718513   -1.961072
      2          8           0       -2.940569   -5.154810   -0.720449
      3          8           0       -6.951212   -1.389324   -1.963388
      4          8           0       -3.732916   -3.184469    0.201725
      5          8           0       -7.698763   -0.337655   -0.147149
      6          8           0        2.982785    2.257637    0.331689
      7          7           0        0.260323   -0.468069    0.440355
      8          7           0       -1.589037    1.704621    0.150327
      9          7           0        3.336548   -3.090095   -0.606136
     10          7           0        0.814777    2.803083   -0.045802
     11          6           0       -0.630277   -2.367440    1.431346
     12          6           0       -0.950593   -1.114460    0.950234
     13          6           0        0.880965   -2.547910    1.242988
     14          6           0        1.316813   -1.292358    0.688016
     15          6           0       -3.872850    1.478566    0.154389
     16          6           0       -2.595115    0.704191    0.336898
     17          6           0       -2.307512   -0.505602    0.867783
     18          6           0       -3.584985    2.766238   -0.071376
     19          6           0       -1.623256   -3.183063    2.141081
     20          6           0        5.507362   -2.727445   -1.387985
     21          6           0        3.666704   -1.756185   -0.173685
     22          6           0       -2.095690    2.934421   -0.108128
     23          6           0        5.097449   -1.620248   -0.580238
     24          6           0       -5.190356    0.744001    0.296848
     25          6           0        2.695147   -0.986170    0.426318
     26          6           0        1.560354   -3.668846    1.760990
     27          6           0        4.309904   -3.634845   -1.351016
     28          6           0       -2.010761   -4.445372    1.344850
     29          6           0       -5.257363   -0.270182   -0.925269
     30          6           0       -4.570257    3.870675   -0.442552
     31          6           0       -1.296188    3.969319   -0.312828
     32          6           0        6.844864   -3.353956   -1.060096
     33          6           0        5.732781   -0.563910   -0.165954
     34          6           0        0.144839    3.952953   -0.235823
     35          6           0        1.002958    5.111603   -0.388222
     36          6           0        2.285962    4.567377   -0.154832
     37          6           0       -2.990225   -4.140215    0.168477
     38          6           0        5.489420    0.672351    0.764314
     39          6           0       -6.773807   -0.679286   -0.894658
     40          6           0        3.690028    5.170087   -0.190119
     41          6           0        2.111224    3.103222    0.169159
     42          6           0        0.654720    6.601203   -0.751059
     43          6           0        4.163490    5.667147    1.205572
     44          1           0        0.307001    0.560261    0.051331
     45          1           0       -3.251352   -1.262708    0.871234
     46          1           0       -2.427830   -2.639148    2.453962
     47          1           0       -1.218632   -3.375113    3.115657
     48          1           0        5.535548   -2.294367   -2.412920
     49          1           0       -5.192476    0.184599    1.219197
     50          1           0       -6.015142    1.420430    0.444098
     51          1           0        2.847386    0.084834    0.528547
     52          1           0       -0.431265    1.692188    0.282661
     53          1           0        1.539317   -4.312205    0.904593
     54          1           0        2.579091   -3.552421    1.991616
     55          1           0        1.074071   -4.103614    2.681781
     56          1           0        2.410008   -3.529393   -0.726453
     57          1           0       -1.115437   -4.744154    0.844430
     58          1           0       -2.877818   -4.914733    1.973045
     59          1           0       -4.752009   -1.321658   -0.808233
     60          1           0       -4.923847   -0.000168   -1.954823
     61          1           0       -4.151104    4.830774    0.065887
     62          1           0       -5.771132    3.637603   -0.097809
     63          1           0       -4.924094    4.003999   -1.724974
     64          1           0       -1.472741    4.987704   -0.490301
     65          1           0        7.962951   -2.811343   -1.262796
     66          1           0        7.248668   -4.224510   -1.712618
     67          1           0        6.901998   -3.660434   -0.036021
     68          1           0        6.886739   -0.467543   -0.516329
     69          1           0        4.999743    1.566683    0.048342
     70          1           0        6.442911    1.004131    1.299702
     71          1           0        4.801532    0.189825    1.376720
     72          1           0        3.731433    5.935420   -0.806306
     73          1           0        4.326412    4.432514   -0.617624
     74          1           0        0.241427    6.690191   -1.660197
     75          1           0        1.703312    7.354422   -0.673392
     76          1           0        0.032379    7.040441    0.035872
     77          1           0        3.294192    6.308313    1.654424
     78          1           0        5.127623    6.444177    1.415515
     79          1           0        4.326529    4.674962    1.783245
     80          1           0       -3.387522   -5.240051   -1.617482
     81          1           0       -7.940195   -1.754791   -1.958177
 ---------------------------------------------------------------------

 SCF Done:  E(RB3LYP) =  -1949.00688065     A.U. after   17 cycles

 Excitation energies and oscillator strengths:

 Excited State   1:      Singlet-A      1.6157 eV  767.37 nm  f=0.1766  <S**2>=0.000
     156 ->157         0.70488
 This state for optimization and/or second-order correction.
 Total Energy, E(TD-HF/TD-DFT) =  -1948.94750472
 Copying the excited state density for this state as the 1-particle RhoCI density.

 The electronic state is 1-A.
 Alpha  occ. eigenvalues --  -19.20044 -19.19442 -19.14585 -19.12428 -19.10832
 Alpha  occ. eigenvalues --  -19.09106 -14.37123 -14.36587 -14.35847 -14.29734
 Alpha  occ. eigenvalues --  -10.34267 -10.31950 -10.27771 -10.26761 -10.24482
 Alpha  occ. eigenvalues --  -10.24167 -10.23893 -10.23682 -10.23253 -10.22857
 Alpha  occ. eigenvalues --  -10.22734 -10.22121 -10.21776 -10.21728 -10.21648
 Alpha  occ. eigenvalues --  -10.21501 -10.20838 -10.20640 -10.20570 -10.20440
 Alpha  occ. eigenvalues --  -10.20253 -10.20138 -10.19825 -10.19314 -10.19099
 Alpha  occ. eigenvalues --  -10.19075 -10.18966 -10.18868 -10.18638 -10.18542
 Alpha  occ. eigenvalues --  -10.18205 -10.18182 -10.17879  -1.10622  -1.09890
 Alpha  occ. eigenvalues --   -1.02640  -1.02230  -1.01560  -0.99373  -0.96901
 Alpha  occ. eigenvalues --   -0.94924  -0.93929  -0.93146  -0.82575  -0.82349
 Alpha  occ. eigenvalues --   -0.81842  -0.80543  -0.79463  -0.78780  -0.77256
 Alpha  occ. eigenvalues --   -0.76778  -0.76139  -0.75043  -0.73585  -0.72701
 Alpha  occ. eigenvalues --   -0.70057  -0.69154  -0.68923  -0.68640  -0.67282
 Alpha  occ. eigenvalues --   -0.66215  -0.65932  -0.64546  -0.62818  -0.61828
 Alpha  occ. eigenvalues --   -0.61138  -0.59444  -0.58569  -0.57854  -0.56748
 Alpha  occ. eigenvalues --   -0.55923  -0.55503  -0.54424  -0.53788  -0.52453
 Alpha  occ. eigenvalues --   -0.51610  -0.51505  -0.50735  -0.50220  -0.49297
 Alpha  occ. eigenvalues --   -0.48913  -0.48618  -0.48157  -0.47771  -0.47652
 Alpha  occ. eigenvalues --   -0.47407  -0.46793  -0.45641  -0.45391  -0.45245
 Alpha  occ. eigenvalues --   -0.44912  -0.44686  -0.44188  -0.43996  -0.43891
 Alpha  occ. eigenvalues --   -0.43484  -0.42828  -0.42094  -0.41956  -0.41813
 Alpha  occ. eigenvalues --   -0.41368  -0.41017  -0.40899  -0.40700  -0.40570
 Alpha  occ. eigenvalues --   -0.40096  -0.40063  -0.39653  -0.39370  -0.39225
 Alpha  occ. eigenvalues --   -0.38931  -0.38621  -0.38502  -0.38330  -0.38130
 Alpha  occ. eigenvalues --   -0.37888  -0.37319  -0.36760  -0.36595  -0.35707
 Alpha  occ. eigenvalues --   -0.35404  -0.34972  -0.34767  -0.34523  -0.34249
 Alpha  occ. eigenvalues --   -0.34038  -0.33834  -0.33424  -0.32919  -0.32711
 Alpha  occ. eigenvalues --   -0.32050  -0.31840  -0.30093  -0.29649  -0.28885
 Alpha  occ. eigenvalues --   -0.28785  -0.28142  -0.25903  -0.25600  -0.25187
 Alpha  occ. eigenvalues --   -0.25051  -0.24302  -0.23821  -0.22998  -0.21663
 Alpha  occ. eigenvalues --   -0.17910
 Alpha virt. eigenvalues --   -0.10990  -0.05745  -0.03011  -0.00946   0.00487
 Alpha virt. eigenvalues --    0.00700   0.01576   0.02327   0.02514   0.02958
 Alpha virt. eigenvalues --    0.03391   0.03726   0.04387   0.05334   0.05666

 Mulliken charges:
               1
     1  O   -0.254379
     2  O   -0.229727
     3  O   -0.177097
     4  O   -0.215859
     5  O   -0.262889
     6  O   -0.210966
     7  N   -0.156667
     8  N   -0.219424
     9  N   -0.120184
    10  N   -0.287038
    11  C   -0.165936
    12  C    0.075576
    13  C   -0.205123
    14  C    0.074326
    15  C   -0.067325
    16  C    0.090865
    17  C   -0.098848
    18  C   -0.077977
    19  C    0.180056
    20  C    0.091124
    21  C    0.113609
    22  C    0.222884
    23  C    0.031213
    24  C    0.177551
    25  C   -0.128114
    26  C    0.152665
    27  C    0.065419
    28  C    0.053910
    29  C   -0.099176
    30  C   -0.079443
    31  C   -0.090722
    32  C   -0.009076
    33  C   -0.274710
    34  C   -0.027550
    35  C   -0.083519
    36  C   -0.230016
    37  C    0.135729
    38  C    0.061589
    39  C    0.136430
    40  C    0.212447
    41  C    0.163444
    42  C    0.086111
    43  C   -0.109190
    44  H    0.161857
    45  H    0.091118
    46  H   -0.041638
    47  H   -0.005452
    48  H    0.045389
    49  H    0.012339
    50  H    0.009453
    51  H    0.005447
    52  H    0.207253
    53  H   -0.001424
    54  H   -0.000591
    55  H    0.025115
    56  H    0.145613
    57  H    0.027936
    58  H    0.063834
    59  H    0.078401
    60  H    0.053016
    61  H    0.053955
    62  H    0.047419
    63  H    0.055939
    64  H   -0.070516
    65  H    0.022108
    66  H    0.032107
    67  H    0.012766
    68  H   -0.001369
    69  H    0.103068
    70  H    0.026693
    71  H    0.015392
    72  H   -0.054774
    73  H    0.001838
    74  H    0.014343
    75  H    0.043731
    76  H    0.034372
    77  H    0.024552
    78  H    0.039722
    79  H    0.048192
    80  H    0.219633
    81  H    0.209168
 Sum of Mulliken charges =  -0.00000

 Dipole moment (field-independent basis, Debye):
    X=             -3.8123    Y=              1.2030    Z=             -1.0197  Tot=              4.1256
 Quadrupole moment (field-independent basis, Debye-Ang):
   XX=           -255.3303   YY=           -234.6206   ZZ=           -252.1983
   XY=             28.9435   XZ=             17.8445   YZ=             -8.4175

 Normal termination of Gaussian 16 at Sat Jun 29 06:39:36 2019.
