 Gaussian 16, Revision A.03,
 Gaussian 16:  ES64L-G16RevA.03 25-Dec-2016

 --------------------------
 # td=(NStates=1) B3LYP/SVP
 --------------------------

 --
 TD
 --
 Symbolic Z-matrix:
 Charge =  0 Multiplicity = 1

                         Standard orientation:
 ---------------------------------------------------------------------
 Center     Atomic      Atomic             Coordinates (Angstroms)
 Number     Number       Type             X           Y           Z
 ---------------------------------------------------------------------
      1          8           0        4.136353   -4.982135   -1.761308
      2          8           0       -3.013842   -4.826143   -0.985170
      3          8           0       -6.832623   -1.671822   -1.872714
      4          8           0       -3.917036   -3.056704   -0.011263
      5          8           0       -7.421257   -0.836041    0.138145
      6          8           0        3.013888    2.297259    0.277231
      7          7           0        0.312346   -0.473576    0.580473
      8          7           0       -1.478757    1.930677    0.471912
      9          7           0        3.143112   -3.185773   -0.799602
     10          7           0        0.735406    2.900797   -0.139012
     11          6           0       -0.704038   -2.315923    1.335394
     12          6           0       -0.947740   -1.011219    0.939450
     13          6           0        0.710914   -2.598943    1.237463
     14          6           0        1.322324   -1.402450    0.698137
     15          6           0       -3.820406    1.635100    0.228828
     16          6           0       -2.430803    0.930968    0.564020
     17          6           0       -2.246873   -0.336466    0.779578
     18          6           0       -3.474119    2.947758   -0.117855
     19          6           0       -1.699333   -3.256776    2.052981
     20          6           0        5.365007   -2.966736   -1.395952
     21          6           0        3.572922   -1.910047   -0.205319
     22          6           0       -2.069776    3.188151   -0.011132
     23          6           0        5.017715   -1.729706   -0.526056
     24          6           0       -5.053605    0.919809    0.251219
     25          6           0        2.641570   -1.051050    0.370424
     26          6           0        1.451477   -3.785051    1.802438
     27          6           0        4.186258   -3.826455   -1.357480
     28          6           0       -2.274320   -4.382006    1.187268
     29          6           0       -5.367285    0.086373   -1.021179
     30          6           0       -4.375551    4.025561   -0.561164
     31          6           0       -1.175122    4.157641   -0.224856
     32          6           0        6.631135   -3.689602   -0.854872
     33          6           0        5.895535   -0.773355   -0.034784
     34          6           0        0.235754    4.123824   -0.285164
     35          6           0        1.129422    5.247981   -0.364483
     36          6           0        2.444863    4.636861   -0.288798
     37          6           0       -3.135024   -3.991879    0.087927
     38          6           0        5.465511    0.518807    0.719608
     39          6           0       -6.646709   -0.821254   -0.755300
     40          6           0        3.821862    5.286203   -0.272346
     41          6           0        2.096162    3.121889    0.004756
     42          6           0        0.634887    6.616290   -0.796255
     43          6           0        4.368753    5.457743    1.228819
     44          1           0        0.539821    0.389004    0.266262
     45          1           0       -3.108563   -0.848790    1.003793
     46          1           0       -2.533509   -2.634451    2.440095
     47          1           0       -1.244319   -3.608082    3.015960
     48          1           0        5.640746   -2.446709   -2.361511
     49          1           0       -4.785170    0.082137    0.979995
     50          1           0       -5.890337    1.619892    0.809516
     51          1           0        2.882385   -0.035472    0.511900
     52          1           0       -0.704352    1.783068    0.697553
     53          1           0        1.389535   -4.586709    1.079753
     54          1           0        2.610196   -3.476040    1.684197
     55          1           0        1.010928   -4.260215    2.727510
     56          1           0        2.151041   -3.458132   -0.793493
     57          1           0       -1.295797   -5.186882    0.905119
     58          1           0       -2.651241   -5.087617    1.871816
     59          1           0       -4.543193   -0.621946   -1.074295
     60          1           0       -5.435470    0.733968   -1.828609
     61          1           0       -4.415014    4.832401    0.112995
     62          1           0       -5.369804    3.760021   -0.642862
     63          1           0       -4.168016    4.483552   -1.504001
     64          1           0       -1.570066    5.173154   -0.511451
     65          1           0        7.376203   -2.900594   -0.794842
     66          1           0        6.799100   -4.494371   -1.667712
     67          1           0        6.463167   -4.049167    0.207794
     68          1           0        6.961000   -0.899658   -0.583888
     69          1           0        5.002609    1.263672    0.104887
     70          1           0        6.223796    1.098318    1.332840
     71          1           0        4.860749    0.112204    1.450424
     72          1           0        3.785613    6.263928   -0.864556
     73          1           0        4.487291    4.429946   -0.696309
     74          1           0        0.282265    6.438908   -1.936885
     75          1           0        1.399403    7.321833   -0.865843
     76          1           0       -0.128984    7.087979   -0.197663
     77          1           0        3.711636    6.110620    1.844095
     78          1           0        5.264836    5.956892    1.056075
     79          1           0        4.202087    4.514285    1.824219
     80          1           0       -3.755275   -4.200875   -1.443809
     81          1           0       -7.582107   -2.572484   -1.726746
 ---------------------------------------------------------------------

 SCF Done:  E(RB3LYP) =  -1949.03954032     A.U. after   16 cycles

 Excitation energies and oscillator strengths:

 Excited State   1:      Singlet-A      1.5398 eV  805.20 nm  f=0.2145  <S**2>=0.000
     156 ->157         0.70958
     156 <-157        -0.10705
 This state for optimization and/or second-order correction.
 Total Energy, E(TD-HF/TD-DFT) =  -1948.98295373
 Copying the excited state density for this state as the 1-particle RhoCI density.

 The electronic state is 1-A.
 Alpha  occ. eigenvalues --  -19.19228 -19.17317 -19.15303 -19.13770 -19.11348
 Alpha  occ. eigenvalues --  -19.09096 -14.36686 -14.36422 -14.34570 -14.29279
 Alpha  occ. eigenvalues --  -10.34029 -10.32682 -10.27783 -10.27707 -10.25264
 Alpha  occ. eigenvalues --  -10.24391 -10.23421 -10.23304 -10.23246 -10.22947
 Alpha  occ. eigenvalues --  -10.22699 -10.22471 -10.22076 -10.21925 -10.21588
 Alpha  occ. eigenvalues --  -10.21532 -10.21370 -10.21309 -10.21018 -10.20979
 Alpha  occ. eigenvalues --  -10.20729 -10.20442 -10.20145 -10.20117 -10.19910
 Alpha  occ. eigenvalues --  -10.19330 -10.19308 -10.19138 -10.18998 -10.18861
 Alpha  occ. eigenvalues --  -10.18858 -10.18320 -10.17306  -1.11476  -1.07818
 Alpha  occ. eigenvalues --   -1.02105  -1.00715  -1.00147  -0.97926  -0.97717
 Alpha  occ. eigenvalues --   -0.96820  -0.93314  -0.92681  -0.83918  -0.82614
 Alpha  occ. eigenvalues --   -0.81923  -0.80812  -0.79372  -0.79186  -0.78321
 Alpha  occ. eigenvalues --   -0.77776  -0.76745  -0.75152  -0.74331  -0.72999
 Alpha  occ. eigenvalues --   -0.71857  -0.69775  -0.68939  -0.68656  -0.68299
 Alpha  occ. eigenvalues --   -0.67116  -0.65868  -0.64857  -0.62418  -0.61651
 Alpha  occ. eigenvalues --   -0.59513  -0.59100  -0.58014  -0.57480  -0.57393
 Alpha  occ. eigenvalues --   -0.55716  -0.55218  -0.54162  -0.53876  -0.52980
 Alpha  occ. eigenvalues --   -0.52286  -0.51747  -0.51559  -0.50687  -0.50201
 Alpha  occ. eigenvalues --   -0.49827  -0.49188  -0.48690  -0.48049  -0.47293
 Alpha  occ. eigenvalues --   -0.47273  -0.47048  -0.46031  -0.45652  -0.45339
 Alpha  occ. eigenvalues --   -0.44963  -0.44512  -0.44396  -0.43819  -0.43403
 Alpha  occ. eigenvalues --   -0.43342  -0.43022  -0.42820  -0.42604  -0.42394
 Alpha  occ. eigenvalues --   -0.42127  -0.41995  -0.41561  -0.41298  -0.40735
 Alpha  occ. eigenvalues --   -0.40588  -0.40414  -0.40140  -0.40026  -0.39712
 Alpha  occ. eigenvalues --   -0.39323  -0.39090  -0.39037  -0.38834  -0.38348
 Alpha  occ. eigenvalues --   -0.37982  -0.37412  -0.37126  -0.37019  -0.36862
 Alpha  occ. eigenvalues --   -0.36751  -0.36321  -0.35826  -0.35451  -0.34495
 Alpha  occ. eigenvalues --   -0.34217  -0.33610  -0.33357  -0.33213  -0.33110
 Alpha  occ. eigenvalues --   -0.33032  -0.31587  -0.31245  -0.30896  -0.30324
 Alpha  occ. eigenvalues --   -0.29202  -0.28594  -0.26560  -0.25504  -0.25191
 Alpha  occ. eigenvalues --   -0.24906  -0.24418  -0.24085  -0.23152  -0.21884
 Alpha  occ. eigenvalues --   -0.17735
 Alpha virt. eigenvalues --   -0.11317  -0.06215  -0.04594  -0.02909  -0.01296
 Alpha virt. eigenvalues --    0.00437   0.00595   0.01674   0.02543   0.03210
 Alpha virt. eigenvalues --    0.04118   0.04430   0.04607   0.05264   0.06122

 Mulliken charges:
               1
     1  O   -0.229551
     2  O   -0.220781
     3  O   -0.348144
     4  O   -0.261522
     5  O   -0.172901
     6  O   -0.250364
     7  N   -0.057561
     8  N    0.015213
     9  N   -0.129488
    10  N   -0.265030
    11  C   -0.103812
    12  C    0.069480
    13  C   -0.189483
    14  C    0.044745
    15  C   -0.072266
    16  C    0.061281
    17  C    0.014015
    18  C   -0.106580
    19  C    0.056405
    20  C   -0.099658
    21  C    0.073579
    22  C    0.211285
    23  C   -0.046118
    24  C   -0.011749
    25  C   -0.073705
    26  C    0.090506
    27  C    0.141295
    28  C   -0.013982
    29  C    0.050736
    30  C    0.177348
    31  C   -0.130152
    32  C    0.049431
    33  C   -0.164032
    34  C    0.045109
    35  C   -0.109021
    36  C   -0.172023
    37  C    0.219920
    38  C    0.083987
    39  C    0.182299
    40  C    0.016637
    41  C    0.177566
    42  C    0.094069
    43  C    0.018975
    44  H    0.084827
    45  H   -0.063070
    46  H    0.011527
    47  H    0.014808
    48  H    0.057245
    49  H    0.029098
    50  H    0.062850
    51  H   -0.013537
    52  H   -0.031700
    53  H    0.003243
    54  H    0.050797
    55  H    0.024576
    56  H    0.142892
    57  H    0.057505
    58  H    0.033024
    59  H    0.048933
    60  H    0.029318
    61  H    0.000803
    62  H   -0.026448
    63  H    0.008569
    64  H   -0.027743
    65  H    0.001848
    66  H    0.054554
    67  H    0.026126
    68  H    0.021409
    69  H    0.062939
    70  H    0.005711
    71  H    0.011946
    72  H    0.027846
    73  H    0.040895
    74  H    0.049156
    75  H   -0.008465
    76  H    0.027736
    77  H    0.001388
    78  H    0.016129
    79  H    0.042018
    80  H    0.200570
    81  H    0.254719
 Sum of Mulliken charges =  -0.00000

 Dipole moment (field-independent basis, Debye):
    X=             -3.4337    Y=              4.1711    Z=              0.6722  Tot=              5.4443
 Quadrupole moment (field-independent basis, Debye-Ang):
   XX=           -255.4716   YY=           -236.7837   ZZ=           -255.0153
   XY=             21.1358   XZ=              8.6739   YZ=            -17.4420

 Normal termination of Gaussian 16 at Wed Jul  3 07:59:06 2019.
