 Gaussian 16, Revision A.03,
 Gaussian 16:  ES64L-G16RevA.03 25-Dec-2016

 --------------------------
 # td=(NStates=1) B3LYP/SVP
 --------------------------

 --
 TD
 --
 Symbolic Z-matrix:
 Charge =  0 Multiplicity = 1

                         Standard orientation:
 ---------------------------------------------------------------------
 Center     Atomic      Atomic             Coordinates (Angstroms)
 Number     Number       Type             X           Y           Z
 ---------------------------------------------------------------------
      1          8           0        4.135717   -4.998289   -1.649987
      2          8           0       -2.976550   -4.898882   -0.895124
      3          8           0       -6.989943   -1.455340   -2.033487
      4          8           0       -3.917690   -3.287610    0.240944
      5          8           0       -7.650485   -0.459297   -0.074577
      6          8           0        3.107048    2.415188    0.411199
      7          7           0        0.243825   -0.463580    0.638242
      8          7           0       -1.607204    1.875852    0.323398
      9          7           0        3.206619   -3.078507   -0.673111
     10          7           0        0.904484    2.815402    0.031675
     11          6           0       -0.662959   -2.306034    1.524112
     12          6           0       -0.903133   -1.039444    0.948367
     13          6           0        0.663538   -2.516458    1.321916
     14          6           0        1.238697   -1.434018    0.668892
     15          6           0       -3.797486    1.600214    0.217682
     16          6           0       -2.528918    0.816691    0.498620
     17          6           0       -2.241243   -0.430678    0.906123
     18          6           0       -3.529071    2.870224   -0.213821
     19          6           0       -1.552789   -3.334337    2.117288
     20          6           0        5.405183   -2.916206   -1.566336
     21          6           0        3.556243   -1.821300   -0.163113
     22          6           0       -2.077277    3.034400   -0.196865
     23          6           0        5.039062   -1.681607   -0.684973
     24          6           0       -5.124043    0.826197    0.312829
     25          6           0        2.584625   -1.048007    0.381286
     26          6           0        1.516569   -3.706428    1.747795
     27          6           0        4.269429   -3.837657   -1.425517
     28          6           0       -2.031575   -4.474625    1.245163
     29          6           0       -5.389616   -0.172103   -0.919641
     30          6           0       -4.586072    3.949547   -0.414888
     31          6           0       -1.253827    4.114276   -0.397588
     32          6           0        6.680907   -3.677052   -0.999631
     33          6           0        5.887220   -0.616714   -0.254604
     34          6           0        0.227699    3.956328   -0.334243
     35          6           0        1.231064    5.137488   -0.571854
     36          6           0        2.463310    4.624570   -0.208491
     37          6           0       -3.037873   -4.119906    0.201994
     38          6           0        5.530649    0.668211    0.498946
     39          6           0       -6.775366   -0.665436   -0.956387
     40          6           0        3.779779    5.261929   -0.059848
     41          6           0        2.227284    3.209369    0.171860
     42          6           0        0.796640    6.555957   -0.775944
     43          6           0        4.178325    5.592259    1.332701
     44          1           0        0.215099    0.572551    0.253086
     45          1           0       -3.033914   -1.077242    0.984833
     46          1           0       -2.373437   -2.702691    2.489447
     47          1           0       -1.065547   -3.775322    2.902847
     48          1           0        5.552834   -2.819595   -2.598742
     49          1           0       -5.303612    0.273092    1.236916
     50          1           0       -5.899153    1.603748    0.438600
     51          1           0        3.013316   -0.192920    0.610341
     52          1           0       -0.368147    2.206032    0.623933
     53          1           0        1.690037   -4.505935    1.090547
     54          1           0        2.593662   -3.196917    1.826515
     55          1           0        1.034673   -3.875958    2.648520
     56          1           0        2.269324   -3.495738   -0.662955
     57          1           0       -1.232645   -4.915995    0.755968
     58          1           0       -2.524182   -5.282437    1.941846
     59          1           0       -4.708781   -0.819835   -0.896755
     60          1           0       -5.269558    0.327035   -1.846827
     61          1           0       -4.164791    4.914161   -0.155643
     62          1           0       -5.575683    3.767842    0.273012
     63          1           0       -5.002628    3.875345   -1.674349
     64          1           0       -1.603098    5.083742   -0.898658
     65          1           0        7.575621   -3.012281   -1.474581
     66          1           0        6.809120   -4.888528   -1.185258
     67          1           0        6.783423   -3.627909    0.328315
     68          1           0        6.888512   -0.821891   -0.795729
     69          1           0        4.981884    1.440711   -0.264703
     70          1           0        6.449813    1.093377    0.630704
     71          1           0        5.033268    0.469539    1.528808
     72          1           0        3.898078    6.073778   -0.852451
     73          1           0        4.620966    4.529990   -0.602576
     74          1           0        0.324779    6.803712   -1.827125
     75          1           0        1.644272    7.330712   -0.816388
     76          1           0        0.006367    7.056319   -0.057173
     77          1           0        3.367917    6.177889    1.840300
     78          1           0        5.227438    5.966095    1.350363
     79          1           0        4.216191    4.751024    2.150216
     80          1           0       -3.749738   -4.718223   -1.414762
     81          1           0       -7.930375   -1.675511   -1.824592
 ---------------------------------------------------------------------

 SCF Done:  E(RB3LYP) =  -1949.03011031     A.U. after   16 cycles

 Excitation energies and oscillator strengths:

 Excited State   1:      Singlet-A      1.6594 eV  747.15 nm  f=0.2386  <S**2>=0.000
     156 ->157         0.70743
     156 <-157        -0.10040
 This state for optimization and/or second-order correction.
 Total Energy, E(TD-HF/TD-DFT) =  -1948.96912705
 Copying the excited state density for this state as the 1-particle RhoCI density.

 The electronic state is 1-A.
 Alpha  occ. eigenvalues --  -19.19138 -19.18334 -19.13353 -19.12655 -19.12217
 Alpha  occ. eigenvalues --  -19.10683 -14.36977 -14.34585 -14.34459 -14.31866
 Alpha  occ. eigenvalues --  -10.32790 -10.32287 -10.29496 -10.27341 -10.25395
 Alpha  occ. eigenvalues --  -10.23909 -10.23530 -10.23293 -10.22859 -10.22524
 Alpha  occ. eigenvalues --  -10.22203 -10.22046 -10.22031 -10.21953 -10.21936
 Alpha  occ. eigenvalues --  -10.21899 -10.21614 -10.21252 -10.20976 -10.20617
 Alpha  occ. eigenvalues --  -10.20339 -10.20321 -10.20185 -10.20158 -10.19936
 Alpha  occ. eigenvalues --  -10.19656 -10.19508 -10.19138 -10.19013 -10.18340
 Alpha  occ. eigenvalues --  -10.17892 -10.17677 -10.16563  -1.11133  -1.09756
 Alpha  occ. eigenvalues --   -1.04839  -1.02980  -1.00846  -0.98776  -0.98606
 Alpha  occ. eigenvalues --   -0.95843  -0.92213  -0.92139  -0.82938  -0.81503
 Alpha  occ. eigenvalues --   -0.80896  -0.80518  -0.80089  -0.78455  -0.77536
 Alpha  occ. eigenvalues --   -0.77298  -0.75980  -0.75293  -0.73990  -0.72020
 Alpha  occ. eigenvalues --   -0.70406  -0.69459  -0.68984  -0.68354  -0.66535
 Alpha  occ. eigenvalues --   -0.65984  -0.64790  -0.63879  -0.62226  -0.61221
 Alpha  occ. eigenvalues --   -0.60910  -0.59093  -0.58901  -0.56483  -0.56137
 Alpha  occ. eigenvalues --   -0.55550  -0.54822  -0.54495  -0.53610  -0.52521
 Alpha  occ. eigenvalues --   -0.51845  -0.51504  -0.51070  -0.49795  -0.49451
 Alpha  occ. eigenvalues --   -0.49103  -0.48948  -0.48386  -0.48229  -0.47762
 Alpha  occ. eigenvalues --   -0.47422  -0.46577  -0.46129  -0.45409  -0.44823
 Alpha  occ. eigenvalues --   -0.44539  -0.44355  -0.44033  -0.43877  -0.43357
 Alpha  occ. eigenvalues --   -0.43184  -0.42825  -0.42604  -0.42377  -0.42046
 Alpha  occ. eigenvalues --   -0.41660  -0.41329  -0.40870  -0.40608  -0.40477
 Alpha  occ. eigenvalues --   -0.40382  -0.40004  -0.39896  -0.39658  -0.39575
 Alpha  occ. eigenvalues --   -0.39089  -0.38897  -0.38703  -0.38452  -0.38109
 Alpha  occ. eigenvalues --   -0.37930  -0.37689  -0.37366  -0.37290  -0.36371
 Alpha  occ. eigenvalues --   -0.36082  -0.35743  -0.35484  -0.35060  -0.34758
 Alpha  occ. eigenvalues --   -0.34332  -0.33607  -0.33269  -0.33061  -0.32919
 Alpha  occ. eigenvalues --   -0.32716  -0.31883  -0.31024  -0.29814  -0.28960
 Alpha  occ. eigenvalues --   -0.28723  -0.28097  -0.26904  -0.25723  -0.25365
 Alpha  occ. eigenvalues --   -0.24937  -0.24609  -0.24485  -0.24048  -0.21602
 Alpha  occ. eigenvalues --   -0.17460
 Alpha virt. eigenvalues --   -0.10537  -0.05946  -0.03540  -0.01394  -0.00559
 Alpha virt. eigenvalues --   -0.00447   0.01903   0.02741   0.03811   0.04242
 Alpha virt. eigenvalues --    0.04462   0.04925   0.05388   0.05620   0.05735

 Mulliken charges:
               1
     1  O   -0.168961
     2  O   -0.160624
     3  O   -0.178838
     4  O   -0.232284
     5  O   -0.281509
     6  O   -0.185376
     7  N   -0.068091
     8  N   -0.297995
     9  N   -0.247828
    10  N   -0.306827
    11  C   -0.138958
    12  C   -0.006838
    13  C   -0.175665
    14  C    0.148905
    15  C   -0.080129
    16  C    0.113769
    17  C   -0.013319
    18  C   -0.096532
    19  C    0.173871
    20  C    0.048969
    21  C    0.082864
    22  C    0.144170
    23  C   -0.066249
    24  C    0.085502
    25  C   -0.039269
    26  C    0.112886
    27  C    0.124621
    28  C    0.072520
    29  C    0.164613
    30  C   -0.018799
    31  C   -0.128361
    32  C   -0.127503
    33  C   -0.156430
    34  C    0.020527
    35  C   -0.029322
    36  C   -0.162606
    37  C    0.093264
    38  C    0.086001
    39  C    0.151472
    40  C    0.026934
    41  C    0.150876
    42  C   -0.021559
    43  C   -0.002427
    44  H    0.183955
    45  H   -0.035671
    46  H    0.008728
    47  H   -0.033523
    48  H    0.030384
    49  H    0.019331
    50  H   -0.010049
    51  H   -0.100332
    52  H    0.254283
    53  H    0.020574
    54  H    0.038199
    55  H   -0.002930
    56  H    0.132395
    57  H    0.001474
    58  H    0.063313
    59  H   -0.041846
    60  H    0.013269
    61  H    0.028672
    62  H    0.058630
    63  H    0.047409
    64  H    0.013202
    65  H    0.047105
    66  H    0.079580
    67  H    0.052568
    68  H    0.004911
    69  H    0.097624
    70  H   -0.016365
    71  H    0.065637
    72  H    0.011832
    73  H    0.021626
    74  H    0.031546
    75  H    0.026134
    76  H    0.055074
    77  H    0.017197
    78  H    0.026600
    79  H    0.030971
    80  H    0.170447
    81  H    0.178582
 Sum of Mulliken charges =  -0.00000

 Dipole moment (field-independent basis, Debye):
    X=             -0.1540    Y=              2.2453    Z=             -1.0572  Tot=              2.4865
 Quadrupole moment (field-independent basis, Debye-Ang):
   XX=           -253.2907   YY=           -233.6922   ZZ=           -251.3693
   XY=             17.2974   XZ=              8.6348   YZ=             -9.2252

 Normal termination of Gaussian 16 at Wed Jul  3 11:25:44 2019.
