 Gaussian 16, Revision A.03,
 Gaussian 16:  ES64L-G16RevA.03 25-Dec-2016

 --------------------------
 # td=(NStates=1) B3LYP/SVP
 --------------------------

 --
 TD
 --
 Symbolic Z-matrix:
 Charge =  0 Multiplicity = 1

                         Standard orientation:
 ---------------------------------------------------------------------
 Center     Atomic      Atomic             Coordinates (Angstroms)
 Number     Number       Type             X           Y           Z
 ---------------------------------------------------------------------
      1          8           0        4.367529   -4.776615   -2.017670
      2          8           0       -3.108757   -4.973199   -0.948120
      3          8           0       -6.902941   -1.526777   -1.956191
      4          8           0       -3.951922   -3.338442    0.210437
      5          8           0       -7.736541   -0.579149   -0.179069
      6          8           0        2.986221    2.486696    0.511076
      7          7           0        0.279859   -0.502317    0.517501
      8          7           0       -1.543343    1.816945    0.362168
      9          7           0        3.431229   -3.015676   -0.730421
     10          7           0        0.781557    2.888224    0.102538
     11          6           0       -0.550225   -2.387114    1.437106
     12          6           0       -0.820432   -1.032625    0.897032
     13          6           0        0.766793   -2.595345    1.273498
     14          6           0        1.354411   -1.345541    0.585101
     15          6           0       -3.785947    1.403708    0.301396
     16          6           0       -2.509516    0.796990    0.419757
     17          6           0       -2.092253   -0.524029    0.868058
     18          6           0       -3.599688    2.739652   -0.074402
     19          6           0       -1.604750   -3.196415    2.024102
     20          6           0        5.642983   -2.682122   -1.297903
     21          6           0        3.668001   -1.819737   -0.213701
     22          6           0       -2.222993    2.988241   -0.063456
     23          6           0        5.027087   -1.505558   -0.552365
     24          6           0       -5.072347    0.775946    0.534837
     25          6           0        2.750907   -0.924668    0.355572
     26          6           0        1.663999   -3.693213    1.717260
     27          6           0        4.425850   -3.723045   -1.413113
     28          6           0       -1.905059   -4.527360    1.142669
     29          6           0       -5.408586   -0.151827   -0.708520
     30          6           0       -4.602606    3.680114   -0.469916
     31          6           0       -1.404386    4.115741   -0.313076
     32          6           0        6.947117   -3.337659   -0.840328
     33          6           0        5.832146   -0.493267   -0.191379
     34          6           0        0.047926    4.074628   -0.228149
     35          6           0        0.932811    5.131269   -0.501276
     36          6           0        2.214850    4.763269   -0.175910
     37          6           0       -3.103479   -4.145494    0.177391
     38          6           0        5.445858    0.582304    0.842327
     39          6           0       -6.843974   -0.773254   -0.865543
     40          6           0        3.555202    5.361228   -0.291775
     41          6           0        2.032895    3.319692    0.230296
     42          6           0        0.529024    6.537359   -0.912257
     43          6           0        4.327345    5.365934    1.012475
     44          1           0        0.347398    0.306533   -0.176868
     45          1           0       -2.948457   -1.049067    0.975426
     46          1           0       -2.564250   -2.867507    2.482357
     47          1           0       -1.240614   -3.649373    3.092868
     48          1           0        5.706778   -2.323467   -2.279825
     49          1           0       -5.045958    0.024280    1.440899
     50          1           0       -5.905077    1.423954    0.719427
     51          1           0        3.187113    0.007629    0.636458
     52          1           0       -0.517978    2.016840    0.333491
     53          1           0        1.357285   -4.662352    1.061010
     54          1           0        2.775308   -3.454590    1.748485
     55          1           0        1.465812   -3.976192    2.694712
     56          1           0        2.588826   -3.649875   -0.776564
     57          1           0       -1.002494   -4.721796    0.374775
     58          1           0       -2.219172   -5.398710    1.579129
     59          1           0       -4.685596   -0.964407   -0.688760
     60          1           0       -5.082535    0.369850   -1.602677
     61          1           0       -4.519956    4.805785    0.096260
     62          1           0       -5.591842    3.267917   -0.310075
     63          1           0       -4.417115    3.714741   -1.548061
     64          1           0       -2.138193    4.948884   -0.579355
     65          1           0        7.627522   -2.490699   -1.020151
     66          1           0        7.361293   -4.231426   -1.400489
     67          1           0        6.816950   -3.638228    0.186049
     68          1           0        6.939639   -0.373355   -0.665732
     69          1           0        4.527853    1.185101    0.313791
     70          1           0        6.231726    1.156767    1.016098
     71          1           0        4.854170    0.114528    1.601670
     72          1           0        3.379047    6.565936   -0.591263
     73          1           0        4.049605    4.852125   -1.125694
     74          1           0       -0.066145    6.253260   -1.855503
     75          1           0        1.430943    7.001408   -0.949888
     76          1           0        0.002357    7.032733   -0.096730
     77          1           0        3.776449    5.864795    2.088911
     78          1           0        5.308563    5.603484    1.030934
     79          1           0        4.224207    4.112465    1.274293
     80          1           0       -3.832335   -4.773996   -1.645800
     81          1           0       -7.888763   -1.721131   -2.394663
 ---------------------------------------------------------------------

 SCF Done:  E(RB3LYP) =  -1949.03005520     A.U. after   24 cycles

 Excitation energies and oscillator strengths:

 Excited State   1:      Singlet-A      1.6424 eV  754.87 nm  f=0.3263  <S**2>=0.000
     156 ->157         0.71379
     156 <-157        -0.14849
 This state for optimization and/or second-order correction.
 Total Energy, E(TD-HF/TD-DFT) =  -1948.96969628
 Copying the excited state density for this state as the 1-particle RhoCI density.

 The electronic state is 1-A.
 Alpha  occ. eigenvalues --  -19.17744 -19.17059 -19.14519 -19.13037 -19.12250
 Alpha  occ. eigenvalues --  -19.07725 -14.39704 -14.38659 -14.33819 -14.28206
 Alpha  occ. eigenvalues --  -10.33223 -10.31324 -10.30229 -10.25779 -10.25589
 Alpha  occ. eigenvalues --  -10.24728 -10.23795 -10.23567 -10.23328 -10.23200
 Alpha  occ. eigenvalues --  -10.22560 -10.22246 -10.21560 -10.21373 -10.21273
 Alpha  occ. eigenvalues --  -10.21222 -10.20984 -10.20505 -10.20444 -10.20066
 Alpha  occ. eigenvalues --  -10.19955 -10.19936 -10.19932 -10.19932 -10.19902
 Alpha  occ. eigenvalues --  -10.19719 -10.19323 -10.19066 -10.18453 -10.18335
 Alpha  occ. eigenvalues --  -10.18122 -10.17977 -10.17254  -1.10518  -1.10377
 Alpha  occ. eigenvalues --   -1.04664  -1.01691  -1.01171  -0.99983  -0.97958
 Alpha  occ. eigenvalues --   -0.97073  -0.95593  -0.89616  -0.83607  -0.82373
 Alpha  occ. eigenvalues --   -0.82247  -0.81684  -0.79294  -0.79132  -0.77830
 Alpha  occ. eigenvalues --   -0.77088  -0.76004  -0.74845  -0.74227  -0.72521
 Alpha  occ. eigenvalues --   -0.71396  -0.70729  -0.68524  -0.68420  -0.68039
 Alpha  occ. eigenvalues --   -0.67141  -0.65707  -0.64566  -0.63892  -0.61100
 Alpha  occ. eigenvalues --   -0.60352  -0.60152  -0.59008  -0.58659  -0.58316
 Alpha  occ. eigenvalues --   -0.55941  -0.55668  -0.54923  -0.53143  -0.52060
 Alpha  occ. eigenvalues --   -0.51592  -0.50934  -0.50769  -0.50312  -0.49812
 Alpha  occ. eigenvalues --   -0.49306  -0.49060  -0.48427  -0.48063  -0.47704
 Alpha  occ. eigenvalues --   -0.47413  -0.46928  -0.46291  -0.46128  -0.45837
 Alpha  occ. eigenvalues --   -0.45238  -0.44935  -0.44753  -0.44346  -0.44250
 Alpha  occ. eigenvalues --   -0.44100  -0.43850  -0.43145  -0.42828  -0.42560
 Alpha  occ. eigenvalues --   -0.42080  -0.41518  -0.41352  -0.40904  -0.40601
 Alpha  occ. eigenvalues --   -0.40496  -0.40006  -0.39855  -0.39660  -0.39328
 Alpha  occ. eigenvalues --   -0.39037  -0.38982  -0.38714  -0.38140  -0.37823
 Alpha  occ. eigenvalues --   -0.37702  -0.37514  -0.37185  -0.36974  -0.36925
 Alpha  occ. eigenvalues --   -0.36285  -0.36002  -0.35751  -0.35150  -0.34880
 Alpha  occ. eigenvalues --   -0.34100  -0.34055  -0.33612  -0.33400  -0.32720
 Alpha  occ. eigenvalues --   -0.32641  -0.31489  -0.29544  -0.29220  -0.28578
 Alpha  occ. eigenvalues --   -0.28091  -0.27250  -0.27036  -0.26469  -0.26374
 Alpha  occ. eigenvalues --   -0.24865  -0.24088  -0.22530  -0.21879  -0.21497
 Alpha  occ. eigenvalues --   -0.17457
 Alpha virt. eigenvalues --   -0.11038  -0.06215  -0.04360  -0.00665  -0.00144
 Alpha virt. eigenvalues --    0.00143   0.00912   0.02029   0.03168   0.03525
 Alpha virt. eigenvalues --    0.03836   0.04270   0.05122   0.05297   0.05617

 Mulliken charges:
               1
     1  O   -0.199889
     2  O   -0.275576
     3  O   -0.259263
     4  O   -0.166370
     5  O   -0.143517
     6  O   -0.319365
     7  N    0.045043
     8  N   -0.148057
     9  N   -0.105840
    10  N   -0.282924
    11  C   -0.008731
    12  C    0.079802
    13  C   -0.144512
    14  C    0.035294
    15  C   -0.059394
    16  C    0.028503
    17  C   -0.013312
    18  C   -0.102699
    19  C    0.000483
    20  C   -0.049262
    21  C    0.094302
    22  C   -0.005924
    23  C   -0.029914
    24  C    0.085037
    25  C   -0.068139
    26  C    0.062848
    27  C    0.108028
    28  C   -0.008545
    29  C   -0.054299
    30  C    0.058173
    31  C   -0.095329
    32  C    0.078959
    33  C   -0.224102
    34  C    0.132268
    35  C   -0.181393
    36  C   -0.132957
    37  C    0.120506
    38  C    0.090798
    39  C    0.128241
    40  C    0.056569
    41  C    0.149362
    42  C    0.191553
    43  C   -0.093638
    44  H    0.180709
    45  H   -0.057870
    46  H    0.040941
    47  H    0.021659
    48  H    0.015103
    49  H    0.029880
    50  H    0.006689
    51  H   -0.010533
    52  H    0.124677
    53  H    0.035903
    54  H    0.048052
    55  H   -0.000747
    56  H    0.145348
    57  H    0.076920
    58  H    0.027440
    59  H    0.031865
    60  H    0.018110
    61  H    0.053952
    62  H    0.004906
    63  H    0.033886
    64  H   -0.016403
    65  H    0.012852
    66  H    0.039922
    67  H    0.013111
    68  H    0.034026
    69  H    0.117741
    70  H   -0.022565
    71  H    0.019947
    72  H    0.008760
    73  H    0.033083
    74  H    0.041411
    75  H   -0.037555
    76  H    0.021358
    77  H    0.027178
    78  H   -0.008137
    79  H    0.067102
    80  H    0.210380
    81  H    0.238084
 Sum of Mulliken charges =  -0.00000

 Dipole moment (field-independent basis, Debye):
    X=             -2.3978    Y=             -2.3861    Z=             -1.1561  Tot=              3.5749
 Quadrupole moment (field-independent basis, Debye-Ang):
   XX=           -246.0250   YY=           -252.2274   ZZ=           -250.9827
   XY=              6.5462   XZ=             17.6401   YZ=            -15.3604

 Normal termination of Gaussian 16 at Mon Jul  1 10:15:50 2019.
