 Gaussian 16, Revision A.03,
 Gaussian 16:  ES64L-G16RevA.03 25-Dec-2016

 --------------------------
 # td=(NStates=1) B3LYP/SVP
 --------------------------

 --
 TD
 --
 Symbolic Z-matrix:
 Charge =  0 Multiplicity = 1

                         Standard orientation:
 ---------------------------------------------------------------------
 Center     Atomic      Atomic             Coordinates (Angstroms)
 Number     Number       Type             X           Y           Z
 ---------------------------------------------------------------------
      1          8           0        4.562947   -4.782687   -1.641428
      2          8           0       -2.559563   -5.005062   -1.046979
      3          8           0       -6.789316   -1.887451   -1.898108
      4          8           0       -3.647075   -3.363844    0.074124
      5          8           0       -7.630456   -0.979843    0.006937
      6          8           0        2.849236    2.440700    0.285980
      7          7           0        0.252403   -0.462504    0.479065
      8          7           0       -1.694642    1.834863    0.346529
      9          7           0        3.460564   -3.072287   -0.633546
     10          7           0        0.647837    2.812316    0.064380
     11          6           0       -0.504846   -2.367496    1.397864
     12          6           0       -0.914465   -1.051544    0.892306
     13          6           0        0.865141   -2.521383    1.204603
     14          6           0        1.375312   -1.318820    0.582259
     15          6           0       -3.927214    1.379937    0.206156
     16          6           0       -2.567164    0.828451    0.524855
     17          6           0       -2.265633   -0.452353    0.941175
     18          6           0       -3.713618    2.699314   -0.139518
     19          6           0       -1.439114   -3.350661    2.044826
     20          6           0        5.680920   -2.529463   -1.278502
     21          6           0        3.696944   -1.771493   -0.194770
     22          6           0       -2.281079    2.982339    0.026572
     23          6           0        5.096842   -1.377515   -0.475859
     24          6           0       -5.246706    0.660942    0.304165
     25          6           0        2.684990   -0.938686    0.401470
     26          6           0        1.720397   -3.637681    1.611729
     27          6           0        4.593536   -3.683148   -1.191964
     28          6           0       -1.811661   -4.525059    1.204947
     29          6           0       -5.398759   -0.349971   -0.853468
     30          6           0       -4.709868    3.735425   -0.454453
     31          6           0       -1.531535    4.079944   -0.381543
     32          6           0        7.016941   -3.105874   -0.979722
     33          6           0        5.851592   -0.351216   -0.083055
     34          6           0       -0.041368    4.042655   -0.167590
     35          6           0        0.941200    5.199263   -0.357504
     36          6           0        2.089090    4.701333   -0.216586
     37          6           0       -2.799893   -4.202815    0.036526
     38          6           0        5.423134    0.878238    0.657471
     39          6           0       -6.759961   -1.079544   -0.833107
     40          6           0        3.323962    5.369214   -0.264020
     41          6           0        1.936695    3.206872    0.061863
     42          6           0        0.423574    6.563275   -0.772253
     43          6           0        3.928600    5.746694    1.077296
     44          1           0        0.552514    0.449183   -0.045303
     45          1           0       -2.982219   -1.143295    0.983603
     46          1           0       -2.373635   -3.013656    2.324266
     47          1           0       -1.098629   -3.810970    2.970345
     48          1           0        5.649077   -2.075345   -2.177375
     49          1           0       -5.337390    0.153733    1.397841
     50          1           0       -6.040673    1.431351    0.333772
     51          1           0        2.772937    0.193189    0.340826
     52          1           0       -0.683325    1.742146    0.423932
     53          1           0        1.388196   -4.575781    0.911023
     54          1           0        2.857344   -3.481115    1.618779
     55          1           0        1.375581   -3.918576    2.548951
     56          1           0        2.474754   -3.536943   -0.539141
     57          1           0       -0.761663   -4.872187    0.802044
     58          1           0       -2.357751   -5.195752    1.921911
     59          1           0       -4.587317   -1.029032   -0.766109
     60          1           0       -5.276502    0.033187   -1.860386
     61          1           0       -4.604662    4.552779    0.165266
     62          1           0       -5.828180    3.474054   -0.447922
     63          1           0       -4.659856    4.323334   -1.607914
     64          1           0       -1.852504    4.836868   -0.910017
     65          1           0        7.701491   -2.307986   -0.864493
     66          1           0        7.378719   -3.861039   -1.888457
     67          1           0        7.209110   -3.863191   -0.109636
     68          1           0        6.975070   -0.658235   -0.192565
     69          1           0        4.917125    1.759392   -0.023661
     70          1           0        6.282093    1.385974    1.292799
     71          1           0        4.585827    0.660363    1.218123
     72          1           0        3.457281    6.253570   -0.804334
     73          1           0        3.867065    4.651321   -0.657205
     74          1           0       -0.043964    6.530538   -1.858178
     75          1           0        1.159778    7.453864   -0.716824
     76          1           0       -0.623608    6.958175   -0.240457
     77          1           0        3.513450    6.687284    1.583913
     78          1           0        5.050134    6.042974    1.060071
     79          1           0        3.590577    4.917532    1.774092
     80          1           0       -3.389564   -4.672117   -1.470382
     81          1           0       -7.621900   -2.391856   -1.723409
 ---------------------------------------------------------------------

 SCF Done:  E(RB3LYP) =  -1949.09538004     A.U. after   17 cycles

 Excitation energies and oscillator strengths:

 Excited State   1:      Singlet-A      1.6077 eV  771.19 nm  f=0.3121  <S**2>=0.000
     156 ->157         0.71236
     156 <-157        -0.13390
 This state for optimization and/or second-order correction.
 Total Energy, E(TD-HF/TD-DFT) =  -1949.03629818
 Copying the excited state density for this state as the 1-particle RhoCI density.

 The electronic state is 1-A.
 Alpha  occ. eigenvalues --  -19.19967 -19.19238 -19.15646 -19.13257 -19.11898
 Alpha  occ. eigenvalues --  -19.10347 -14.37812 -14.37596 -14.36040 -14.29940
 Alpha  occ. eigenvalues --  -10.33839 -10.32292 -10.29646 -10.26445 -10.25195
 Alpha  occ. eigenvalues --  -10.24564 -10.24062 -10.23922 -10.23282 -10.22538
 Alpha  occ. eigenvalues --  -10.22313 -10.22114 -10.21232 -10.20914 -10.20807
 Alpha  occ. eigenvalues --  -10.20569 -10.20500 -10.20298 -10.20175 -10.20071
 Alpha  occ. eigenvalues --  -10.20055 -10.20040 -10.19864 -10.19848 -10.19652
 Alpha  occ. eigenvalues --  -10.19513 -10.19179 -10.18917 -10.18855 -10.18726
 Alpha  occ. eigenvalues --  -10.18189 -10.17836 -10.16510  -1.12257  -1.10655
 Alpha  occ. eigenvalues --   -1.05148  -1.03324  -1.02528  -1.01155  -0.99778
 Alpha  occ. eigenvalues --   -0.96596  -0.94876  -0.91390  -0.82790  -0.82600
 Alpha  occ. eigenvalues --   -0.82256  -0.81827  -0.81224  -0.79229  -0.77642
 Alpha  occ. eigenvalues --   -0.77166  -0.76198  -0.75552  -0.74176  -0.71713
 Alpha  occ. eigenvalues --   -0.70956  -0.69311  -0.69075  -0.67846  -0.67390
 Alpha  occ. eigenvalues --   -0.67043  -0.65166  -0.64074  -0.62901  -0.61341
 Alpha  occ. eigenvalues --   -0.59907  -0.59459  -0.59000  -0.58301  -0.57163
 Alpha  occ. eigenvalues --   -0.55892  -0.55329  -0.55023  -0.54047  -0.53038
 Alpha  occ. eigenvalues --   -0.52257  -0.51597  -0.51197  -0.50991  -0.50307
 Alpha  occ. eigenvalues --   -0.49712  -0.49552  -0.49238  -0.48624  -0.48477
 Alpha  occ. eigenvalues --   -0.47589  -0.47043  -0.46836  -0.46274  -0.45412
 Alpha  occ. eigenvalues --   -0.45197  -0.44917  -0.44597  -0.44394  -0.44188
 Alpha  occ. eigenvalues --   -0.43790  -0.43616  -0.43228  -0.43042  -0.42652
 Alpha  occ. eigenvalues --   -0.41996  -0.41588  -0.41410  -0.41065  -0.40961
 Alpha  occ. eigenvalues --   -0.40856  -0.40339  -0.40075  -0.39946  -0.39665
 Alpha  occ. eigenvalues --   -0.39616  -0.39455  -0.39277  -0.38899  -0.38396
 Alpha  occ. eigenvalues --   -0.38130  -0.37865  -0.37622  -0.37387  -0.36854
 Alpha  occ. eigenvalues --   -0.36563  -0.35908  -0.35703  -0.35071  -0.34717
 Alpha  occ. eigenvalues --   -0.34620  -0.34464  -0.34109  -0.33832  -0.33018
 Alpha  occ. eigenvalues --   -0.32259  -0.32040  -0.31768  -0.30470  -0.29706
 Alpha  occ. eigenvalues --   -0.28880  -0.28776  -0.26821  -0.26521  -0.25566
 Alpha  occ. eigenvalues --   -0.25320  -0.25070  -0.24893  -0.24273  -0.21567
 Alpha  occ. eigenvalues --   -0.16843
 Alpha virt. eigenvalues --   -0.10433  -0.05950  -0.04033  -0.01572   0.00395
 Alpha virt. eigenvalues --    0.00447   0.01951   0.02477   0.02860   0.04342
 Alpha virt. eigenvalues --    0.04451   0.04948   0.05216   0.05619   0.06033

 Mulliken charges:
               1
     1  O   -0.168734
     2  O   -0.175083
     3  O   -0.171356
     4  O   -0.207774
     5  O   -0.228731
     6  O   -0.210435
     7  N   -0.146558
     8  N   -0.000421
     9  N   -0.166175
    10  N   -0.315597
    11  C   -0.092411
    12  C    0.037395
    13  C   -0.169265
    14  C    0.050553
    15  C   -0.088768
    16  C    0.049656
    17  C    0.036689
    18  C   -0.083956
    19  C    0.145903
    20  C   -0.024394
    21  C    0.070920
    22  C    0.126369
    23  C   -0.007362
    24  C    0.075089
    25  C   -0.134339
    26  C    0.056441
    27  C    0.143829
    28  C   -0.031649
    29  C    0.018279
    30  C    0.017081
    31  C   -0.040373
    32  C   -0.001950
    33  C   -0.168031
    34  C    0.028255
    35  C   -0.001322
    36  C   -0.220841
    37  C    0.136695
    38  C    0.031798
    39  C    0.144899
    40  C    0.217885
    41  C    0.142322
    42  C   -0.019157
    43  C   -0.061485
    44  H    0.187551
    45  H   -0.055792
    46  H   -0.030654
    47  H   -0.006535
    48  H    0.017478
    49  H    0.047157
    50  H    0.007131
    51  H    0.046215
    52  H    0.123335
    53  H    0.037814
    54  H    0.065284
    55  H   -0.002058
    56  H    0.174693
    57  H    0.042103
    58  H    0.045740
    59  H    0.029538
    60  H    0.024806
    61  H    0.009498
    62  H    0.030898
    63  H    0.024638
    64  H   -0.086262
    65  H    0.008294
    66  H    0.041228
    67  H    0.034561
    68  H    0.010150
    69  H    0.083278
    70  H    0.025385
    71  H    0.013866
    72  H   -0.026465
    73  H   -0.042099
    74  H    0.041010
    75  H    0.043115
    76  H    0.037338
    77  H    0.005465
    78  H    0.026764
    79  H    0.027488
    80  H    0.167197
    81  H    0.176956
 Sum of Mulliken charges =  -0.00000

 Dipole moment (field-independent basis, Debye):
    X=             -2.1592    Y=              1.0215    Z=             -0.7464  Tot=              2.5025
 Quadrupole moment (field-independent basis, Debye-Ang):
   XX=           -254.4552   YY=           -237.7873   ZZ=           -255.2927
   XY=             15.3995   XZ=             12.0607   YZ=            -15.0353

 Normal termination of Gaussian 16 at Sat Jun 29 01:30:11 2019.
