 Gaussian 16, Revision A.03,
 Gaussian 16:  ES64L-G16RevA.03 25-Dec-2016

 --------------------------
 # td=(NStates=1) B3LYP/SVP
 --------------------------

 --
 TD
 --
 Symbolic Z-matrix:
 Charge =  0 Multiplicity = 1

                         Standard orientation:
 ---------------------------------------------------------------------
 Center     Atomic      Atomic             Coordinates (Angstroms)
 Number     Number       Type             X           Y           Z
 ---------------------------------------------------------------------
      1          8           0        3.791877   -4.905299   -2.037710
      2          8           0       -3.167291   -4.632566   -0.993851
      3          8           0       -6.728443   -1.600223   -1.874715
      4          8           0       -3.985221   -3.004979    0.228473
      5          8           0       -7.478847   -0.244789   -0.171071
      6          8           0        3.183571    2.256905    0.398976
      7          7           0        0.282146   -0.419984    0.768725
      8          7           0       -1.506415    1.921910    0.508289
      9          7           0        3.093162   -3.190582   -0.670203
     10          7           0        0.839788    2.893638    0.241136
     11          6           0       -0.661172   -2.327532    1.490011
     12          6           0       -0.884259   -0.924696    1.192068
     13          6           0        0.718041   -2.586100    1.342488
     14          6           0        1.279295   -1.437398    0.738183
     15          6           0       -3.678673    1.654464    0.259853
     16          6           0       -2.428767    0.958210    0.660119
     17          6           0       -2.230683   -0.373334    1.058450
     18          6           0       -3.445859    3.000758   -0.155075
     19          6           0       -1.694321   -3.302262    2.030584
     20          6           0        5.268477   -3.036462   -1.420975
     21          6           0        3.509465   -1.924695   -0.225576
     22          6           0       -1.993619    3.104712   -0.000889
     23          6           0        4.884035   -1.825839   -0.575829
     24          6           0       -5.017410    0.977008    0.278284
     25          6           0        2.560624   -1.029027    0.345869
     26          6           0        1.380521   -3.812100    1.734287
     27          6           0        4.072266   -3.829832   -1.430572
     28          6           0       -2.321369   -4.321072    1.182213
     29          6           0       -5.262403   -0.020592   -0.928081
     30          6           0       -4.378979    3.981508   -0.664142
     31          6           0       -1.105752    4.068661   -0.504228
     32          6           0        6.503748   -3.810266   -0.999295
     33          6           0        5.713733   -0.815293   -0.278104
     34          6           0        0.238457    4.002812   -0.242878
     35          6           0        1.249985    5.090974   -0.414454
     36          6           0        2.472751    4.530150   -0.163701
     37          6           0       -3.289711   -3.959822    0.129175
     38          6           0        5.463565    0.318336    0.671906
     39          6           0       -6.570244   -0.610929   -0.963525
     40          6           0        3.859367    5.075754   -0.239462
     41          6           0        2.222827    3.118217    0.307083
     42          6           0        0.988166    6.409997   -0.961762
     43          6           0        4.458086    5.604750    1.130127
     44          1           0        0.297227    0.436520    0.221012
     45          1           0       -3.026549   -1.019826    1.196971
     46          1           0       -2.363429   -2.685038    2.541512
     47          1           0       -1.132995   -3.782509    2.831037
     48          1           0        5.663458   -2.694888   -2.466024
     49          1           0       -5.249444    0.481983    1.061247
     50          1           0       -5.653530    1.788290    0.138703
     51          1           0        2.895448   -0.095834    0.285387
     52          1           0       -0.535107    1.889158    0.665406
     53          1           0        1.477673   -4.756372    1.074206
     54          1           0        2.419376   -3.538579    1.984139
     55          1           0        1.009674   -4.225969    2.451532
     56          1           0        2.149727   -3.573464   -0.614080
     57          1           0       -1.668302   -5.217134    0.673339
     58          1           0       -2.772163   -4.981060    1.858676
     59          1           0       -4.542581   -0.763401   -1.098150
     60          1           0       -5.082738    0.559155   -1.722351
     61          1           0       -4.057942    4.912597   -0.343915
     62          1           0       -5.561755    3.882590   -0.460420
     63          1           0       -4.068453    4.168921   -1.604640
     64          1           0       -1.521228    4.926349   -1.012665
     65          1           0        7.495396   -3.200581   -1.057593
     66          1           0        6.499925   -4.706220   -1.466472
     67          1           0        6.540974   -3.821883    0.244668
     68          1           0        6.753942   -0.954308   -0.505473
     69          1           0        4.767054    1.196894    0.105475
     70          1           0        6.323298    0.696652    1.280267
     71          1           0        4.872225    0.165857    1.441958
     72          1           0        3.715765    6.029758   -1.002742
     73          1           0        4.258178    4.294525   -0.901717
     74          1           0        0.351291    6.472121   -1.859659
     75          1           0        1.867748    6.972922   -1.192462
     76          1           0        0.300337    6.920451   -0.164504
     77          1           0        3.760839    6.270624    1.545204
     78          1           0        5.426209    6.273059    0.939421
     79          1           0        4.558221    4.699146    1.670428
     80          1           0       -3.777719   -4.177595   -1.725626
     81          1           0       -7.557109   -1.924535   -1.641459
 ---------------------------------------------------------------------

 SCF Done:  E(RB3LYP) =  -1949.06353678     A.U. after   17 cycles

 Excitation energies and oscillator strengths:

 Excited State   1:      Singlet-A      1.6184 eV  766.10 nm  f=0.3250  <S**2>=0.000
     156 ->157         0.71336
     156 <-157        -0.14120
 This state for optimization and/or second-order correction.
 Total Energy, E(TD-HF/TD-DFT) =  -1949.00406274
 Copying the excited state density for this state as the 1-particle RhoCI density.

 The electronic state is 1-A.
 Alpha  occ. eigenvalues --  -19.20185 -19.18898 -19.13482 -19.12226 -19.10300
 Alpha  occ. eigenvalues --  -19.10157 -14.37376 -14.36951 -14.35785 -14.28677
 Alpha  occ. eigenvalues --  -10.32762 -10.32058 -10.28959 -10.26598 -10.24459
 Alpha  occ. eigenvalues --  -10.24442 -10.23806 -10.23420 -10.23289 -10.22465
 Alpha  occ. eigenvalues --  -10.21773 -10.21554 -10.21310 -10.20845 -10.20733
 Alpha  occ. eigenvalues --  -10.20650 -10.20357 -10.20001 -10.19966 -10.19867
 Alpha  occ. eigenvalues --  -10.19817 -10.19787 -10.19503 -10.19337 -10.19123
 Alpha  occ. eigenvalues --  -10.18883 -10.18627 -10.18531 -10.18400 -10.18073
 Alpha  occ. eigenvalues --  -10.18030 -10.17986 -10.16876  -1.12092  -1.10503
 Alpha  occ. eigenvalues --   -1.02437  -1.01528  -0.99158  -0.99068  -0.97936
 Alpha  occ. eigenvalues --   -0.97674  -0.94310  -0.90931  -0.83437  -0.82582
 Alpha  occ. eigenvalues --   -0.82549  -0.81777  -0.80345  -0.79472  -0.78927
 Alpha  occ. eigenvalues --   -0.78299  -0.77056  -0.75379  -0.74320  -0.73492
 Alpha  occ. eigenvalues --   -0.73269  -0.70826  -0.70078  -0.69706  -0.68424
 Alpha  occ. eigenvalues --   -0.68001  -0.66217  -0.65287  -0.62697  -0.62025
 Alpha  occ. eigenvalues --   -0.61335  -0.60635  -0.59742  -0.58395  -0.57785
 Alpha  occ. eigenvalues --   -0.56619  -0.56005  -0.55343  -0.54698  -0.53986
 Alpha  occ. eigenvalues --   -0.52746  -0.52026  -0.51679  -0.50876  -0.50364
 Alpha  occ. eigenvalues --   -0.50198  -0.49556  -0.49391  -0.48786  -0.48311
 Alpha  occ. eigenvalues --   -0.47600  -0.47180  -0.46407  -0.46121  -0.45600
 Alpha  occ. eigenvalues --   -0.45289  -0.44863  -0.44771  -0.44296  -0.43902
 Alpha  occ. eigenvalues --   -0.43814  -0.43518  -0.43258  -0.43069  -0.42885
 Alpha  occ. eigenvalues --   -0.42444  -0.42325  -0.42046  -0.41856  -0.41605
 Alpha  occ. eigenvalues --   -0.41386  -0.41172  -0.40654  -0.40580  -0.40223
 Alpha  occ. eigenvalues --   -0.39957  -0.39626  -0.39313  -0.38729  -0.38504
 Alpha  occ. eigenvalues --   -0.38170  -0.37997  -0.37735  -0.37409  -0.36978
 Alpha  occ. eigenvalues --   -0.36643  -0.35888  -0.35259  -0.35049  -0.34544
 Alpha  occ. eigenvalues --   -0.34062  -0.33838  -0.33236  -0.33194  -0.32498
 Alpha  occ. eigenvalues --   -0.32244  -0.32086  -0.31866  -0.29572  -0.29191
 Alpha  occ. eigenvalues --   -0.27762  -0.27119  -0.26189  -0.25633  -0.25530
 Alpha  occ. eigenvalues --   -0.25261  -0.24714  -0.23632  -0.22817  -0.21395
 Alpha  occ. eigenvalues --   -0.17226
 Alpha virt. eigenvalues --   -0.10859  -0.06083  -0.04540  -0.01667  -0.01158
 Alpha virt. eigenvalues --   -0.00390   0.01888   0.02339   0.03113   0.04076
 Alpha virt. eigenvalues --    0.04230   0.05287   0.05449   0.06152   0.06723

 Mulliken charges:
               1
     1  O   -0.267708
     2  O   -0.191392
     3  O   -0.143974
     4  O   -0.209259
     5  O   -0.283780
     6  O   -0.302529
     7  N   -0.069221
     8  N   -0.026498
     9  N   -0.125930
    10  N   -0.325464
    11  C   -0.164520
    12  C    0.034806
    13  C   -0.131881
    14  C    0.126476
    15  C   -0.202483
    16  C    0.096360
    17  C   -0.007129
    18  C   -0.146450
    19  C    0.159717
    20  C   -0.039337
    21  C    0.059884
    22  C    0.075279
    23  C    0.004857
    24  C    0.277035
    25  C   -0.000586
    26  C    0.202539
    27  C    0.151194
    28  C    0.047642
    29  C    0.086522
    30  C    0.228112
    31  C   -0.107703
    32  C    0.010218
    33  C   -0.121369
    34  C    0.105335
    35  C   -0.065862
    36  C   -0.213548
    37  C    0.099740
    38  C    0.029495
    39  C    0.141306
    40  C    0.020981
    41  C    0.212495
    42  C    0.092705
    43  C    0.052889
    44  H    0.135408
    45  H   -0.027997
    46  H   -0.005780
    47  H   -0.002516
    48  H    0.068761
    49  H   -0.048287
    50  H   -0.037081
    51  H   -0.099627
    52  H    0.097803
    53  H    0.025571
    54  H    0.022436
    55  H   -0.109904
    56  H    0.140087
    57  H    0.035836
    58  H    0.014621
    59  H    0.003215
    60  H   -0.014906
    61  H   -0.029821
    62  H    0.070204
    63  H   -0.029751
    64  H   -0.043334
    65  H    0.032468
    66  H    0.023412
    67  H    0.019084
    68  H   -0.018649
    69  H    0.123865
    70  H    0.005866
    71  H   -0.026685
    72  H   -0.011435
    73  H    0.028020
    74  H    0.016020
    75  H    0.005777
    76  H    0.024270
    77  H    0.002687
    78  H    0.032575
    79  H    0.030976
    80  H    0.228845
    81  H    0.149003
 Sum of Mulliken charges =  -0.00000

 Dipole moment (field-independent basis, Debye):
    X=             -2.1094    Y=              0.2195    Z=             -0.5657  Tot=              2.1949
 Quadrupole moment (field-independent basis, Debye-Ang):
   XX=           -255.2079   YY=           -238.7383   ZZ=           -252.6900
   XY=             11.4231   XZ=             14.2133   YZ=            -18.7609

 Normal termination of Gaussian 16 at Mon Jul  1 23:42:10 2019.
