 Gaussian 16, Revision A.03,
 Gaussian 16:  ES64L-G16RevA.03 25-Dec-2016

 --------------------------
 # td=(NStates=1) B3LYP/SVP
 --------------------------

 --
 TD
 --
 Symbolic Z-matrix:
 Charge =  0 Multiplicity = 1

                         Standard orientation:
 ---------------------------------------------------------------------
 Center     Atomic      Atomic             Coordinates (Angstroms)
 Number     Number       Type             X           Y           Z
 ---------------------------------------------------------------------
      1          8           0        4.248902   -4.780578   -1.850210
      2          8           0       -3.047280   -5.022769   -0.963471
      3          8           0       -6.773044   -1.729009   -1.782309
      4          8           0       -3.597353   -3.087503   -0.020700
      5          8           0       -7.642795   -0.639694   -0.052317
      6          8           0        3.025264    2.501948    0.337030
      7          7           0        0.252003   -0.480617    0.693686
      8          7           0       -1.582748    1.896883    0.420541
      9          7           0        3.309001   -3.128792   -0.681681
     10          7           0        0.722652    2.905332    0.046882
     11          6           0       -0.693019   -2.349404    1.414593
     12          6           0       -0.906850   -1.048946    0.957192
     13          6           0        0.765318   -2.578618    1.271807
     14          6           0        1.376708   -1.409949    0.762168
     15          6           0       -3.881004    1.450840    0.263171
     16          6           0       -2.473525    0.774374    0.484159
     17          6           0       -2.250067   -0.530327    0.873118
     18          6           0       -3.612643    2.735411   -0.152449
     19          6           0       -1.617878   -3.360330    1.990687
     20          6           0        5.516074   -2.789203   -1.348543
     21          6           0        3.532125   -1.825444   -0.274851
     22          6           0       -2.177489    3.006505   -0.119414
     23          6           0        5.087249   -1.622096   -0.497591
     24          6           0       -5.073223    0.806063    0.436468
     25          6           0        2.651650   -1.092633    0.427063
     26          6           0        1.569884   -3.729945    1.844261
     27          6           0        4.352220   -3.689652   -1.310947
     28          6           0       -2.010947   -4.490473    1.081273
     29          6           0       -5.342949   -0.160190   -0.813892
     30          6           0       -4.596672    3.825756   -0.567867
     31          6           0       -1.341452    4.097308   -0.472891
     32          6           0        6.910561   -3.322078   -1.020101
     33          6           0        5.885301   -0.569122   -0.050561
     34          6           0        0.043390    3.997307   -0.246207
     35          6           0        1.070202    5.143182   -0.534703
     36          6           0        2.291862    4.683210   -0.213987
     37          6           0       -2.961860   -3.993824   -0.049106
     38          6           0        5.522857    0.540848    0.771917
     39          6           0       -6.653388   -0.822102   -0.769217
     40          6           0        3.550733    5.311352   -0.251115
     41          6           0        2.083919    3.197954    0.140863
     42          6           0        0.632743    6.554498   -0.908892
     43          6           0        4.023935    5.602185    1.183056
     44          1           0        0.241342    0.419343   -0.020442
     45          1           0       -3.160632   -1.202850    0.933564
     46          1           0       -2.532350   -2.924285    2.225175
     47          1           0       -1.187502   -3.705665    2.827909
     48          1           0        5.324547   -2.632616   -2.562835
     49          1           0       -5.028092    0.239852    1.472082
     50          1           0       -5.757428    1.671038    0.545194
     51          1           0        2.881435    0.041687    0.463199
     52          1           0       -0.605539    1.869805    0.483647
     53          1           0        1.624214   -4.743457    1.189765
     54          1           0        2.553240   -3.246500    1.833389
     55          1           0        1.189633   -3.993375    2.790453
     56          1           0        2.303468   -3.706828   -0.718810
     57          1           0       -1.227067   -5.179322    0.771495
     58          1           0       -2.682785   -5.143253    1.526300
     59          1           0       -4.483047   -0.795751   -0.917562
     60          1           0       -5.325172    0.376814   -1.729047
     61          1           0       -4.564851    4.680056    0.224076
     62          1           0       -5.542385    3.569699   -0.451644
     63          1           0       -4.332086    4.292255   -1.541243
     64          1           0       -1.765730    5.116525   -0.704097
     65          1           0        7.742207   -2.325196   -1.118776
     66          1           0        7.143128   -4.163425   -1.761496
     67          1           0        6.777476   -3.439658    0.031520
     68          1           0        7.048293   -0.751902   -0.278781
     69          1           0        5.082977    1.191121    0.095175
     70          1           0        6.470353    1.093399    1.223807
     71          1           0        4.951482    0.239724    1.671309
     72          1           0        3.565643    6.450383   -0.745877
     73          1           0        4.275939    4.605964   -0.743805
     74          1           0       -0.155745    6.491618   -1.561767
     75          1           0        1.431820    7.030670   -1.090385
     76          1           0        0.231217    7.388747   -0.029128
     77          1           0        3.519323    6.344847    1.708856
     78          1           0        5.114714    6.001203    1.264939
     79          1           0        3.869710    4.763900    1.741313
     80          1           0       -3.503665   -4.220824   -1.733419
     81          1           0       -7.746600   -2.047294   -1.810988
 ---------------------------------------------------------------------

 SCF Done:  E(RB3LYP) =  -1949.01099049     A.U. after   16 cycles

 Excitation energies and oscillator strengths:

 Excited State   1:      Singlet-A      1.8339 eV  676.08 nm  f=0.3175  <S**2>=0.000
     156 ->157         0.70767
 This state for optimization and/or second-order correction.
 Total Energy, E(TD-HF/TD-DFT) =  -1948.94359709
 Copying the excited state density for this state as the 1-particle RhoCI density.

 The electronic state is 1-A.
 Alpha  occ. eigenvalues --  -19.19193 -19.18195 -19.16361 -19.12931 -19.11668
 Alpha  occ. eigenvalues --  -19.09023 -14.37416 -14.37358 -14.36200 -14.29656
 Alpha  occ. eigenvalues --  -10.32815 -10.32711 -10.27722 -10.27440 -10.25370
 Alpha  occ. eigenvalues --  -10.24456 -10.24260 -10.23759 -10.22612 -10.22437
 Alpha  occ. eigenvalues --  -10.21960 -10.21803 -10.21611 -10.21363 -10.21332
 Alpha  occ. eigenvalues --  -10.21096 -10.21025 -10.20985 -10.20885 -10.20234
 Alpha  occ. eigenvalues --  -10.20128 -10.19962 -10.19823 -10.19736 -10.19703
 Alpha  occ. eigenvalues --  -10.19191 -10.18871 -10.18839 -10.18828 -10.18242
 Alpha  occ. eigenvalues --  -10.18060 -10.18015 -10.17018  -1.14984  -1.08755
 Alpha  occ. eigenvalues --   -1.04242  -1.02969  -1.02103  -0.98893  -0.97799
 Alpha  occ. eigenvalues --   -0.96692  -0.94465  -0.92508  -0.84515  -0.82252
 Alpha  occ. eigenvalues --   -0.81691  -0.81229  -0.80951  -0.79518  -0.78259
 Alpha  occ. eigenvalues --   -0.77062  -0.76543  -0.75802  -0.74880  -0.73415
 Alpha  occ. eigenvalues --   -0.71667  -0.70176  -0.69222  -0.68950  -0.67601
 Alpha  occ. eigenvalues --   -0.67125  -0.65495  -0.64386  -0.62545  -0.61801
 Alpha  occ. eigenvalues --   -0.59992  -0.58942  -0.57201  -0.56618  -0.56109
 Alpha  occ. eigenvalues --   -0.55449  -0.55257  -0.54230  -0.53312  -0.52802
 Alpha  occ. eigenvalues --   -0.52595  -0.52156  -0.51778  -0.51640  -0.51368
 Alpha  occ. eigenvalues --   -0.50321  -0.49873  -0.49394  -0.48040  -0.47673
 Alpha  occ. eigenvalues --   -0.47618  -0.46910  -0.46734  -0.46223  -0.45712
 Alpha  occ. eigenvalues --   -0.45413  -0.44832  -0.44484  -0.44235  -0.43969
 Alpha  occ. eigenvalues --   -0.43784  -0.43715  -0.43464  -0.42948  -0.42745
 Alpha  occ. eigenvalues --   -0.42493  -0.42132  -0.41918  -0.41685  -0.41232
 Alpha  occ. eigenvalues --   -0.40888  -0.40748  -0.40223  -0.39989  -0.39871
 Alpha  occ. eigenvalues --   -0.39752  -0.39523  -0.39332  -0.39186  -0.38863
 Alpha  occ. eigenvalues --   -0.38500  -0.38382  -0.37815  -0.37651  -0.37435
 Alpha  occ. eigenvalues --   -0.37295  -0.36750  -0.35742  -0.35289  -0.34785
 Alpha  occ. eigenvalues --   -0.34058  -0.33683  -0.33536  -0.33438  -0.32896
 Alpha  occ. eigenvalues --   -0.32835  -0.32013  -0.31751  -0.30778  -0.29941
 Alpha  occ. eigenvalues --   -0.28423  -0.28058  -0.26346  -0.25768  -0.25626
 Alpha  occ. eigenvalues --   -0.24385  -0.24195  -0.24068  -0.23705  -0.22092
 Alpha  occ. eigenvalues --   -0.17906
 Alpha virt. eigenvalues --   -0.10361  -0.05370  -0.03840  -0.01860  -0.00933
 Alpha virt. eigenvalues --   -0.00289   0.01016   0.01716   0.02377   0.02737
 Alpha virt. eigenvalues --    0.03408   0.04281   0.04409   0.05213   0.05331

 Mulliken charges:
               1
     1  O   -0.236069
     2  O   -0.293769
     3  O   -0.235614
     4  O   -0.111006
     5  O   -0.246394
     6  O   -0.168626
     7  N   -0.128915
     8  N   -0.079133
     9  N   -0.137157
    10  N   -0.292308
    11  C   -0.157962
    12  C    0.056312
    13  C   -0.192670
    14  C    0.129968
    15  C   -0.089087
    16  C    0.074462
    17  C   -0.097571
    18  C   -0.146498
    19  C    0.264311
    20  C   -0.064457
    21  C    0.102029
    22  C    0.113726
    23  C   -0.055773
    24  C    0.052235
    25  C   -0.189443
    26  C    0.065034
    27  C    0.050260
    28  C    0.035057
    29  C    0.049414
    30  C    0.149750
    31  C   -0.125298
    32  C    0.014746
    33  C   -0.189599
    34  C    0.069558
    35  C   -0.119332
    36  C   -0.141296
    37  C    0.101424
    38  C    0.099529
    39  C    0.164158
    40  C    0.013961
    41  C    0.158577
    42  C    0.175789
    43  C    0.040649
    44  H    0.183782
    45  H    0.048980
    46  H   -0.037349
    47  H   -0.042677
    48  H    0.069455
    49  H    0.051588
    50  H    0.020054
    51  H    0.052862
    52  H    0.091324
    53  H    0.031982
    54  H    0.035114
    55  H    0.009611
    56  H    0.197951
    57  H    0.020149
    58  H    0.005734
    59  H    0.031270
    60  H    0.027246
    61  H    0.024017
    62  H   -0.039926
    63  H    0.037059
    64  H   -0.000221
    65  H    0.045582
    66  H    0.061543
    67  H    0.024348
    68  H    0.019909
    69  H    0.046578
    70  H    0.013827
    71  H    0.048489
    72  H    0.025188
    73  H    0.025484
    74  H    0.007535
    75  H   -0.067108
    76  H    0.023173
    77  H   -0.016658
    78  H    0.013389
    79  H   -0.007536
    80  H    0.227629
    81  H    0.207652
 Sum of Mulliken charges =  -0.00000

 Dipole moment (field-independent basis, Debye):
    X=             -2.9026    Y=              2.5273    Z=             -0.3961  Tot=              3.8690
 Quadrupole moment (field-independent basis, Debye-Ang):
   XX=           -253.8737   YY=           -253.0036   ZZ=           -253.6630
   XY=             11.9734   XZ=             15.6258   YZ=            -13.5922

 Normal termination of Gaussian 16 at Mon Jul  1 01:10:41 2019.
