 Gaussian 16, Revision A.03,
 Gaussian 16:  ES64L-G16RevA.03 25-Dec-2016

 --------------------------
 # td=(NStates=1) B3LYP/SVP
 --------------------------

 --
 TD
 --
 Symbolic Z-matrix:
 Charge =  0 Multiplicity = 1

                         Standard orientation:
 ---------------------------------------------------------------------
 Center     Atomic      Atomic             Coordinates (Angstroms)
 Number     Number       Type             X           Y           Z
 ---------------------------------------------------------------------
      1          8           0        4.422798   -4.795576   -1.631735
      2          8           0       -2.849943   -5.045388   -0.951119
      3          8           0       -7.186512   -1.742340   -1.869811
      4          8           0       -3.724046   -3.267748    0.150102
      5          8           0       -7.639027   -0.638508    0.017058
      6          8           0        3.020878    2.509331    0.405854
      7          7           0        0.364942   -0.485811    0.554353
      8          7           0       -1.622462    1.829999    0.300410
      9          7           0        3.441184   -3.085972   -0.605443
     10          7           0        0.704449    2.866536    0.137771
     11          6           0       -0.481396   -2.447326    1.345882
     12          6           0       -0.893273   -1.021483    0.790026
     13          6           0        0.930356   -2.557757    1.295953
     14          6           0        1.400306   -1.286891    0.692592
     15          6           0       -3.851168    1.373716    0.208551
     16          6           0       -2.459668    0.809083    0.486514
     17          6           0       -2.157680   -0.430246    0.880079
     18          6           0       -3.659040    2.721412   -0.040059
     19          6           0       -1.487661   -3.338376    2.058438
     20          6           0        5.576131   -2.645277   -1.416988
     21          6           0        3.705998   -1.703238   -0.256598
     22          6           0       -2.229645    2.961616    0.022797
     23          6           0        5.153737   -1.470899   -0.623482
     24          6           0       -5.124763    0.602014    0.315338
     25          6           0        2.757859   -0.927085    0.325908
     26          6           0        1.715091   -3.747394    1.812198
     27          6           0        4.505895   -3.657553   -1.260034
     28          6           0       -1.890841   -4.559764    1.167161
     29          6           0       -5.399573   -0.356805   -0.881736
     30          6           0       -4.659385    3.699363   -0.541273
     31          6           0       -1.412644    4.092549   -0.179077
     32          6           0        7.037260   -3.326370   -1.103124
     33          6           0        5.890783   -0.396204   -0.156918
     34          6           0        0.012266    3.972401   -0.231903
     35          6           0        0.905908    5.144796   -0.460671
     36          6           0        2.127884    4.657189   -0.177417
     37          6           0       -2.909432   -4.187005    0.116714
     38          6           0        5.352805    0.735866    0.721021
     39          6           0       -6.824475   -0.874284   -0.919080
     40          6           0        3.443983    5.317304   -0.280488
     41          6           0        2.016395    3.242033    0.069683
     42          6           0        0.299461    6.541819   -0.694890
     43          6           0        4.094027    5.866785    0.954719
     44          1           0        0.700764    0.334149    0.226068
     45          1           0       -2.801494   -1.233882    1.109778
     46          1           0       -2.511507   -2.751161    2.183276
     47          1           0       -1.005806   -3.543141    2.968688
     48          1           0        5.550284   -2.363166   -2.572941
     49          1           0       -5.233119    0.125109    1.268521
     50          1           0       -6.094100    1.340427    0.339134
     51          1           0        3.189705    0.138270    0.521374
     52          1           0       -0.575675    1.831521    0.555728
     53          1           0        1.769606   -4.466283    0.866471
     54          1           0        2.765570   -3.659307    2.370904
     55          1           0        0.977059   -4.290481    2.444237
     56          1           0        2.555318   -3.380905   -0.691418
     57          1           0       -1.092854   -4.944956    0.534999
     58          1           0       -2.332457   -5.318106    1.812047
     59          1           0       -4.831850   -1.113030   -0.861221
     60          1           0       -5.422321   -0.015230   -1.993691
     61          1           0       -4.506687    4.911326   -0.237845
     62          1           0       -5.694618    3.335729   -0.220376
     63          1           0       -4.673918    3.814734   -1.686052
     64          1           0       -1.861312    4.998760   -0.609090
     65          1           0        7.935485   -2.710837   -0.986904
     66          1           0        7.181198   -4.099352   -1.978141
     67          1           0        7.055940   -3.803860   -0.027416
     68          1           0        6.800155   -0.347337   -0.415010
     69          1           0        4.556963    1.332810    0.192123
     70          1           0        6.361293    1.445150    0.702652
     71          1           0        4.987463    0.624618    1.837056
     72          1           0        3.317060    6.421187   -0.924035
     73          1           0        4.178488    4.605921   -0.776727
     74          1           0       -0.429906    6.470020   -1.620452
     75          1           0        1.146658    7.348609   -0.888841
     76          1           0       -0.377924    6.844318    0.195574
     77          1           0        3.582675    6.560206    1.676933
     78          1           0        4.927521    6.493582    0.696125
     79          1           0        4.333317    4.865138    1.525186
     80          1           0       -3.702357   -4.810354   -1.505861
     81          1           0       -8.207607   -1.845556   -1.942295
 ---------------------------------------------------------------------

 SCF Done:  E(RB3LYP) =  -1949.09180896     A.U. after   19 cycles

 Excitation energies and oscillator strengths:

 Excited State   1:      Singlet-A      1.8260 eV  679.01 nm  f=0.3297  <S**2>=0.000
     156 ->157         0.70948
     156 <-157        -0.12259
 This state for optimization and/or second-order correction.
 Total Energy, E(TD-HF/TD-DFT) =  -1949.02470585
 Copying the excited state density for this state as the 1-particle RhoCI density.

 The electronic state is 1-A.
 Alpha  occ. eigenvalues --  -19.20289 -19.19032 -19.15050 -19.11351 -19.10351
 Alpha  occ. eigenvalues --  -19.09397 -14.38637 -14.36085 -14.35427 -14.29043
 Alpha  occ. eigenvalues --  -10.34146 -10.32116 -10.28640 -10.25765 -10.24703
 Alpha  occ. eigenvalues --  -10.24402 -10.24300 -10.23648 -10.22949 -10.22613
 Alpha  occ. eigenvalues --  -10.22464 -10.22291 -10.22127 -10.21982 -10.21713
 Alpha  occ. eigenvalues --  -10.21702 -10.21692 -10.21436 -10.21103 -10.21078
 Alpha  occ. eigenvalues --  -10.21008 -10.20888 -10.20731 -10.20642 -10.20319
 Alpha  occ. eigenvalues --  -10.19745 -10.19719 -10.19311 -10.19291 -10.19051
 Alpha  occ. eigenvalues --  -10.18918 -10.17962 -10.17623  -1.10171  -1.08727
 Alpha  occ. eigenvalues --   -1.04234  -1.01279  -1.00577  -0.99793  -0.98415
 Alpha  occ. eigenvalues --   -0.97446  -0.94451  -0.91553  -0.83062  -0.82188
 Alpha  occ. eigenvalues --   -0.81837  -0.81595  -0.79446  -0.78946  -0.78260
 Alpha  occ. eigenvalues --   -0.77774  -0.76562  -0.74716  -0.74051  -0.72067
 Alpha  occ. eigenvalues --   -0.70871  -0.69480  -0.69057  -0.68794  -0.67918
 Alpha  occ. eigenvalues --   -0.67549  -0.65571  -0.64499  -0.61876  -0.61222
 Alpha  occ. eigenvalues --   -0.60572  -0.59993  -0.59366  -0.58370  -0.57306
 Alpha  occ. eigenvalues --   -0.55953  -0.55885  -0.55422  -0.55160  -0.53375
 Alpha  occ. eigenvalues --   -0.52446  -0.51561  -0.51356  -0.50822  -0.50223
 Alpha  occ. eigenvalues --   -0.49905  -0.48982  -0.48031  -0.47847  -0.47370
 Alpha  occ. eigenvalues --   -0.46958  -0.46569  -0.46067  -0.45744  -0.45234
 Alpha  occ. eigenvalues --   -0.44674  -0.44425  -0.44120  -0.43856  -0.43507
 Alpha  occ. eigenvalues --   -0.43161  -0.42860  -0.42714  -0.42476  -0.42363
 Alpha  occ. eigenvalues --   -0.42034  -0.41477  -0.41319  -0.40650  -0.40442
 Alpha  occ. eigenvalues --   -0.40310  -0.40002  -0.39858  -0.39787  -0.39584
 Alpha  occ. eigenvalues --   -0.39186  -0.39144  -0.38983  -0.38455  -0.37919
 Alpha  occ. eigenvalues --   -0.37764  -0.37376  -0.37134  -0.36963  -0.36571
 Alpha  occ. eigenvalues --   -0.35888  -0.35620  -0.35461  -0.35349  -0.34339
 Alpha  occ. eigenvalues --   -0.34166  -0.34021  -0.33662  -0.32820  -0.32518
 Alpha  occ. eigenvalues --   -0.32300  -0.31018  -0.30534  -0.30277  -0.29686
 Alpha  occ. eigenvalues --   -0.27673  -0.26647  -0.26380  -0.25694  -0.25575
 Alpha  occ. eigenvalues --   -0.25401  -0.24776  -0.24080  -0.23306  -0.22147
 Alpha  occ. eigenvalues --   -0.17750
 Alpha virt. eigenvalues --   -0.10451  -0.05977  -0.04117  -0.02318  -0.00386
 Alpha virt. eigenvalues --   -0.00246   0.01248   0.02102   0.02840   0.03079
 Alpha virt. eigenvalues --    0.03652   0.03889   0.04283   0.04720   0.06188

 Mulliken charges:
               1
     1  O   -0.194042
     2  O   -0.225812
     3  O   -0.211111
     4  O   -0.237642
     5  O   -0.290368
     6  O   -0.301505
     7  N    0.046343
     8  N   -0.025197
     9  N   -0.087903
    10  N   -0.297433
    11  C   -0.150842
    12  C    0.015077
    13  C   -0.154710
    14  C   -0.007693
    15  C   -0.056530
    16  C    0.120495
    17  C   -0.032632
    18  C   -0.079181
    19  C    0.060779
    20  C   -0.067672
    21  C    0.039522
    22  C    0.077896
    23  C    0.009601
    24  C    0.053437
    25  C   -0.117405
    26  C    0.050775
    27  C    0.097818
    28  C    0.053996
    29  C    0.117999
    30  C   -0.018725
    31  C   -0.120528
    32  C   -0.013004
    33  C   -0.025753
    34  C    0.055139
    35  C   -0.074404
    36  C   -0.112792
    37  C    0.129427
    38  C   -0.043612
    39  C    0.112075
    40  C   -0.008766
    41  C    0.173708
    42  C    0.025427
    43  C   -0.017132
    44  H    0.094553
    45  H   -0.017383
    46  H    0.046924
    47  H    0.016203
    48  H    0.073464
    49  H    0.025752
    50  H    0.040253
    51  H    0.046070
    52  H    0.165899
    53  H    0.035532
    54  H    0.072965
    55  H   -0.000172
    56  H    0.093177
    57  H    0.038561
    58  H    0.052015
    59  H   -0.036769
    60  H    0.036986
    61  H    0.039715
    62  H    0.031859
    63  H    0.041739
    64  H   -0.024030
    65  H    0.024823
    66  H    0.057210
    67  H    0.032022
    68  H   -0.098775
    69  H    0.106932
    70  H    0.011020
    71  H    0.064229
    72  H   -0.000829
    73  H    0.034457
    74  H    0.040106
    75  H    0.042621
    76  H    0.053300
    77  H    0.008219
    78  H    0.005496
    79  H    0.035215
    80  H    0.219998
    81  H    0.223526
 Sum of Mulliken charges =  -0.00000

 Dipole moment (field-independent basis, Debye):
    X=             -3.0571    Y=             -0.6726    Z=             -1.3479  Tot=              3.4081
 Quadrupole moment (field-independent basis, Debye-Ang):
   XX=           -249.2651   YY=           -247.4272   ZZ=           -250.6745
   XY=             14.1489   XZ=             17.8616   YZ=            -12.8278

 Normal termination of Gaussian 16 at Tue Jul  2 07:17:04 2019.
