 Gaussian 16, Revision A.03,
 Gaussian 16:  ES64L-G16RevA.03 25-Dec-2016

 --------------------------
 # td=(NStates=1) B3LYP/SVP
 --------------------------

 --
 TD
 --
 Symbolic Z-matrix:
 Charge =  0 Multiplicity = 1

                         Standard orientation:
 ---------------------------------------------------------------------
 Center     Atomic      Atomic             Coordinates (Angstroms)
 Number     Number       Type             X           Y           Z
 ---------------------------------------------------------------------
      1          8           0        4.185957   -4.869926   -1.931289
      2          8           0       -3.194952   -4.874518   -1.072102
      3          8           0       -6.918254   -1.530934   -1.789478
      4          8           0       -3.844067   -3.155154    0.135938
      5          8           0       -7.590657   -0.545958    0.072330
      6          8           0        3.023879    2.469272    0.409571
      7          7           0        0.318454   -0.536377    0.661605
      8          7           0       -1.465994    1.885760    0.341842
      9          7           0        3.332927   -3.078244   -0.692303
     10          7           0        0.744998    2.969261    0.060453
     11          6           0       -0.571515   -2.454531    1.414511
     12          6           0       -0.957453   -1.022529    0.914337
     13          6           0        0.709985   -2.707724    1.200621
     14          6           0        1.308853   -1.346312    0.706681
     15          6           0       -3.757767    1.516488    0.193766
     16          6           0       -2.458367    0.881289    0.553464
     17          6           0       -2.161189   -0.464066    0.898230
     18          6           0       -3.523042    2.836729   -0.061259
     19          6           0       -1.550412   -3.429269    1.978089
     20          6           0        5.513023   -2.839704   -1.360486
     21          6           0        3.558703   -1.827151   -0.243854
     22          6           0       -2.076069    3.036806    0.019722
     23          6           0        4.981207   -1.604054   -0.612721
     24          6           0       -5.052523    0.845836    0.380037
     25          6           0        2.692098   -1.039686    0.375895
     26          6           0        1.546217   -3.856014    1.632590
     27          6           0        4.287910   -3.766683   -1.389893
     28          6           0       -2.096138   -4.520119    0.942733
     29          6           0       -5.438994    0.044615   -0.846087
     30          6           0       -4.522660    3.918815   -0.394789
     31          6           0       -1.273180    4.193995   -0.311786
     32          6           0        6.683411   -3.643397   -0.654026
     33          6           0        5.779721   -0.533813   -0.139225
     34          6           0        0.170619    4.129784   -0.237842
     35          6           0        1.121465    5.229555   -0.518495
     36          6           0        2.396489    4.677229   -0.252263
     37          6           0       -3.071576   -4.099903   -0.068860
     38          6           0        5.429259    0.567902    0.716716
     39          6           0       -6.764602   -0.624152   -0.803392
     40          6           0        3.729123    5.256360   -0.322879
     41          6           0        2.141075    3.291374    0.146085
     42          6           0        0.590550    6.537376   -0.898822
     43          6           0        4.446750    5.422085    1.091903
     44          1           0        0.514078    0.463349    0.227829
     45          1           0       -3.033504   -1.235700    0.957507
     46          1           0       -2.486732   -2.844124    2.574245
     47          1           0       -1.108474   -3.785721    2.918621
     48          1           0        5.584783   -2.615937   -2.321324
     49          1           0       -5.381853    0.426184    1.412244
     50          1           0       -5.801146    1.750193    0.495277
     51          1           0        2.781882   -0.031323    0.635117
     52          1           0       -0.515624    1.859557    0.480491
     53          1           0        1.248465   -4.793432    0.881298
     54          1           0        2.676125   -3.888888    1.695013
     55          1           0        1.056698   -4.351266    2.615714
     56          1           0        2.438921   -3.655636   -0.600756
     57          1           0       -1.224013   -5.024993    0.328233
     58          1           0       -2.678320   -5.386788    1.483864
     59          1           0       -4.810403   -0.982494   -0.941996
     60          1           0       -5.537234    0.446969   -1.872997
     61          1           0       -4.356441    5.034094    0.038469
     62          1           0       -5.573489    3.809782    0.161936
     63          1           0       -4.417348    3.823971   -1.530041
     64          1           0       -1.695938    5.148799   -0.362079
     65          1           0        7.675377   -2.874941   -0.375488
     66          1           0        7.160172   -4.454304   -1.213316
     67          1           0        6.225741   -3.999464    0.291043
     68          1           0        6.946920   -0.549323   -0.387195
     69          1           0        5.120243    1.412187    0.119989
     70          1           0        6.383170    0.877599    1.353463
     71          1           0        4.639433    0.604043    1.594573
     72          1           0        3.689312    5.977320   -0.991638
     73          1           0        4.469826    4.607992   -0.980979
     74          1           0       -0.116188    6.533674   -1.806016
     75          1           0        1.515037    7.102166   -1.340444
     76          1           0        0.118000    6.889574   -0.047382
     77          1           0        3.689166    5.928573    1.796108
     78          1           0        5.371839    5.935324    0.988687
     79          1           0        4.535541    4.239539    1.486756
     80          1           0       -3.971941   -4.510286   -1.514694
     81          1           0       -7.805851   -2.154109   -1.743289
 ---------------------------------------------------------------------

 SCF Done:  E(RB3LYP) =  -1949.05689068     A.U. after   18 cycles

 Excitation energies and oscillator strengths:

 Excited State   1:      Singlet-A      1.7508 eV  708.15 nm  f=0.3385  <S**2>=0.000
     156 ->157         0.71177
     156 <-157        -0.13262
 This state for optimization and/or second-order correction.
 Total Energy, E(TD-HF/TD-DFT) =  -1948.99254930
 Copying the excited state density for this state as the 1-particle RhoCI density.

 The electronic state is 1-A.
 Alpha  occ. eigenvalues --  -19.21546 -19.17319 -19.13362 -19.11742 -19.10905
 Alpha  occ. eigenvalues --  -19.09477 -14.40283 -14.38273 -14.35017 -14.27451
 Alpha  occ. eigenvalues --  -10.33545 -10.30594 -10.29603 -10.25253 -10.25232
 Alpha  occ. eigenvalues --  -10.25165 -10.24030 -10.23352 -10.23185 -10.23043
 Alpha  occ. eigenvalues --  -10.22954 -10.22540 -10.21957 -10.21525 -10.21426
 Alpha  occ. eigenvalues --  -10.21160 -10.21091 -10.20962 -10.20886 -10.20804
 Alpha  occ. eigenvalues --  -10.20726 -10.20678 -10.20435 -10.19687 -10.19660
 Alpha  occ. eigenvalues --  -10.19489 -10.19380 -10.19145 -10.18902 -10.18748
 Alpha  occ. eigenvalues --  -10.18273 -10.17892 -10.17477  -1.15254  -1.07640
 Alpha  occ. eigenvalues --   -1.03627  -1.01427  -1.00548  -0.99863  -0.98250
 Alpha  occ. eigenvalues --   -0.96993  -0.96896  -0.90327  -0.82960  -0.81943
 Alpha  occ. eigenvalues --   -0.81571  -0.81025  -0.79245  -0.78970  -0.78358
 Alpha  occ. eigenvalues --   -0.77297  -0.75924  -0.75398  -0.74343  -0.72050
 Alpha  occ. eigenvalues --   -0.70745  -0.70078  -0.68991  -0.68305  -0.67778
 Alpha  occ. eigenvalues --   -0.67158  -0.65242  -0.63626  -0.62598  -0.62279
 Alpha  occ. eigenvalues --   -0.61648  -0.59619  -0.59195  -0.58624  -0.57538
 Alpha  occ. eigenvalues --   -0.55914  -0.54742  -0.54643  -0.53438  -0.52761
 Alpha  occ. eigenvalues --   -0.52242  -0.51538  -0.51288  -0.50617  -0.50332
 Alpha  occ. eigenvalues --   -0.49242  -0.48897  -0.48462  -0.48155  -0.46935
 Alpha  occ. eigenvalues --   -0.46652  -0.46317  -0.45995  -0.45710  -0.45299
 Alpha  occ. eigenvalues --   -0.44835  -0.44407  -0.44386  -0.44300  -0.44026
 Alpha  occ. eigenvalues --   -0.43197  -0.42821  -0.42586  -0.42535  -0.42097
 Alpha  occ. eigenvalues --   -0.41835  -0.41293  -0.41011  -0.40843  -0.40710
 Alpha  occ. eigenvalues --   -0.40583  -0.40362  -0.40159  -0.39697  -0.39401
 Alpha  occ. eigenvalues --   -0.39212  -0.38727  -0.38397  -0.38096  -0.37618
 Alpha  occ. eigenvalues --   -0.37410  -0.37120  -0.36926  -0.36471  -0.36113
 Alpha  occ. eigenvalues --   -0.36059  -0.35863  -0.34785  -0.34581  -0.34543
 Alpha  occ. eigenvalues --   -0.33892  -0.33640  -0.33594  -0.32440  -0.31989
 Alpha  occ. eigenvalues --   -0.31493  -0.31148  -0.30859  -0.30036  -0.29183
 Alpha  occ. eigenvalues --   -0.27158  -0.26727  -0.26501  -0.26447  -0.26141
 Alpha  occ. eigenvalues --   -0.25003  -0.24245  -0.23324  -0.22706  -0.21247
 Alpha  occ. eigenvalues --   -0.16431
 Alpha virt. eigenvalues --   -0.09522  -0.05875  -0.03790  -0.01662  -0.00031
 Alpha virt. eigenvalues --    0.01196   0.01518   0.02082   0.02773   0.02825
 Alpha virt. eigenvalues --    0.04209   0.04416   0.04491   0.05320   0.05640

 Mulliken charges:
               1
     1  O   -0.229505
     2  O   -0.085129
     3  O   -0.272917
     4  O   -0.274366
     5  O   -0.228153
     6  O   -0.240255
     7  N   -0.026519
     8  N   -0.027573
     9  N   -0.114112
    10  N   -0.338428
    11  C   -0.105832
    12  C    0.075938
    13  C   -0.104987
    14  C   -0.043589
    15  C   -0.049504
    16  C    0.056466
    17  C   -0.094065
    18  C   -0.097242
    19  C    0.045520
    20  C    0.088783
    21  C    0.217808
    22  C    0.070532
    23  C   -0.087276
    24  C    0.040320
    25  C   -0.098581
    26  C   -0.034578
    27  C    0.063994
    28  C   -0.015218
    29  C   -0.027499
    30  C   -0.020108
    31  C   -0.080686
    32  C    0.006746
    33  C   -0.132655
    34  C    0.041181
    35  C   -0.105035
    36  C   -0.177039
    37  C    0.098535
    38  C    0.000479
    39  C    0.113705
    40  C    0.121535
    41  C    0.163703
    42  C    0.097499
    43  C   -0.046674
    44  H    0.187495
    45  H    0.067907
    46  H    0.038248
    47  H    0.012826
    48  H   -0.013548
    49  H    0.051919
    50  H    0.006255
    51  H   -0.014483
    52  H    0.075125
    53  H    0.029732
    54  H    0.067522
    55  H    0.036502
    56  H    0.148060
    57  H    0.051318
    58  H    0.072299
    59  H    0.075665
    60  H    0.038260
    61  H    0.042125
    62  H    0.047802
    63  H    0.061984
    64  H   -0.057868
    65  H    0.033283
    66  H    0.043997
    67  H    0.028239
    68  H    0.034218
    69  H    0.065534
    70  H    0.015533
    71  H    0.056665
    72  H   -0.068980
    73  H    0.002430
    74  H    0.036075
    75  H    0.026542
    76  H    0.026980
    77  H    0.027695
    78  H    0.019053
    79  H    0.064663
    80  H    0.181797
    81  H    0.235913
 Sum of Mulliken charges =  -0.00000

 Dipole moment (field-independent basis, Debye):
    X=             -1.2859    Y=             -1.8047    Z=             -0.2125  Tot=              2.2262
 Quadrupole moment (field-independent basis, Debye-Ang):
   XX=           -252.4452   YY=           -237.2430   ZZ=           -254.8514
   XY=             17.1007   XZ=             15.6593   YZ=            -13.0783

 Normal termination of Gaussian 16 at Thu Jun 27 10:45:46 2019.
