 Gaussian 16, Revision A.03,
 Gaussian 16:  ES64L-G16RevA.03 25-Dec-2016

 --------------------------
 # td=(NStates=1) B3LYP/SVP
 --------------------------

 --
 TD
 --
 Symbolic Z-matrix:
 Charge =  0 Multiplicity = 1

                         Standard orientation:
 ---------------------------------------------------------------------
 Center     Atomic      Atomic             Coordinates (Angstroms)
 Number     Number       Type             X           Y           Z
 ---------------------------------------------------------------------
      1          8           0        4.202371   -4.842007   -1.785119
      2          8           0       -2.813571   -4.786949   -1.077025
      3          8           0       -6.849795   -1.642667   -1.912737
      4          8           0       -3.848123   -3.260521    0.306636
      5          8           0       -7.588984   -0.568859   -0.187854
      6          8           0        2.998508    2.358275    0.425492
      7          7           0        0.312307   -0.428337    0.647656
      8          7           0       -1.632176    1.830028    0.372703
      9          7           0        3.247675   -3.083554   -0.627482
     10          7           0        0.761538    2.882089    0.035384
     11          6           0       -0.551119   -2.371759    1.475553
     12          6           0       -0.876248   -1.036916    1.064287
     13          6           0        0.780668   -2.506497    1.323615
     14          6           0        1.312473   -1.386020    0.778199
     15          6           0       -3.837227    1.515801    0.288251
     16          6           0       -2.588736    0.877645    0.552825
     17          6           0       -2.250229   -0.419588    0.994269
     18          6           0       -3.497491    2.828386   -0.184272
     19          6           0       -1.569611   -3.360659    2.081851
     20          6           0        5.420824   -2.742131   -1.438782
     21          6           0        3.557246   -1.779365   -0.251635
     22          6           0       -2.191057    2.991423   -0.125028
     23          6           0        4.964620   -1.582157   -0.571259
     24          6           0       -5.161336    0.818441    0.290890
     25          6           0        2.653024   -0.940344    0.344374
     26          6           0        1.537127   -3.679466    1.852219
     27          6           0        4.228614   -3.734907   -1.460232
     28          6           0       -1.881402   -4.584856    1.107410
     29          6           0       -5.307939   -0.187115   -0.850378
     30          6           0       -4.439615    3.930501   -0.502082
     31          6           0       -1.320421    4.134079   -0.297823
     32          6           0        6.809466   -3.381310   -1.340731
     33          6           0        5.761119   -0.675577   -0.094248
     34          6           0        0.142271    3.990432   -0.273164
     35          6           0        1.064288    5.042847   -0.514530
     36          6           0        2.299631    4.570378   -0.230112
     37          6           0       -2.970291   -4.208350    0.104892
     38          6           0        5.369407    0.417845    0.893049
     39          6           0       -6.703246   -0.809232   -0.968157
     40          6           0        3.662627    5.250662   -0.250752
     41          6           0        2.056860    3.140455    0.179486
     42          6           0        0.723113    6.532548   -0.853697
     43          6           0        4.134517    5.781178    1.182578
     44          1           0        0.424643    0.410881    0.302081
     45          1           0       -3.015735   -1.191053    1.255130
     46          1           0       -2.455512   -2.811760    2.336036
     47          1           0       -0.856095   -3.561458    2.998469
     48          1           0        5.355383   -2.492546   -2.525823
     49          1           0       -5.358844    0.106383    1.214480
     50          1           0       -5.968409    1.519744    0.126872
     51          1           0        2.852948    0.172361    0.436250
     52          1           0       -0.621919    1.786985    0.491190
     53          1           0        1.298860   -4.742076    1.366921
     54          1           0        2.413623   -3.311992    1.856623
     55          1           0        1.367692   -4.025334    3.037921
     56          1           0        2.184233   -3.426894   -0.462180
     57          1           0       -0.884021   -4.890407    0.730540
     58          1           0       -2.434905   -5.318818    1.773572
     59          1           0       -4.569232   -0.976869   -0.571398
     60          1           0       -4.892506    0.365409   -1.835378
     61          1           0       -4.477910    4.847958    0.128697
     62          1           0       -5.503797    3.528597   -0.438401
     63          1           0       -4.413404    4.180149   -1.506295
     64          1           0       -1.777663    5.028561   -0.597252
     65          1           0        7.635129   -2.689771   -1.848479
     66          1           0        6.855836   -4.299527   -1.767610
     67          1           0        7.204961   -3.418673   -0.256937
     68          1           0        6.744012   -0.512478   -0.434599
     69          1           0        4.628755    1.160968    0.428282
     70          1           0        6.112018    0.964537    1.453107
     71          1           0        4.860168   -0.083715    1.852685
     72          1           0        3.433670    6.158682   -0.991311
     73          1           0        4.687005    4.772187   -0.824726
     74          1           0        0.149283    6.336890   -1.790878
     75          1           0        1.647923    7.134592   -1.057171
     76          1           0        0.023398    6.977403   -0.397925
     77          1           0        3.481975    6.644868    1.537645
     78          1           0        5.091118    5.960253    1.034497
     79          1           0        4.269914    4.932481    1.935369
     80          1           0       -3.394862   -4.274390   -1.724580
     81          1           0       -7.717947   -2.040108   -2.259577
 ---------------------------------------------------------------------

 SCF Done:  E(RB3LYP) =  -1949.06741164     A.U. after   19 cycles

 Excitation energies and oscillator strengths:

 Excited State   1:      Singlet-A      1.7359 eV  714.25 nm  f=0.3279  <S**2>=0.000
     156 ->157         0.70978
     156 <-157        -0.12689
 This state for optimization and/or second-order correction.
 Total Energy, E(TD-HF/TD-DFT) =  -1949.00362002
 Copying the excited state density for this state as the 1-particle RhoCI density.

 The electronic state is 1-A.
 Alpha  occ. eigenvalues --  -19.21986 -19.18620 -19.14523 -19.12359 -19.10783
 Alpha  occ. eigenvalues --  -19.09246 -14.37152 -14.36665 -14.34872 -14.27858
 Alpha  occ. eigenvalues --  -10.35336 -10.31591 -10.29617 -10.25209 -10.24078
 Alpha  occ. eigenvalues --  -10.23915 -10.23878 -10.23831 -10.23351 -10.23071
 Alpha  occ. eigenvalues --  -10.22589 -10.22452 -10.22357 -10.20990 -10.20988
 Alpha  occ. eigenvalues --  -10.20860 -10.20747 -10.20726 -10.20189 -10.20144
 Alpha  occ. eigenvalues --  -10.19489 -10.19327 -10.19145 -10.19112 -10.19041
 Alpha  occ. eigenvalues --  -10.18880 -10.18775 -10.18749 -10.18580 -10.18075
 Alpha  occ. eigenvalues --  -10.17816 -10.17558 -10.17304  -1.11703  -1.11197
 Alpha  occ. eigenvalues --   -1.07059  -0.99917  -0.99910  -0.99123  -0.98856
 Alpha  occ. eigenvalues --   -0.98128  -0.94361  -0.93180  -0.83895  -0.81764
 Alpha  occ. eigenvalues --   -0.81359  -0.81018  -0.79545  -0.78543  -0.78023
 Alpha  occ. eigenvalues --   -0.76762  -0.75905  -0.74192  -0.73156  -0.72488
 Alpha  occ. eigenvalues --   -0.71356  -0.70268  -0.69415  -0.68900  -0.68652
 Alpha  occ. eigenvalues --   -0.67802  -0.65847  -0.64067  -0.62853  -0.62473
 Alpha  occ. eigenvalues --   -0.61972  -0.60257  -0.59111  -0.58644  -0.57355
 Alpha  occ. eigenvalues --   -0.55970  -0.55233  -0.54387  -0.53970  -0.52734
 Alpha  occ. eigenvalues --   -0.52414  -0.52175  -0.51070  -0.50769  -0.50306
 Alpha  occ. eigenvalues --   -0.49691  -0.49122  -0.49029  -0.48045  -0.47480
 Alpha  occ. eigenvalues --   -0.46931  -0.46632  -0.46205  -0.45773  -0.45660
 Alpha  occ. eigenvalues --   -0.45079  -0.44764  -0.44271  -0.44120  -0.43595
 Alpha  occ. eigenvalues --   -0.43314  -0.43108  -0.42747  -0.42520  -0.42332
 Alpha  occ. eigenvalues --   -0.42074  -0.42014  -0.41442  -0.41119  -0.40852
 Alpha  occ. eigenvalues --   -0.40810  -0.40606  -0.40454  -0.40223  -0.39671
 Alpha  occ. eigenvalues --   -0.38941  -0.38702  -0.38451  -0.38358  -0.38013
 Alpha  occ. eigenvalues --   -0.37605  -0.36931  -0.36816  -0.36521  -0.36050
 Alpha  occ. eigenvalues --   -0.35882  -0.35699  -0.35156  -0.34909  -0.34817
 Alpha  occ. eigenvalues --   -0.34323  -0.34018  -0.33871  -0.32984  -0.32266
 Alpha  occ. eigenvalues --   -0.31769  -0.31653  -0.31425  -0.29885  -0.29569
 Alpha  occ. eigenvalues --   -0.27355  -0.27060  -0.26962  -0.26448  -0.25906
 Alpha  occ. eigenvalues --   -0.25204  -0.24643  -0.23486  -0.22507  -0.21229
 Alpha  occ. eigenvalues --   -0.17907
 Alpha virt. eigenvalues --   -0.11004  -0.05807  -0.04266  -0.03593   0.00787
 Alpha virt. eigenvalues --    0.01110   0.01942   0.02341   0.02467   0.03089
 Alpha virt. eigenvalues --    0.03851   0.04930   0.05284   0.06141   0.06211

 Mulliken charges:
               1
     1  O   -0.128094
     2  O   -0.156202
     3  O   -0.158775
     4  O   -0.313965
     5  O   -0.230216
     6  O   -0.252054
     7  N   -0.008121
     8  N   -0.078141
     9  N   -0.232611
    10  N   -0.230669
    11  C   -0.112260
    12  C    0.001606
    13  C   -0.175242
    14  C    0.062155
    15  C   -0.053297
    16  C    0.084987
    17  C   -0.035426
    18  C   -0.150015
    19  C    0.069416
    20  C   -0.061869
    21  C    0.105257
    22  C    0.099322
    23  C    0.092766
    24  C    0.086807
    25  C   -0.124498
    26  C    0.060422
    27  C    0.115218
    28  C    0.048984
    29  C   -0.101417
    30  C    0.123273
    31  C   -0.085292
    32  C    0.056095
    33  C   -0.156759
    34  C    0.072005
    35  C   -0.129745
    36  C   -0.122813
    37  C    0.159133
    38  C   -0.019416
    39  C    0.130865
    40  C   -0.079968
    41  C    0.129053
    42  C    0.206620
    43  C    0.060536
    44  H    0.052504
    45  H    0.026839
    46  H    0.016045
    47  H    0.043115
    48  H    0.032934
    49  H    0.039352
    50  H    0.004064
    51  H    0.044469
    52  H    0.118115
    53  H    0.049303
    54  H   -0.021094
    55  H    0.037225
    56  H    0.169864
    57  H    0.046522
    58  H    0.063544
    59  H    0.049731
    60  H    0.043859
    61  H    0.037813
    62  H   -0.005923
    63  H   -0.007443
    64  H   -0.055327
    65  H    0.022314
    66  H    0.007097
    67  H    0.023556
    68  H   -0.025022
    69  H    0.104912
    70  H   -0.005925
    71  H    0.024427
    72  H    0.010523
    73  H    0.041598
    74  H   -0.001508
    75  H    0.024479
    76  H   -0.048564
    77  H    0.035292
    78  H   -0.032309
    79  H    0.027069
    80  H    0.215856
    81  H    0.223042
 Sum of Mulliken charges =  -0.00000

 Dipole moment (field-independent basis, Debye):
    X=             -2.3905    Y=             -1.6665    Z=             -2.1724  Tot=              3.6347
 Quadrupole moment (field-independent basis, Debye-Ang):
   XX=           -252.8093   YY=           -239.5838   ZZ=           -248.0189
   XY=             15.1400   XZ=             21.3201   YZ=             -7.8483

 Normal termination of Gaussian 16 at Sun Jun 30 21:20:34 2019.
