 Gaussian 16, Revision A.03,
 Gaussian 16:  ES64L-G16RevA.03 25-Dec-2016

 --------------------------
 # td=(NStates=1) B3LYP/SVP
 --------------------------

 --
 TD
 --
 Symbolic Z-matrix:
 Charge =  0 Multiplicity = 1

                         Standard orientation:
 ---------------------------------------------------------------------
 Center     Atomic      Atomic             Coordinates (Angstroms)
 Number     Number       Type             X           Y           Z
 ---------------------------------------------------------------------
      1          8           0        4.557618   -4.826000   -1.924038
      2          8           0       -3.092560   -4.858135   -1.084776
      3          8           0       -6.905697   -1.603702   -1.870224
      4          8           0       -3.963856   -3.196318    0.170259
      5          8           0       -7.700816   -0.378088   -0.162906
      6          8           0        2.939672    2.377836    0.353345
      7          7           0        0.329882   -0.493482    0.598375
      8          7           0       -1.558133    1.854067    0.555667
      9          7           0        3.502485   -3.175529   -0.636956
     10          7           0        0.716238    2.858567   -0.123170
     11          6           0       -0.611125   -2.384172    1.349032
     12          6           0       -0.863340   -1.053403    0.967063
     13          6           0        0.789117   -2.727915    1.177217
     14          6           0        1.332253   -1.416706    0.620013
     15          6           0       -3.802915    1.434036    0.274837
     16          6           0       -2.482884    0.834291    0.559986
     17          6           0       -2.155087   -0.477452    0.922298
     18          6           0       -3.494207    2.715754   -0.034465
     19          6           0       -1.594550   -3.451609    1.992960
     20          6           0        5.570750   -2.616256   -1.358713
     21          6           0        3.683300   -1.850109   -0.106397
     22          6           0       -2.057487    3.049462    0.002941
     23          6           0        5.135031   -1.544180   -0.384629
     24          6           0       -5.140525    0.806166    0.371628
     25          6           0        2.726166   -1.070913    0.385672
     26          6           0        1.478527   -3.923590    1.648218
     27          6           0        4.444517   -3.684779   -1.352591
     28          6           0       -2.092856   -4.529132    1.022244
     29          6           0       -5.385050   -0.066849   -0.805877
     30          6           0       -4.582715    3.748291   -0.447706
     31          6           0       -1.277461    4.084719   -0.421902
     32          6           0        6.981876   -3.279024   -0.867767
     33          6           0        5.796498   -0.486899    0.003901
     34          6           0        0.097445    3.988648   -0.362555
     35          6           0        0.984142    5.097006   -0.470513
     36          6           0        2.211662    4.630852   -0.272531
     37          6           0       -3.121883   -4.143941    0.043037
     38          6           0        5.397979    0.749455    0.847404
     39          6           0       -6.738080   -0.748043   -0.764399
     40          6           0        3.626185    5.343316   -0.335615
     41          6           0        2.053430    3.179399    0.041768
     42          6           0        0.563315    6.603380   -0.713031
     43          6           0        4.125870    5.723632    1.128820
     44          1           0        0.568495    0.414981    0.011186
     45          1           0       -3.254981   -1.196220    1.025787
     46          1           0       -2.456661   -3.033200    2.333679
     47          1           0       -1.156792   -3.991223    2.828069
     48          1           0        5.600288   -2.147584   -2.455012
     49          1           0       -5.201451   -0.149281    1.247516
     50          1           0       -5.885082    1.528760    0.630182
     51          1           0        2.970047    0.090990    0.232971
     52          1           0       -0.498754    1.692858    0.496643
     53          1           0        1.337835   -4.790439    1.049859
     54          1           0        2.576652   -3.915590    1.777873
     55          1           0        0.962133   -4.413821    2.537397
     56          1           0        2.447719   -3.597457   -0.404185
     57          1           0       -1.460853   -5.117263    0.226489
     58          1           0       -2.411572   -5.522404    1.792206
     59          1           0       -4.652665   -0.700678   -0.704573
     60          1           0       -5.346513    0.240282   -1.896168
     61          1           0       -4.806958    4.527826    0.354871
     62          1           0       -5.565555    3.371300   -0.758258
     63          1           0       -4.225067    4.310225   -1.291691
     64          1           0       -1.748013    4.950172   -0.667068
     65          1           0        7.797355   -2.442669   -0.961309
     66          1           0        7.258027   -3.954972   -1.937618
     67          1           0        7.110834   -3.722986    0.197888
     68          1           0        6.817556   -0.305462   -0.403490
     69          1           0        5.029499    1.624758    0.207017
     70          1           0        6.365134    0.868869    1.419635
     71          1           0        4.466529    0.605744    1.596300
     72          1           0        3.456499    6.169863   -1.046597
     73          1           0        4.556411    4.572618   -0.610546
     74          1           0       -0.123847    6.457545   -1.714150
     75          1           0        1.329427    7.216016   -1.000961
     76          1           0       -0.178317    6.895494    0.002812
     77          1           0        3.339083    6.577021    1.727572
     78          1           0        5.239505    6.004667    1.116608
     79          1           0        4.256340    4.760123    1.899971
     80          1           0       -3.959195   -4.630045   -1.659116
     81          1           0       -7.748669   -1.879533   -1.774560
 ---------------------------------------------------------------------

 SCF Done:  E(RB3LYP) =  -1949.01478867     A.U. after   17 cycles

 Excitation energies and oscillator strengths:

 Excited State   1:      Singlet-A      1.7735 eV  699.11 nm  f=0.3148  <S**2>=0.000
     156 ->157         0.70988
     156 <-157        -0.12226
 This state for optimization and/or second-order correction.
 Total Energy, E(TD-HF/TD-DFT) =  -1948.94961525
 Copying the excited state density for this state as the 1-particle RhoCI density.

 The electronic state is 1-A.
 Alpha  occ. eigenvalues --  -19.21000 -19.16608 -19.13785 -19.13649 -19.11114
 Alpha  occ. eigenvalues --  -19.08846 -14.39625 -14.38386 -14.36120 -14.29178
 Alpha  occ. eigenvalues --  -10.34057 -10.32142 -10.28119 -10.26890 -10.25208
 Alpha  occ. eigenvalues --  -10.24696 -10.24485 -10.24369 -10.24183 -10.23589
 Alpha  occ. eigenvalues --  -10.22976 -10.22731 -10.22014 -10.21938 -10.21853
 Alpha  occ. eigenvalues --  -10.21686 -10.21483 -10.21412 -10.21404 -10.21316
 Alpha  occ. eigenvalues --  -10.20890 -10.20832 -10.20770 -10.20713 -10.19991
 Alpha  occ. eigenvalues --  -10.19928 -10.19894 -10.19871 -10.19411 -10.19295
 Alpha  occ. eigenvalues --  -10.19249 -10.19069 -10.18470  -1.10336  -1.09906
 Alpha  occ. eigenvalues --   -1.01694  -1.01425  -1.00571  -0.99164  -0.99086
 Alpha  occ. eigenvalues --   -0.97302  -0.94007  -0.93504  -0.83389  -0.82485
 Alpha  occ. eigenvalues --   -0.81538  -0.80878  -0.79790  -0.79397  -0.78549
 Alpha  occ. eigenvalues --   -0.78207  -0.76741  -0.74126  -0.73100  -0.72888
 Alpha  occ. eigenvalues --   -0.71417  -0.69844  -0.69333  -0.69272  -0.67909
 Alpha  occ. eigenvalues --   -0.66755  -0.65546  -0.63773  -0.62468  -0.60784
 Alpha  occ. eigenvalues --   -0.60076  -0.59579  -0.59285  -0.57776  -0.57173
 Alpha  occ. eigenvalues --   -0.56633  -0.55857  -0.55451  -0.53848  -0.53242
 Alpha  occ. eigenvalues --   -0.52043  -0.51719  -0.51239  -0.51035  -0.49957
 Alpha  occ. eigenvalues --   -0.49408  -0.48831  -0.48059  -0.47883  -0.47551
 Alpha  occ. eigenvalues --   -0.46952  -0.46430  -0.45831  -0.45533  -0.45405
 Alpha  occ. eigenvalues --   -0.45081  -0.44820  -0.44238  -0.43878  -0.43566
 Alpha  occ. eigenvalues --   -0.43443  -0.42876  -0.42773  -0.42378  -0.42139
 Alpha  occ. eigenvalues --   -0.41996  -0.41811  -0.41285  -0.41064  -0.40911
 Alpha  occ. eigenvalues --   -0.40690  -0.40352  -0.40288  -0.39822  -0.39716
 Alpha  occ. eigenvalues --   -0.39085  -0.39026  -0.38922  -0.38514  -0.38022
 Alpha  occ. eigenvalues --   -0.37668  -0.37382  -0.37317  -0.37066  -0.36618
 Alpha  occ. eigenvalues --   -0.36315  -0.35815  -0.35031  -0.34543  -0.34209
 Alpha  occ. eigenvalues --   -0.33776  -0.33541  -0.33244  -0.32827  -0.32573
 Alpha  occ. eigenvalues --   -0.32433  -0.32021  -0.30634  -0.30015  -0.28963
 Alpha  occ. eigenvalues --   -0.28877  -0.28709  -0.26805  -0.26001  -0.25706
 Alpha  occ. eigenvalues --   -0.25588  -0.24924  -0.24292  -0.23787  -0.22478
 Alpha  occ. eigenvalues --   -0.18043
 Alpha virt. eigenvalues --   -0.10979  -0.06211  -0.04446  -0.03936  -0.01191
 Alpha virt. eigenvalues --    0.00969   0.01133   0.01946   0.02558   0.03012
 Alpha virt. eigenvalues --    0.03299   0.03690   0.04516   0.05355   0.05895

 Mulliken charges:
               1
     1  O   -0.294310
     2  O   -0.207582
     3  O   -0.184550
     4  O   -0.294242
     5  O   -0.204201
     6  O   -0.225479
     7  N   -0.098571
     8  N   -0.126676
     9  N   -0.121992
    10  N   -0.283835
    11  C   -0.129521
    12  C    0.111799
    13  C   -0.139315
    14  C   -0.005401
    15  C   -0.002738
    16  C    0.004458
    17  C   -0.135894
    18  C   -0.146704
    19  C    0.219367
    20  C   -0.126010
    21  C    0.098490
    22  C    0.140182
    23  C    0.094783
    24  C    0.021860
    25  C   -0.142298
    26  C    0.088616
    27  C    0.147498
    28  C   -0.136016
    29  C    0.094149
    30  C    0.066774
    31  C   -0.102133
    32  C   -0.046251
    33  C   -0.215329
    34  C    0.121606
    35  C   -0.137339
    36  C   -0.159324
    37  C    0.180106
    38  C   -0.017333
    39  C    0.138134
    40  C    0.045488
    41  C    0.148913
    42  C    0.149130
    43  C   -0.118654
    44  H    0.197544
    45  H    0.103153
    46  H   -0.015613
    47  H    0.001601
    48  H    0.067583
    49  H    0.048028
    50  H    0.018799
    51  H    0.081270
    52  H    0.151815
    53  H    0.004306
    54  H    0.045373
    55  H    0.011070
    56  H    0.182711
    57  H    0.060621
    58  H    0.080119
    59  H   -0.037686
    60  H    0.048402
    61  H    0.029936
    62  H    0.018052
    63  H    0.007189
    64  H   -0.079329
    65  H    0.024493
    66  H    0.055965
    67  H    0.055793
    68  H   -0.001751
    69  H    0.083639
    70  H    0.022935
    71  H    0.053244
    72  H    0.020714
    73  H    0.048255
    74  H    0.022362
    75  H    0.000967
    76  H    0.027853
    77  H    0.038595
    78  H    0.031662
    79  H    0.051959
    80  H    0.243585
    81  H    0.125134
 Sum of Mulliken charges =  -0.00000

 Dipole moment (field-independent basis, Debye):
    X=             -3.2805    Y=              1.4822    Z=              0.3801  Tot=              3.6198
 Quadrupole moment (field-independent basis, Debye-Ang):
   XX=           -267.6269   YY=           -239.8445   ZZ=           -257.6104
   XY=             27.5349   XZ=             15.2905   YZ=            -21.1403

 Normal termination of Gaussian 16 at Sun Jun 30 01:45:05 2019.
