 Gaussian 16, Revision A.03,
 Gaussian 16:  ES64L-G16RevA.03 25-Dec-2016

 --------------------------
 # td=(NStates=1) B3LYP/SVP
 --------------------------

 --
 TD
 --
 Symbolic Z-matrix:
 Charge =  0 Multiplicity = 1

                         Standard orientation:
 ---------------------------------------------------------------------
 Center     Atomic      Atomic             Coordinates (Angstroms)
 Number     Number       Type             X           Y           Z
 ---------------------------------------------------------------------
      1          8           0        3.918619   -5.133400   -1.779548
      2          8           0       -3.384953   -4.746507   -0.852363
      3          8           0       -6.858644   -1.302062   -1.992607
      4          8           0       -3.925523   -2.801775    0.207665
      5          8           0       -7.408908   -0.798774    0.187005
      6          8           0        3.104177    2.156653    0.124093
      7          7           0        0.198546   -0.492760    0.503180
      8          7           0       -1.472408    1.864480    0.177119
      9          7           0        3.088998   -3.320313   -0.658643
     10          7           0        0.927499    2.879327    0.026068
     11          6           0       -0.774378   -2.250717    1.298559
     12          6           0       -1.037884   -0.968448    0.842704
     13          6           0        0.528412   -2.556162    1.230769
     14          6           0        1.201686   -1.395272    0.636170
     15          6           0       -3.723865    1.706308    0.045598
     16          6           0       -2.436402    1.042616    0.508436
     17          6           0       -2.217976   -0.273043    0.953065
     18          6           0       -3.292230    3.073066   -0.128172
     19          6           0       -1.857478   -3.158831    2.027069
     20          6           0        5.332794   -3.154412   -1.278323
     21          6           0        3.522766   -1.938216   -0.344957
     22          6           0       -1.987494    3.216661   -0.094194
     23          6           0        4.885685   -1.931443   -0.508267
     24          6           0       -5.071818    1.119489    0.256516
     25          6           0        2.550646   -1.081777    0.172539
     26          6           0        1.174527   -3.820918    1.793001
     27          6           0        4.094408   -4.063539   -1.276226
     28          6           0       -2.303613   -4.287804    1.150286
     29          6           0       -5.394865    0.144850   -0.939048
     30          6           0       -4.221124    4.245311   -0.441069
     31          6           0       -1.039575    4.262887   -0.300820
     32          6           0        6.608101   -3.798416   -0.695723
     33          6           0        5.791789   -0.924000   -0.167126
     34          6           0        0.388667    3.994846   -0.276726
     35          6           0        1.435981    5.174688   -0.356771
     36          6           0        2.629208    4.525946   -0.272263
     37          6           0       -3.320079   -3.859810    0.081886
     38          6           0        5.390543    0.311696    0.651169
     39          6           0       -6.699860   -0.594084   -0.831405
     40          6           0        4.013760    5.206519   -0.185567
     41          6           0        2.276998    3.095398   -0.016452
     42          6           0        1.046388    6.596756   -0.683700
     43          6           0        4.617761    5.153923    1.321450
     44          1           0        0.456399    0.652309    0.235000
     45          1           0       -3.078331   -0.859608    1.038706
     46          1           0       -2.816894   -2.525542    2.372977
     47          1           0       -1.266204   -3.545794    2.823777
     48          1           0        5.547283   -2.955211   -2.251068
     49          1           0       -5.111527    0.450778    1.279111
     50          1           0       -5.956699    1.936332    0.545175
     51          1           0        2.760791    0.066658    0.316340
     52          1           0       -0.343806    1.717508    0.498158
     53          1           0        1.183274   -4.678437    1.042444
     54          1           0        2.152246   -3.708800    2.144972
     55          1           0        0.465490   -4.069535    2.756155
     56          1           0        2.278811   -3.639104   -0.669135
     57          1           0       -1.455950   -4.814395    0.621648
     58          1           0       -2.912801   -5.082555    1.729263
     59          1           0       -4.674712   -0.628589   -0.763201
     60          1           0       -5.240298    0.729796   -2.076948
     61          1           0       -4.329164    4.948249    0.768997
     62          1           0       -5.235082    3.888209   -0.746335
     63          1           0       -3.539701    4.981127   -1.198140
     64          1           0       -1.559149    5.332407   -0.532750
     65          1           0        7.457860   -3.271303   -0.996768
     66          1           0        6.646567   -4.798147   -1.208479
     67          1           0        6.383569   -3.939127    0.352427
     68          1           0        6.926232   -0.851082   -0.441017
     69          1           0        4.604868    0.921023    0.069455
     70          1           0        6.328423    0.884064    0.970904
     71          1           0        4.750428   -0.103915    1.502405
     72          1           0        3.888616    6.203769   -0.912459
     73          1           0        4.673501    4.667192   -0.782390
     74          1           0        0.667217    6.480050   -1.718209
     75          1           0        2.008340    7.052912   -0.603132
     76          1           0        0.592955    7.077504    0.247459
     77          1           0        4.062809    5.919020    1.750035
     78          1           0        5.648145    5.588008    1.192223
     79          1           0        4.434039    4.024414    1.741209
     80          1           0       -4.031653   -4.593532   -1.655166
     81          1           0       -7.791358   -1.849291   -1.966130
 ---------------------------------------------------------------------

 SCF Done:  E(RB3LYP) =  -1948.99021338     A.U. after   17 cycles

 Excitation energies and oscillator strengths:

 Excited State   1:      Singlet-A      1.5852 eV  782.12 nm  f=0.3205  <S**2>=0.000
     156 ->157         0.71780
     156 <-157        -0.15542
 This state for optimization and/or second-order correction.
 Total Energy, E(TD-HF/TD-DFT) =  -1948.93195687
 Copying the excited state density for this state as the 1-particle RhoCI density.

 The electronic state is 1-A.
 Alpha  occ. eigenvalues --  -19.21423 -19.18574 -19.13609 -19.12499 -19.10769
 Alpha  occ. eigenvalues --  -19.10218 -14.38504 -14.35068 -14.34802 -14.30122
 Alpha  occ. eigenvalues --  -10.33450 -10.32264 -10.28429 -10.27060 -10.24838
 Alpha  occ. eigenvalues --  -10.24432 -10.23157 -10.23140 -10.22616 -10.22606
 Alpha  occ. eigenvalues --  -10.22435 -10.22412 -10.21942 -10.21651 -10.21520
 Alpha  occ. eigenvalues --  -10.21040 -10.20951 -10.20917 -10.20158 -10.20119
 Alpha  occ. eigenvalues --  -10.20105 -10.20067 -10.19977 -10.19977 -10.19764
 Alpha  occ. eigenvalues --  -10.19713 -10.19589 -10.19294 -10.19210 -10.19161
 Alpha  occ. eigenvalues --  -10.18869 -10.18246 -10.18232  -1.11932  -1.06807
 Alpha  occ. eigenvalues --   -1.04059  -1.02000  -1.00680  -0.98986  -0.97795
 Alpha  occ. eigenvalues --   -0.96418  -0.94532  -0.93423  -0.82514  -0.82074
 Alpha  occ. eigenvalues --   -0.81658  -0.80224  -0.79726  -0.78581  -0.77441
 Alpha  occ. eigenvalues --   -0.76737  -0.75433  -0.74341  -0.73647  -0.71776
 Alpha  occ. eigenvalues --   -0.70191  -0.70124  -0.69157  -0.68705  -0.67317
 Alpha  occ. eigenvalues --   -0.66207  -0.64668  -0.63934  -0.61939  -0.61723
 Alpha  occ. eigenvalues --   -0.61210  -0.59081  -0.58027  -0.57526  -0.56792
 Alpha  occ. eigenvalues --   -0.55036  -0.54457  -0.53909  -0.53267  -0.52533
 Alpha  occ. eigenvalues --   -0.51823  -0.50757  -0.50280  -0.49741  -0.49469
 Alpha  occ. eigenvalues --   -0.49252  -0.48739  -0.48557  -0.47647  -0.46930
 Alpha  occ. eigenvalues --   -0.46655  -0.46096  -0.46087  -0.45854  -0.45461
 Alpha  occ. eigenvalues --   -0.44917  -0.44374  -0.44064  -0.43652  -0.42990
 Alpha  occ. eigenvalues --   -0.42917  -0.42650  -0.42420  -0.42023  -0.41798
 Alpha  occ. eigenvalues --   -0.41678  -0.41145  -0.41002  -0.40714  -0.40320
 Alpha  occ. eigenvalues --   -0.40032  -0.39644  -0.39204  -0.39109  -0.39045
 Alpha  occ. eigenvalues --   -0.38710  -0.38269  -0.38126  -0.37686  -0.37273
 Alpha  occ. eigenvalues --   -0.37079  -0.36969  -0.36690  -0.36272  -0.36091
 Alpha  occ. eigenvalues --   -0.35978  -0.35768  -0.35566  -0.35134  -0.34396
 Alpha  occ. eigenvalues --   -0.33973  -0.33893  -0.33594  -0.33310  -0.32778
 Alpha  occ. eigenvalues --   -0.32692  -0.32200  -0.31292  -0.29765  -0.28912
 Alpha  occ. eigenvalues --   -0.27994  -0.27588  -0.26662  -0.26133  -0.25640
 Alpha  occ. eigenvalues --   -0.24988  -0.24779  -0.24619  -0.23125  -0.21539
 Alpha  occ. eigenvalues --   -0.17071
 Alpha virt. eigenvalues --   -0.10903  -0.06077  -0.04808  -0.01115  -0.00209
 Alpha virt. eigenvalues --    0.00768   0.00854   0.02062   0.02314   0.02563
 Alpha virt. eigenvalues --    0.03226   0.03819   0.03905   0.04586   0.05275

 Mulliken charges:
               1
     1  O   -0.192195
     2  O   -0.167668
     3  O   -0.259657
     4  O   -0.242040
     5  O   -0.264975
     6  O   -0.264113
     7  N   -0.156294
     8  N   -0.201493
     9  N   -0.093288
    10  N   -0.220023
    11  C   -0.113828
    12  C    0.089890
    13  C   -0.163921
    14  C    0.049437
    15  C   -0.023156
    16  C    0.037264
    17  C   -0.033553
    18  C   -0.132251
    19  C    0.144608
    20  C   -0.050503
    21  C    0.157021
    22  C    0.160005
    23  C    0.010294
    24  C   -0.067020
    25  C   -0.156166
    26  C    0.062184
    27  C    0.110954
    28  C   -0.039046
    29  C   -0.029951
    30  C   -0.047496
    31  C   -0.166605
    32  C    0.082988
    33  C   -0.165263
    34  C    0.052870
    35  C   -0.195225
    36  C   -0.169005
    37  C    0.130952
    38  C   -0.027894
    39  C    0.185994
    40  C    0.040679
    41  C    0.157139
    42  C    0.166396
    43  C    0.000054
    44  H    0.207060
    45  H   -0.014558
    46  H    0.048418
    47  H   -0.014755
    48  H    0.003150
    49  H    0.063300
    50  H    0.046155
    51  H    0.064709
    52  H    0.201718
    53  H    0.043685
    54  H    0.013508
    55  H    0.030658
    56  H    0.030663
    57  H    0.040276
    58  H    0.050021
    59  H    0.055148
    60  H    0.071749
    61  H    0.041186
    62  H    0.044930
    63  H    0.057492
    64  H    0.019825
    65  H    0.007829
    66  H    0.023264
    67  H    0.015160
    68  H    0.029667
    69  H    0.110261
    70  H    0.023590
    71  H    0.035717
    72  H    0.020067
    73  H   -0.016089
    74  H    0.060824
    75  H   -0.017053
    76  H    0.036647
    77  H    0.001660
    78  H    0.026024
    79  H    0.083940
    80  H    0.231730
    81  H    0.226325
 Sum of Mulliken charges =  -0.00000

 Dipole moment (field-independent basis, Debye):
    X=             -1.4251    Y=              0.4394    Z=             -1.0072  Tot=              1.7996
 Quadrupole moment (field-independent basis, Debye-Ang):
   XX=           -246.7313   YY=           -240.5723   ZZ=           -253.6316
   XY=             24.1929   XZ=             18.8743   YZ=             -6.4170

 Normal termination of Gaussian 16 at Mon Jul  1 16:01:54 2019.
