 Gaussian 16, Revision A.03,
 Gaussian 16:  ES64L-G16RevA.03 25-Dec-2016

 --------------------------
 # td=(NStates=1) B3LYP/SVP
 --------------------------

 --
 TD
 --
 Symbolic Z-matrix:
 Charge =  0 Multiplicity = 1

                         Standard orientation:
 ---------------------------------------------------------------------
 Center     Atomic      Atomic             Coordinates (Angstroms)
 Number     Number       Type             X           Y           Z
 ---------------------------------------------------------------------
      1          8           0        4.373507   -4.904053   -1.829958
      2          8           0       -2.740076   -4.933907   -1.055934
      3          8           0       -6.958432   -1.477391   -1.892248
      4          8           0       -3.778549   -3.246380   -0.043661
      5          8           0       -7.659594   -0.654837    0.101250
      6          8           0        3.050762    2.514672    0.505871
      7          7           0        0.272144   -0.440224    0.557291
      8          7           0       -1.491167    1.849647    0.401266
      9          7           0        3.385150   -3.136406   -0.734990
     10          7           0        0.733995    2.919713    0.207714
     11          6           0       -0.749494   -2.367463    1.319355
     12          6           0       -0.959553   -1.102325    0.931678
     13          6           0        0.707461   -2.564693    1.310955
     14          6           0        1.284146   -1.381252    0.682670
     15          6           0       -3.724102    1.508852    0.183817
     16          6           0       -2.478205    0.851490    0.509828
     17          6           0       -2.222635   -0.447073    0.834280
     18          6           0       -3.553754    2.847111   -0.172551
     19          6           0       -1.657005   -3.362772    2.045163
     20          6           0        5.548894   -2.707197   -1.412246
     21          6           0        3.649712   -1.795876   -0.207012
     22          6           0       -2.144257    3.024917   -0.077537
     23          6           0        5.005689   -1.596958   -0.582483
     24          6           0       -5.058306    0.775045    0.303126
     25          6           0        2.669628   -1.064725    0.367602
     26          6           0        1.549824   -3.798001    1.842702
     27          6           0        4.395521   -3.761485   -1.397890
     28          6           0       -2.054712   -4.556647    1.248583
     29          6           0       -5.404751   -0.151246   -0.892492
     30          6           0       -4.411479    3.870451   -0.636645
     31          6           0       -1.331721    4.061708   -0.232955
     32          6           0        6.824885   -3.351311   -1.038250
     33          6           0        5.680897   -0.578387   -0.054680
     34          6           0        0.132629    4.011946   -0.199817
     35          6           0        1.037859    5.170835   -0.460995
     36          6           0        2.311178    4.641366   -0.293320
     37          6           0       -2.893041   -4.158116    0.017824
     38          6           0        5.375932    0.688030    0.796438
     39          6           0       -6.852374   -0.843563   -0.806313
     40          6           0        3.592553    5.377805   -0.237031
     41          6           0        2.116017    3.281756    0.187045
     42          6           0        0.517290    6.517021   -0.854155
     43          6           0        4.231168    5.453822    1.151327
     44          1           0        0.463934    0.365181    0.180616
     45          1           0       -3.246135   -0.938471    1.120606
     46          1           0       -2.521755   -2.958174    2.468605
     47          1           0       -1.138163   -3.504570    2.985859
     48          1           0        5.750576   -2.267253   -2.451483
     49          1           0       -5.094384    0.094862    1.199936
     50          1           0       -6.108322    1.255760    0.304473
     51          1           0        2.857801   -0.047856    0.542993
     52          1           0       -0.570355    2.023015    0.835830
     53          1           0        1.618057   -4.609956    1.246126
     54          1           0        2.518916   -3.275153    2.080392
     55          1           0        0.891828   -3.913172    2.858013
     56          1           0        2.524909   -3.474935   -0.588874
     57          1           0       -1.354561   -5.464391    0.994481
     58          1           0       -2.969682   -5.025568    1.950782
     59          1           0       -4.661192   -1.148630   -1.139028
     60          1           0       -5.219594    0.312043   -1.839332
     61          1           0       -4.424899    4.541834    0.116252
     62          1           0       -5.593801    3.399640   -0.764033
     63          1           0       -4.145054    4.236304   -1.636521
     64          1           0       -1.809547    5.131616   -0.525324
     65          1           0        7.740026   -2.755161   -1.165816
     66          1           0        6.987695   -4.284018   -1.616362
     67          1           0        7.044150   -3.620271    0.025317
     68          1           0        6.772995   -0.566904   -0.275403
     69          1           0        4.884938    1.307924   -0.149866
     70          1           0        6.218421    0.986281    1.145704
     71          1           0        4.777525    0.522949    1.594108
     72          1           0        3.501474    6.348977   -0.803290
     73          1           0        4.129172    4.705453   -0.908985
     74          1           0       -0.037784    6.331117   -1.759311
     75          1           0        1.390860    7.270913   -1.113787
     76          1           0       -0.317383    7.016974   -0.124775
     77          1           0        3.536523    5.980591    1.832807
     78          1           0        5.357290    6.056544    1.077876
     79          1           0        4.282380    4.476631    1.341284
     80          1           0       -3.485794   -4.427554   -1.571940
     81          1           0       -7.968229   -1.774930   -1.825595
 ---------------------------------------------------------------------

 SCF Done:  E(RB3LYP) =  -1949.04285386     A.U. after   16 cycles

 Excitation energies and oscillator strengths:

 Excited State   1:      Singlet-A      1.7331 eV  715.37 nm  f=0.2499  <S**2>=0.000
     156 ->157         0.70604
     156 <-157        -0.11177
 This state for optimization and/or second-order correction.
 Total Energy, E(TD-HF/TD-DFT) =  -1948.97916215
 Copying the excited state density for this state as the 1-particle RhoCI density.

 The electronic state is 1-A.
 Alpha  occ. eigenvalues --  -19.21284 -19.20251 -19.13693 -19.12973 -19.11282
 Alpha  occ. eigenvalues --  -19.10379 -14.36444 -14.35593 -14.34067 -14.29661
 Alpha  occ. eigenvalues --  -10.33911 -10.32467 -10.28787 -10.27248 -10.24373
 Alpha  occ. eigenvalues --  -10.24009 -10.23476 -10.23398 -10.23069 -10.22801
 Alpha  occ. eigenvalues --  -10.22678 -10.21685 -10.21255 -10.21026 -10.20992
 Alpha  occ. eigenvalues --  -10.20946 -10.20734 -10.20599 -10.20556 -10.20452
 Alpha  occ. eigenvalues --  -10.20297 -10.19941 -10.19806 -10.19761 -10.19606
 Alpha  occ. eigenvalues --  -10.19246 -10.19240 -10.19047 -10.18953 -10.18532
 Alpha  occ. eigenvalues --  -10.18410 -10.18173 -10.17440  -1.13292  -1.11193
 Alpha  occ. eigenvalues --   -1.02513  -1.01026  -1.00987  -0.98794  -0.97022
 Alpha  occ. eigenvalues --   -0.95829  -0.94509  -0.92602  -0.83022  -0.82269
 Alpha  occ. eigenvalues --   -0.81998  -0.81375  -0.80332  -0.78939  -0.78046
 Alpha  occ. eigenvalues --   -0.76669  -0.76284  -0.75640  -0.74317  -0.72190
 Alpha  occ. eigenvalues --   -0.71471  -0.70466  -0.69732  -0.68792  -0.67427
 Alpha  occ. eigenvalues --   -0.66991  -0.65636  -0.64534  -0.62519  -0.61970
 Alpha  occ. eigenvalues --   -0.59939  -0.59187  -0.58830  -0.58027  -0.56624
 Alpha  occ. eigenvalues --   -0.55702  -0.55434  -0.54815  -0.53044  -0.52857
 Alpha  occ. eigenvalues --   -0.51960  -0.51173  -0.50728  -0.50610  -0.50150
 Alpha  occ. eigenvalues --   -0.49205  -0.49095  -0.48623  -0.48405  -0.47748
 Alpha  occ. eigenvalues --   -0.47341  -0.46938  -0.46763  -0.46370  -0.45371
 Alpha  occ. eigenvalues --   -0.45168  -0.45019  -0.44673  -0.44102  -0.43915
 Alpha  occ. eigenvalues --   -0.43501  -0.43327  -0.43211  -0.42939  -0.42314
 Alpha  occ. eigenvalues --   -0.42044  -0.41833  -0.41488  -0.41308  -0.41050
 Alpha  occ. eigenvalues --   -0.40742  -0.40285  -0.39901  -0.39748  -0.39592
 Alpha  occ. eigenvalues --   -0.39265  -0.38705  -0.38623  -0.37938  -0.37714
 Alpha  occ. eigenvalues --   -0.37503  -0.37434  -0.37117  -0.36738  -0.36528
 Alpha  occ. eigenvalues --   -0.36341  -0.35153  -0.34781  -0.34580  -0.34421
 Alpha  occ. eigenvalues --   -0.34268  -0.33887  -0.33096  -0.33047  -0.32685
 Alpha  occ. eigenvalues --   -0.32405  -0.31881  -0.31431  -0.30059  -0.29245
 Alpha  occ. eigenvalues --   -0.28799  -0.28166  -0.26597  -0.25852  -0.25498
 Alpha  occ. eigenvalues --   -0.25283  -0.24805  -0.24138  -0.23553  -0.21677
 Alpha  occ. eigenvalues --   -0.17629
 Alpha virt. eigenvalues --   -0.10564  -0.06134  -0.03873  -0.02593   0.00753
 Alpha virt. eigenvalues --    0.00924   0.01892   0.02363   0.03275   0.03387
 Alpha virt. eigenvalues --    0.04314   0.04463   0.04765   0.05310   0.06086

 Mulliken charges:
               1
     1  O   -0.218705
     2  O   -0.173191
     3  O   -0.119017
     4  O   -0.306491
     5  O   -0.257854
     6  O   -0.234308
     7  N   -0.043853
     8  N   -0.180430
     9  N   -0.095081
    10  N   -0.279481
    11  C   -0.118330
    12  C    0.148047
    13  C   -0.211777
    14  C    0.050461
    15  C   -0.023851
    16  C    0.077236
    17  C   -0.073206
    18  C   -0.077936
    19  C    0.165006
    20  C   -0.029300
    21  C    0.117902
    22  C    0.129523
    23  C    0.024322
    24  C    0.047052
    25  C   -0.108196
    26  C    0.071880
    27  C    0.150338
    28  C   -0.020667
    29  C   -0.137326
    30  C    0.094293
    31  C   -0.193555
    32  C    0.027908
    33  C   -0.246713
    34  C    0.045440
    35  C   -0.078580
    36  C   -0.187444
    37  C    0.152723
    38  C    0.199435
    39  C    0.148530
    40  C    0.079103
    41  C    0.157937
    42  C    0.041802
    43  C    0.023976
    44  H    0.058709
    45  H    0.035541
    46  H   -0.018680
    47  H    0.007625
    48  H    0.048875
    49  H    0.026741
    50  H    0.038151
    51  H   -0.021813
    52  H    0.156525
    53  H    0.030539
    54  H    0.045173
    55  H    0.034277
    56  H    0.071819
    57  H    0.063744
    58  H    0.067296
    59  H    0.062261
    60  H    0.015587
    61  H    0.008358
    62  H    0.031112
    63  H    0.041071
    64  H   -0.007414
    65  H    0.000464
    66  H    0.033230
    67  H    0.003574
    68  H   -0.010334
    69  H    0.097970
    70  H   -0.043302
    71  H    0.003626
    72  H   -0.006875
    73  H    0.003835
    74  H    0.026543
    75  H    0.039501
    76  H    0.054596
    77  H    0.020038
    78  H    0.033857
    79  H    0.005901
    80  H    0.202670
    81  H    0.201586
 Sum of Mulliken charges =  -0.00000

 Dipole moment (field-independent basis, Debye):
    X=             -2.8062    Y=              2.2362    Z=             -0.5368  Tot=              3.6282
 Quadrupole moment (field-independent basis, Debye-Ang):
   XX=           -247.1889   YY=           -244.5317   ZZ=           -251.7019
   XY=             19.0778   XZ=             17.6493   YZ=            -17.3835

 Normal termination of Gaussian 16 at Fri Jun 28 06:00:30 2019.
