 Gaussian 16, Revision A.03,
 Gaussian 16:  ES64L-G16RevA.03 25-Dec-2016

 --------------------------
 # td=(NStates=1) B3LYP/SVP
 --------------------------

 --
 TD
 --
 Symbolic Z-matrix:
 Charge =  0 Multiplicity = 1

                         Standard orientation:
 ---------------------------------------------------------------------
 Center     Atomic      Atomic             Coordinates (Angstroms)
 Number     Number       Type             X           Y           Z
 ---------------------------------------------------------------------
      1          8           0        4.271703   -4.797123   -1.940867
      2          8           0       -2.902638   -4.847932   -0.945011
      3          8           0       -6.741331   -1.678608   -1.954240
      4          8           0       -3.670131   -3.052396    0.034969
      5          8           0       -7.531336   -0.766192   -0.075924
      6          8           0        3.048119    2.394074    0.299499
      7          7           0        0.117147   -0.442268    0.596118
      8          7           0       -1.574871    1.856572    0.511471
      9          7           0        3.238686   -3.080962   -0.671264
     10          7           0        0.756292    2.911048    0.062363
     11          6           0       -0.676802   -2.404963    1.501496
     12          6           0       -0.981042   -1.109042    1.076769
     13          6           0        0.799187   -2.580570    1.230509
     14          6           0        1.250922   -1.372755    0.731441
     15          6           0       -3.860980    1.504224    0.216891
     16          6           0       -2.478413    0.837724    0.653554
     17          6           0       -2.275658   -0.474166    0.931596
     18          6           0       -3.558126    2.824826   -0.037819
     19          6           0       -1.510486   -3.403107    2.186569
     20          6           0        5.433246   -2.747036   -1.316061
     21          6           0        3.481664   -1.881519   -0.245954
     22          6           0       -2.086230    3.028929    0.008808
     23          6           0        4.884540   -1.610647   -0.589001
     24          6           0       -5.152685    0.839205    0.283973
     25          6           0        2.600826   -0.922480    0.338798
     26          6           0        1.624177   -3.647538    1.771991
     27          6           0        4.277023   -3.729185   -1.378901
     28          6           0       -1.988392   -4.395898    1.137531
     29          6           0       -5.248071   -0.133208   -0.906739
     30          6           0       -4.507058    3.841005   -0.550467
     31          6           0       -1.379244    4.144997   -0.219815
     32          6           0        6.764551   -3.524715   -0.829335
     33          6           0        5.704654   -0.591456   -0.148177
     34          6           0        0.149374    3.935112   -0.291468
     35          6           0        1.063621    5.122078   -0.420543
     36          6           0        2.295197    4.690541   -0.230934
     37          6           0       -2.980921   -3.971043    0.025445
     38          6           0        5.432409    0.517236    0.681424
     39          6           0       -6.664586   -0.812237   -0.896696
     40          6           0        3.625406    5.301902   -0.367881
     41          6           0        2.091205    3.228265    0.056191
     42          6           0        0.613803    6.528495   -0.666975
     43          6           0        4.384232    5.510385    1.021030
     44          1           0        0.052785    0.477781   -0.116863
     45          1           0       -3.168947   -1.219510    1.125118
     46          1           0       -2.367994   -2.812515    2.655010
     47          1           0       -0.818311   -3.938384    3.059408
     48          1           0        5.564138   -2.422953   -2.341115
     49          1           0       -5.148893    0.260353    1.121892
     50          1           0       -5.997250    1.378863    0.272309
     51          1           0        2.956183   -0.055333    0.267848
     52          1           0       -0.608992    2.001514    0.545139
     53          1           0        1.473610   -4.588714    1.090133
     54          1           0        2.703970   -3.587141    1.742515
     55          1           0        1.273483   -3.843087    2.851746
     56          1           0        2.303874   -3.439775   -0.938432
     57          1           0       -1.225966   -4.888776    0.590488
     58          1           0       -2.497081   -5.175670    1.737982
     59          1           0       -4.684759   -0.971374   -0.833019
     60          1           0       -5.262903    0.531553   -1.860976
     61          1           0       -4.356719    4.621209    0.192284
     62          1           0       -5.617336    3.646833   -0.414870
     63          1           0       -4.320684    4.128044   -1.604539
     64          1           0       -1.931167    5.142999   -0.648986
     65          1           0        7.661038   -2.931271   -1.388955
     66          1           0        6.911509   -4.565024   -1.260319
     67          1           0        6.674186   -3.381864    0.289296
     68          1           0        6.810907   -0.606481   -0.480461
     69          1           0        4.972792    1.467800    0.243234
     70          1           0        6.220522    1.034983    1.262833
     71          1           0        4.728459    0.263615    1.569418
     72          1           0        3.443038    6.252554   -0.951374
     73          1           0        4.304132    4.535136   -0.840018
     74          1           0       -0.286695    6.508430   -1.537578
     75          1           0        1.528737    7.042061   -0.983727
     76          1           0        0.186803    7.044635    0.144266
     77          1           0        3.770692    6.329554    1.635601
     78          1           0        5.385812    5.805844    0.853331
     79          1           0        4.215457    4.456721    1.447409
     80          1           0       -3.446119   -4.410820   -1.699145
     81          1           0       -7.722260   -2.077259   -2.178605
 ---------------------------------------------------------------------

 SCF Done:  E(RB3LYP) =  -1949.07652164     A.U. after   16 cycles

 Excitation energies and oscillator strengths:

 Excited State   1:      Singlet-A      1.4353 eV  863.82 nm  f=0.1491  <S**2>=0.000
     156 ->157         0.70557
 This state for optimization and/or second-order correction.
 Total Energy, E(TD-HF/TD-DFT) =  -1949.02377513
 Copying the excited state density for this state as the 1-particle RhoCI density.

 The electronic state is 1-A.
 Alpha  occ. eigenvalues --  -19.19736 -19.17557 -19.14215 -19.12739 -19.11889
 Alpha  occ. eigenvalues --  -19.11683 -14.36942 -14.36073 -14.35785 -14.31151
 Alpha  occ. eigenvalues --  -10.32549 -10.31676 -10.28972 -10.28396 -10.24705
 Alpha  occ. eigenvalues --  -10.24028 -10.23986 -10.23032 -10.22151 -10.21607
 Alpha  occ. eigenvalues --  -10.21591 -10.21037 -10.20799 -10.20709 -10.20687
 Alpha  occ. eigenvalues --  -10.20648 -10.20376 -10.20319 -10.20119 -10.20112
 Alpha  occ. eigenvalues --  -10.20002 -10.19983 -10.19447 -10.19435 -10.19404
 Alpha  occ. eigenvalues --  -10.19388 -10.19101 -10.18879 -10.18623 -10.18433
 Alpha  occ. eigenvalues --  -10.18372 -10.16904 -10.16689  -1.13460  -1.08040
 Alpha  occ. eigenvalues --   -1.04230  -1.04150  -1.01240  -0.99299  -0.98227
 Alpha  occ. eigenvalues --   -0.97477  -0.95242  -0.93874  -0.83029  -0.81833
 Alpha  occ. eigenvalues --   -0.81353  -0.81154  -0.80701  -0.78541  -0.77603
 Alpha  occ. eigenvalues --   -0.76208  -0.75666  -0.74887  -0.73600  -0.71669
 Alpha  occ. eigenvalues --   -0.70851  -0.70112  -0.68614  -0.68097  -0.66782
 Alpha  occ. eigenvalues --   -0.66569  -0.65026  -0.63572  -0.62626  -0.62381
 Alpha  occ. eigenvalues --   -0.60438  -0.59331  -0.58620  -0.57797  -0.56761
 Alpha  occ. eigenvalues --   -0.55398  -0.55093  -0.53955  -0.53298  -0.53052
 Alpha  occ. eigenvalues --   -0.52592  -0.51229  -0.51005  -0.50510  -0.50238
 Alpha  occ. eigenvalues --   -0.49392  -0.49112  -0.48264  -0.47638  -0.47161
 Alpha  occ. eigenvalues --   -0.46808  -0.46151  -0.45956  -0.45654  -0.45133
 Alpha  occ. eigenvalues --   -0.45011  -0.44729  -0.44126  -0.44057  -0.43783
 Alpha  occ. eigenvalues --   -0.43225  -0.43050  -0.42948  -0.42545  -0.42332
 Alpha  occ. eigenvalues --   -0.41905  -0.41763  -0.41728  -0.41320  -0.41045
 Alpha  occ. eigenvalues --   -0.40870  -0.40446  -0.40254  -0.39965  -0.39470
 Alpha  occ. eigenvalues --   -0.39046  -0.38723  -0.38505  -0.38183  -0.37846
 Alpha  occ. eigenvalues --   -0.37680  -0.37331  -0.36757  -0.36426  -0.36263
 Alpha  occ. eigenvalues --   -0.35734  -0.35612  -0.35327  -0.35004  -0.34675
 Alpha  occ. eigenvalues --   -0.34604  -0.34456  -0.34314  -0.33940  -0.33075
 Alpha  occ. eigenvalues --   -0.32926  -0.31931  -0.31266  -0.29826  -0.29389
 Alpha  occ. eigenvalues --   -0.28880  -0.27836  -0.26275  -0.26051  -0.25635
 Alpha  occ. eigenvalues --   -0.25466  -0.24878  -0.24188  -0.22977  -0.20980
 Alpha  occ. eigenvalues --   -0.16739
 Alpha virt. eigenvalues --   -0.10485  -0.05500  -0.03570  -0.00380   0.00743
 Alpha virt. eigenvalues --    0.00943   0.02053   0.02388   0.03227   0.03535
 Alpha virt. eigenvalues --    0.03968   0.04293   0.04523   0.05206   0.05847

 Mulliken charges:
               1
     1  O   -0.191267
     2  O   -0.175564
     3  O   -0.279448
     4  O   -0.153424
     5  O   -0.202185
     6  O   -0.252892
     7  N   -0.211208
     8  N   -0.043971
     9  N   -0.074731
    10  N   -0.172941
    11  C   -0.144724
    12  C    0.066918
    13  C   -0.164550
    14  C    0.113126
    15  C   -0.104981
    16  C    0.132717
    17  C   -0.130391
    18  C   -0.127804
    19  C    0.063424
    20  C   -0.032598
    21  C   -0.004043
    22  C    0.082327
    23  C   -0.050795
    24  C    0.263395
    25  C    0.113698
    26  C    0.064267
    27  C    0.093457
    28  C    0.030480
    29  C   -0.025965
    30  C    0.072496
    31  C   -0.161074
    32  C    0.002400
    33  C   -0.125800
    34  C    0.014632
    35  C   -0.149308
    36  C   -0.115750
    37  C    0.088101
    38  C    0.015779
    39  C    0.123472
    40  C    0.040019
    41  C    0.153816
    42  C    0.083716
    43  C   -0.038070
    44  H    0.196443
    45  H    0.049586
    46  H    0.024484
    47  H    0.034615
    48  H    0.031689
    49  H   -0.020873
    50  H   -0.038894
    51  H   -0.165912
    52  H    0.093610
    53  H    0.010938
    54  H    0.020928
    55  H    0.037182
    56  H    0.143709
    57  H    0.016103
    58  H    0.032180
    59  H    0.024454
    60  H    0.050239
    61  H    0.018721
    62  H    0.014377
    63  H    0.043036
    64  H    0.037912
    65  H    0.030471
    66  H    0.053136
    67  H    0.044047
    68  H    0.004249
    69  H    0.068664
    70  H   -0.009750
    71  H    0.027875
    72  H    0.010344
    73  H    0.027269
    74  H    0.035307
    75  H    0.012724
    76  H    0.026202
    77  H    0.024365
    78  H    0.021901
    79  H    0.052440
    80  H    0.201762
    81  H    0.229712
 Sum of Mulliken charges =  -0.00000

 Dipole moment (field-independent basis, Debye):
    X=             -2.9964    Y=              2.4571    Z=             -2.2474  Tot=              4.4796
 Quadrupole moment (field-independent basis, Debye-Ang):
   XX=           -250.7455   YY=           -238.1567   ZZ=           -252.4976
   XY=             13.8670   XZ=             16.7771   YZ=             -9.6019

 Normal termination of Gaussian 16 at Sat Jun 29 08:32:59 2019.
