 Gaussian 16, Revision A.03,
 Gaussian 16:  ES64L-G16RevA.03 25-Dec-2016

 --------------------------
 # td=(NStates=1) B3LYP/SVP
 --------------------------

 --
 TD
 --
 Symbolic Z-matrix:
 Charge =  0 Multiplicity = 1

                         Standard orientation:
 ---------------------------------------------------------------------
 Center     Atomic      Atomic             Coordinates (Angstroms)
 Number     Number       Type             X           Y           Z
 ---------------------------------------------------------------------
      1          8           0        4.431144   -4.887166   -1.648937
      2          8           0       -2.956980   -4.793606   -1.140785
      3          8           0       -6.873408   -1.615873   -1.896842
      4          8           0       -3.775143   -3.210070    0.195636
      5          8           0       -7.617831   -0.694961   -0.002355
      6          8           0        3.036113    2.398186    0.458954
      7          7           0        0.304831   -0.492150    0.765031
      8          7           0       -1.600329    1.914347    0.445944
      9          7           0        3.239531   -3.072104   -0.822188
     10          7           0        0.753896    2.874481    0.043638
     11          6           0       -0.621929   -2.427066    1.340992
     12          6           0       -0.977121   -1.030678    0.920220
     13          6           0        0.683566   -2.577734    1.137091
     14          6           0        1.259921   -1.445765    0.704365
     15          6           0       -3.768367    1.511084    0.273462
     16          6           0       -2.567458    0.917785    0.609301
     17          6           0       -2.171691   -0.465239    0.811387
     18          6           0       -3.645736    2.842168    0.016822
     19          6           0       -1.642125   -3.326898    1.989697
     20          6           0        5.534160   -2.781365   -1.258812
     21          6           0        3.589558   -1.840138   -0.286272
     22          6           0       -2.163268    3.130384    0.012078
     23          6           0        5.033064   -1.650202   -0.481338
     24          6           0       -5.022118    0.724603    0.378500
     25          6           0        2.644220   -1.043573    0.403573
     26          6           0        1.393450   -3.798668    1.630373
     27          6           0        4.378802   -3.793511   -1.192088
     28          6           0       -1.940002   -4.538409    1.034444
     29          6           0       -5.401873   -0.158837   -0.991144
     30          6           0       -4.602233    3.871446   -0.353260
     31          6           0       -1.353307    4.111065   -0.381519
     32          6           0        7.003425   -3.348708   -0.789392
     33          6           0        5.751250   -0.490912   -0.123999
     34          6           0        0.045071    3.976445   -0.146061
     35          6           0        1.044457    5.190368   -0.460139
     36          6           0        2.234741    4.733043   -0.237976
     37          6           0       -2.967005   -4.138992   -0.045367
     38          6           0        5.421080    0.758424    0.545829
     39          6           0       -6.729795   -0.722912   -0.841018
     40          6           0        3.622277    5.347659   -0.354390
     41          6           0        2.136353    3.178512    0.149173
     42          6           0        0.482797    6.547372   -0.855624
     43          6           0        4.490709    5.304514    0.997443
     44          1           0        0.625093    0.402150    0.382576
     45          1           0       -2.900068   -1.224326    1.062095
     46          1           0       -2.556086   -2.886291    2.086574
     47          1           0       -1.087527   -3.532791    2.891048
     48          1           0        5.454372   -2.548379   -2.388626
     49          1           0       -4.800092    0.004252    1.247977
     50          1           0       -5.979238    1.474133    0.728786
     51          1           0        2.647170   -0.012506    0.753363
     52          1           0       -0.560423    1.853340    0.344510
     53          1           0        1.644656   -4.534794    0.936338
     54          1           0        2.296716   -3.519722    2.234350
     55          1           0        0.800307   -4.246238    2.637068
     56          1           0        2.225658   -3.277880   -0.896815
     57          1           0       -1.101152   -5.094550    0.580819
     58          1           0       -2.461392   -5.340065    1.639964
     59          1           0       -4.814689   -0.991730   -1.217222
     60          1           0       -5.134658    0.385973   -1.852340
     61          1           0       -4.698706    4.816806    0.242690
     62          1           0       -5.539581    3.622121   -0.246457
     63          1           0       -4.404129    3.847401   -1.278832
     64          1           0       -1.688550    5.055059   -0.702477
     65          1           0        7.630337   -2.321921   -0.909523
     66          1           0        7.351055   -4.301220   -1.464429
     67          1           0        6.804038   -3.580207    0.257331
     68          1           0        6.702188   -0.493041   -0.678758
     69          1           0        4.984627    1.651337    0.170166
     70          1           0        6.375707    1.369459    0.628881
     71          1           0        5.062391    0.421498    1.642902
     72          1           0        3.419547    6.420729   -0.925200
     73          1           0        4.230532    4.796051   -1.181199
     74          1           0       -0.848111    6.204793   -1.366376
     75          1           0        1.307588    7.308296   -1.516871
     76          1           0        0.190102    7.088928    0.271392
     77          1           0        4.115714    6.013850    1.968614
     78          1           0        5.479826    5.882246    0.753353
     79          1           0        4.834963    4.231397    1.201795
     80          1           0       -3.561181   -4.561014   -1.841635
     81          1           0       -7.932917   -1.918820   -1.886288
 ---------------------------------------------------------------------

 SCF Done:  E(RB3LYP) =  -1948.94733656     A.U. after   17 cycles

 Excitation energies and oscillator strengths:

 Excited State   1:      Singlet-A      1.7075 eV  726.12 nm  f=0.3666  <S**2>=0.000
     156 ->157         0.71168
     156 <-157        -0.14330
 This state for optimization and/or second-order correction.
 Total Energy, E(TD-HF/TD-DFT) =  -1948.88458709
 Copying the excited state density for this state as the 1-particle RhoCI density.

 The electronic state is 1-A.
 Alpha  occ. eigenvalues --  -19.21261 -19.16752 -19.12895 -19.12424 -19.11708
 Alpha  occ. eigenvalues --  -19.11636 -14.37824 -14.37273 -14.33888 -14.29807
 Alpha  occ. eigenvalues --  -10.33967 -10.31495 -10.29695 -10.27876 -10.25245
 Alpha  occ. eigenvalues --  -10.25153 -10.23349 -10.23041 -10.22691 -10.22688
 Alpha  occ. eigenvalues --  -10.22463 -10.22189 -10.21966 -10.21640 -10.21601
 Alpha  occ. eigenvalues --  -10.21393 -10.20855 -10.20814 -10.20601 -10.20452
 Alpha  occ. eigenvalues --  -10.20360 -10.20241 -10.20161 -10.19916 -10.19667
 Alpha  occ. eigenvalues --  -10.19607 -10.19192 -10.18557 -10.18536 -10.18449
 Alpha  occ. eigenvalues --  -10.18329 -10.17750 -10.16648  -1.13541  -1.06856
 Alpha  occ. eigenvalues --   -1.05324  -1.01553  -1.00379  -0.99217  -0.97574
 Alpha  occ. eigenvalues --   -0.96383  -0.95722  -0.91243  -0.83227  -0.81808
 Alpha  occ. eigenvalues --   -0.81626  -0.81376  -0.79196  -0.78651  -0.77962
 Alpha  occ. eigenvalues --   -0.77414  -0.76441  -0.74560  -0.73783  -0.72286
 Alpha  occ. eigenvalues --   -0.72070  -0.70363  -0.69302  -0.68078  -0.66978
 Alpha  occ. eigenvalues --   -0.66045  -0.65415  -0.64668  -0.64046  -0.61507
 Alpha  occ. eigenvalues --   -0.60053  -0.59298  -0.58755  -0.57876  -0.56909
 Alpha  occ. eigenvalues --   -0.56060  -0.55269  -0.53869  -0.53579  -0.52891
 Alpha  occ. eigenvalues --   -0.51920  -0.51402  -0.50599  -0.49834  -0.49621
 Alpha  occ. eigenvalues --   -0.49320  -0.48853  -0.48571  -0.47964  -0.47577
 Alpha  occ. eigenvalues --   -0.47401  -0.46602  -0.46376  -0.45962  -0.45825
 Alpha  occ. eigenvalues --   -0.45613  -0.45044  -0.44570  -0.43986  -0.43329
 Alpha  occ. eigenvalues --   -0.43074  -0.42844  -0.42685  -0.42570  -0.42348
 Alpha  occ. eigenvalues --   -0.41807  -0.41730  -0.41017  -0.40711  -0.40672
 Alpha  occ. eigenvalues --   -0.40226  -0.39770  -0.39180  -0.39097  -0.38859
 Alpha  occ. eigenvalues --   -0.38643  -0.38331  -0.38235  -0.38041  -0.37587
 Alpha  occ. eigenvalues --   -0.37565  -0.37191  -0.36678  -0.36377  -0.36243
 Alpha  occ. eigenvalues --   -0.35776  -0.35118  -0.34868  -0.34581  -0.34355
 Alpha  occ. eigenvalues --   -0.34035  -0.33786  -0.33215  -0.33003  -0.32859
 Alpha  occ. eigenvalues --   -0.32173  -0.31763  -0.30899  -0.30124  -0.28663
 Alpha  occ. eigenvalues --   -0.27744  -0.27646  -0.27151  -0.26475  -0.26255
 Alpha  occ. eigenvalues --   -0.25238  -0.24352  -0.23915  -0.23603  -0.21666
 Alpha  occ. eigenvalues --   -0.16566
 Alpha virt. eigenvalues --   -0.09946  -0.05747  -0.04276  -0.01287  -0.00810
 Alpha virt. eigenvalues --   -0.00021   0.00479   0.02289   0.02700   0.03288
 Alpha virt. eigenvalues --    0.03685   0.04125   0.04855   0.05126   0.05476

 Mulliken charges:
               1
     1  O   -0.173161
     2  O   -0.093411
     3  O   -0.300883
     4  O   -0.283697
     5  O   -0.228546
     6  O   -0.217098
     7  N   -0.083268
     8  N   -0.161921
     9  N   -0.134005
    10  N   -0.316378
    11  C   -0.118171
    12  C    0.048645
    13  C   -0.144415
    14  C   -0.021108
    15  C   -0.058685
    16  C    0.103074
    17  C   -0.027522
    18  C   -0.155070
    19  C    0.212561
    20  C   -0.093615
    21  C    0.102918
    22  C    0.132871
    23  C   -0.046179
    24  C   -0.021643
    25  C   -0.079203
    26  C    0.042488
    27  C    0.120540
    28  C   -0.008645
    29  C    0.073002
    30  C    0.278215
    31  C   -0.110723
    32  C   -0.004874
    33  C   -0.121190
    34  C    0.056973
    35  C   -0.034553
    36  C   -0.153824
    37  C    0.108699
    38  C    0.076963
    39  C    0.175525
    40  C   -0.003402
    41  C    0.200293
    42  C   -0.127838
    43  C   -0.077338
    44  H    0.143177
    45  H   -0.010248
    46  H   -0.013344
    47  H    0.014735
    48  H    0.066272
    49  H    0.042571
    50  H    0.057348
    51  H    0.023094
    52  H    0.136255
    53  H    0.017442
    54  H    0.025590
    55  H    0.018622
    56  H    0.145368
    57  H    0.024309
    58  H    0.047512
    59  H    0.014899
    60  H    0.019950
    61  H    0.025912
    62  H   -0.074147
    63  H   -0.030744
    64  H   -0.063269
    65  H    0.047717
    66  H    0.072469
    67  H    0.033086
    68  H   -0.002114
    69  H    0.049986
    70  H   -0.011317
    71  H    0.054670
    72  H    0.006860
    73  H    0.028866
    74  H    0.062166
    75  H    0.077004
    76  H    0.071071
    77  H    0.046054
    78  H    0.016482
    79  H    0.064014
    80  H    0.195413
    81  H    0.223868
 Sum of Mulliken charges =  -0.00000

 Dipole moment (field-independent basis, Debye):
    X=             -0.6855    Y=             -0.8149    Z=             -1.9622  Tot=              2.2326
 Quadrupole moment (field-independent basis, Debye-Ang):
   XX=           -258.8358   YY=           -242.7313   ZZ=           -250.9323
   XY=             14.6547   XZ=             15.4276   YZ=             -6.1827

 Normal termination of Gaussian 16 at Thu Jun 27 13:19:15 2019.
