 Gaussian 16, Revision A.03,
 Gaussian 16:  ES64L-G16RevA.03 25-Dec-2016

 --------------------------
 # td=(NStates=1) B3LYP/SVP
 --------------------------

 --
 TD
 --
 Symbolic Z-matrix:
 Charge =  0 Multiplicity = 1

                         Standard orientation:
 ---------------------------------------------------------------------
 Center     Atomic      Atomic             Coordinates (Angstroms)
 Number     Number       Type             X           Y           Z
 ---------------------------------------------------------------------
      1          8           0       -4.399688   -4.784144    1.879476
      2          8           0        2.980587   -5.035655    1.090964
      3          8           0        6.980841   -1.516477    1.984357
      4          8           0        3.697891   -3.309542   -0.006739
      5          8           0        7.732772   -0.539980    0.067353
      6          8           0       -3.015563    2.575191   -0.371743
      7          7           0       -0.317293   -0.494330   -0.611378
      8          7           0        1.586633    1.735765   -0.278780
      9          7           0       -3.399161   -3.171286    0.639209
     10          7           0       -0.690141    3.041985   -0.201341
     11          6           0        0.569724   -2.418386   -1.409810
     12          6           0        0.820141   -1.061269   -1.055147
     13          6           0       -0.797608   -2.571703   -1.282170
     14          6           0       -1.346551   -1.365827   -0.718983
     15          6           0        3.792269    1.392527   -0.366239
     16          6           0        2.502990    0.790872   -0.529891
     17          6           0        2.188276   -0.450852   -0.925248
     18          6           0        3.615425    2.770434   -0.027147
     19          6           0        1.480775   -3.480061   -1.937575
     20          6           0       -5.628762   -2.726724    1.283415
     21          6           0       -3.672662   -1.710351    0.242021
     22          6           0        2.154974    2.996470   -0.031382
     23          6           0       -5.033699   -1.524557    0.465907
     24          6           0        5.006676    0.629763   -0.543077
     25          6           0       -2.696040   -0.959723   -0.422147
     26          6           0       -1.634879   -3.907409   -1.505892
     27          6           0       -4.432755   -3.701027    1.296302
     28          6           0        1.818071   -4.584431   -0.964655
     29          6           0        5.353783   -0.172688    0.773483
     30          6           0        4.688768    3.638179    0.406792
     31          6           0        1.393188    4.107994    0.307016
     32          6           0       -6.906488   -3.340714    0.692783
     33          6           0       -5.736867   -0.370478    0.120426
     34          6           0       -0.041699    4.047047    0.228379
     35          6           0       -0.823487    5.188600    0.386977
     36          6           0       -2.162039    4.706892    0.218855
     37          6           0        2.911176   -4.176072    0.037502
     38          6           0       -5.355887    0.772910   -0.629426
     39          6           0        6.802753   -0.736381    0.869860
     40          6           0       -3.491714    5.382730    0.461416
     41          6           0       -2.037481    3.271304   -0.181076
     42          6           0       -0.574451    6.592938    0.800083
     43          6           0       -4.300473    5.596035   -0.784373
     44          1           0       -0.525300    0.545198   -0.472365
     45          1           0        3.077344   -1.029680   -1.347729
     46          1           0        2.271659   -2.701637   -2.515316
     47          1           0        0.955814   -3.961811   -2.795615
     48          1           0       -5.847826   -2.577202    2.266301
     49          1           0        4.919863   -0.225138   -1.304119
     50          1           0        5.852236    1.342125   -0.861482
     51          1           0       -2.923911    0.074056   -0.523723
     52          1           0        0.788134    1.694837   -0.622379
     53          1           0       -1.328231   -4.813659   -1.008964
     54          1           0       -2.434976   -3.572914   -1.644596
     55          1           0       -0.961296   -4.289068   -2.468447
     56          1           0       -2.452413   -3.448321    0.631008
     57          1           0        0.895577   -4.891081   -0.497180
     58          1           0        2.401523   -5.588979   -1.546179
     59          1           0        4.459607   -0.909819    0.931621
     60          1           0        5.307293    0.578747    1.649906
     61          1           0        4.895587    4.652403   -0.247330
     62          1           0        5.810658    3.038269    0.397511
     63          1           0        4.404640    3.930614    1.460514
     64          1           0        2.070460    4.996850    0.539533
     65          1           0       -7.801169   -2.435327    0.921994
     66          1           0       -7.350099   -4.370625    1.141197
     67          1           0       -6.826929   -3.551591   -0.402328
     68          1           0       -6.692493   -0.346048    0.454079
     69          1           0       -4.765311    1.539500    0.185478
     70          1           0       -6.168364    1.461464   -0.980983
     71          1           0       -4.464111    0.734180   -1.520728
     72          1           0       -3.037778    6.515925    0.904778
     73          1           0       -4.105811    4.825045    1.256400
     74          1           0        0.145196    6.419084    1.635935
     75          1           0       -1.547089    7.093857    1.115405
     76          1           0        0.072100    6.724277   -0.138290
     77          1           0       -3.772957    6.392660   -1.539585
     78          1           0       -5.516317    5.633763   -1.052000
     79          1           0       -4.087982    4.560765   -1.204600
     80          1           0        3.708292   -4.945390    1.692089
     81          1           0        7.946705   -1.751657    1.865010
 ---------------------------------------------------------------------

 SCF Done:  E(RB3LYP) =  -1948.93969234     A.U. after   17 cycles

 Excitation energies and oscillator strengths:

 Excited State   1:      Singlet-A      1.5498 eV  800.02 nm  f=0.2109  <S**2>=0.000
     156 ->157         0.70752
     156 <-157        -0.10866
 This state for optimization and/or second-order correction.
 Total Energy, E(TD-HF/TD-DFT) =  -1948.88273978
 Copying the excited state density for this state as the 1-particle RhoCI density.

 The electronic state is 1-A.
 Alpha  occ. eigenvalues --  -19.19148 -19.17351 -19.13998 -19.13650 -19.11954
 Alpha  occ. eigenvalues --  -19.08827 -14.39027 -14.35894 -14.35633 -14.28686
 Alpha  occ. eigenvalues --  -10.33418 -10.33287 -10.27689 -10.27056 -10.25361
 Alpha  occ. eigenvalues --  -10.24617 -10.24435 -10.24194 -10.23715 -10.23500
 Alpha  occ. eigenvalues --  -10.23170 -10.23019 -10.22885 -10.22708 -10.22346
 Alpha  occ. eigenvalues --  -10.21692 -10.21654 -10.21387 -10.21375 -10.21312
 Alpha  occ. eigenvalues --  -10.20588 -10.20314 -10.20280 -10.20205 -10.20178
 Alpha  occ. eigenvalues --  -10.20042 -10.20030 -10.19978 -10.19748 -10.19722
 Alpha  occ. eigenvalues --  -10.19653 -10.19542 -10.18331  -1.11293  -1.09197
 Alpha  occ. eigenvalues --   -1.03186  -1.01874  -1.01390  -1.00656  -0.99647
 Alpha  occ. eigenvalues --   -0.99609  -0.95226  -0.92711  -0.83818  -0.83239
 Alpha  occ. eigenvalues --   -0.82183  -0.81806  -0.80024  -0.79412  -0.78041
 Alpha  occ. eigenvalues --   -0.77314  -0.76889  -0.75915  -0.74831  -0.73434
 Alpha  occ. eigenvalues --   -0.72318  -0.70454  -0.69437  -0.69044  -0.67743
 Alpha  occ. eigenvalues --   -0.67668  -0.66203  -0.64103  -0.62162  -0.61926
 Alpha  occ. eigenvalues --   -0.60347  -0.59523  -0.59283  -0.58544  -0.57635
 Alpha  occ. eigenvalues --   -0.56700  -0.55894  -0.55327  -0.54253  -0.53294
 Alpha  occ. eigenvalues --   -0.52979  -0.52895  -0.51921  -0.50554  -0.49718
 Alpha  occ. eigenvalues --   -0.49398  -0.49143  -0.48797  -0.48494  -0.48303
 Alpha  occ. eigenvalues --   -0.47804  -0.46944  -0.46602  -0.46175  -0.46125
 Alpha  occ. eigenvalues --   -0.45838  -0.45259  -0.44833  -0.44547  -0.44092
 Alpha  occ. eigenvalues --   -0.43792  -0.43489  -0.43104  -0.43022  -0.42679
 Alpha  occ. eigenvalues --   -0.42187  -0.42074  -0.41562  -0.41458  -0.41364
 Alpha  occ. eigenvalues --   -0.41243  -0.40650  -0.40540  -0.40226  -0.39844
 Alpha  occ. eigenvalues --   -0.39529  -0.39148  -0.38980  -0.38241  -0.38023
 Alpha  occ. eigenvalues --   -0.37856  -0.37426  -0.36923  -0.36431  -0.36356
 Alpha  occ. eigenvalues --   -0.35723  -0.35445  -0.35204  -0.34954  -0.34815
 Alpha  occ. eigenvalues --   -0.34294  -0.33915  -0.33483  -0.33247  -0.32965
 Alpha  occ. eigenvalues --   -0.32553  -0.32433  -0.30750  -0.29739  -0.29363
 Alpha  occ. eigenvalues --   -0.28860  -0.28469  -0.26649  -0.25937  -0.25758
 Alpha  occ. eigenvalues --   -0.25105  -0.23987  -0.23790  -0.22595  -0.22030
 Alpha  occ. eigenvalues --   -0.18212
 Alpha virt. eigenvalues --   -0.11642  -0.06920  -0.05304  -0.01460  -0.01147
 Alpha virt. eigenvalues --    0.01081   0.01863   0.02383   0.03055   0.03194
 Alpha virt. eigenvalues --    0.03626   0.04026   0.04697   0.04802   0.05396

 Mulliken charges:
               1
     1  O   -0.244261
     2  O   -0.201985
     3  O   -0.203004
     4  O   -0.173209
     5  O   -0.258111
     6  O   -0.212871
     7  N   -0.050133
     8  N    0.040738
     9  N   -0.124211
    10  N   -0.227391
    11  C   -0.110288
    12  C    0.011706
    13  C   -0.192383
    14  C    0.034887
    15  C   -0.054571
    16  C    0.035464
    17  C   -0.050200
    18  C   -0.060020
    19  C    0.037135
    20  C    0.034143
    21  C    0.084940
    22  C    0.059919
    23  C   -0.002599
    24  C    0.025465
    25  C   -0.096394
    26  C    0.222768
    27  C    0.099301
    28  C   -0.002018
    29  C   -0.067398
    30  C   -0.059307
    31  C   -0.152297
    32  C   -0.067692
    33  C   -0.035417
    34  C    0.102762
    35  C   -0.156962
    36  C   -0.193949
    37  C    0.111107
    38  C   -0.050417
    39  C    0.183646
    40  C    0.037781
    41  C    0.159499
    42  C    0.099644
    43  C   -0.091048
    44  H    0.168886
    45  H    0.018349
    46  H    0.049126
    47  H    0.020538
    48  H    0.004939
    49  H    0.040484
    50  H    0.038905
    51  H   -0.010289
    52  H    0.037334
    53  H    0.037955
    54  H   -0.067431
    55  H   -0.000754
    56  H    0.120698
    57  H    0.039072
    58  H    0.081048
    59  H    0.083202
    60  H    0.047957
    61  H    0.055634
    62  H    0.055264
    63  H    0.049736
    64  H   -0.004055
    65  H    0.032363
    66  H    0.059522
    67  H    0.028174
    68  H   -0.050535
    69  H    0.100230
    70  H    0.021314
    71  H    0.074052
    72  H   -0.000841
    73  H    0.040589
    74  H    0.026553
    75  H    0.049209
    76  H    0.049376
    77  H    0.023922
    78  H    0.042914
    79  H    0.029165
    80  H    0.175445
    81  H    0.189184
 Sum of Mulliken charges =  -0.00000

 Dipole moment (field-independent basis, Debye):
    X=              3.5447    Y=              1.2932    Z=             -0.2991  Tot=              3.7851
 Quadrupole moment (field-independent basis, Debye-Ang):
   XX=           -257.7056   YY=           -253.9236   ZZ=           -257.3883
   XY=            -15.9141   XZ=             14.7009   YZ=             14.7891

 Normal termination of Gaussian 16 at Mon Jul  1 00:05:16 2019.
