 Gaussian 16, Revision A.03,
 Gaussian 16:  ES64L-G16RevA.03 25-Dec-2016

 --------------------------
 # td=(NStates=1) B3LYP/SVP
 --------------------------

 --
 TD
 --
 Symbolic Z-matrix:
 Charge =  0 Multiplicity = 1

                         Standard orientation:
 ---------------------------------------------------------------------
 Center     Atomic      Atomic             Coordinates (Angstroms)
 Number     Number       Type             X           Y           Z
 ---------------------------------------------------------------------
      1          8           0        4.028549   -5.035227   -1.805573
      2          8           0       -3.264534   -4.912132   -1.031853
      3          8           0       -6.891088   -1.363410   -1.803565
      4          8           0       -3.735914   -3.011416    0.042200
      5          8           0       -7.494556   -0.476525    0.123142
      6          8           0        3.061633    2.316525    0.548922
      7          7           0        0.264503   -0.439739    0.634777
      8          7           0       -1.505744    1.954091    0.291043
      9          7           0        3.132354   -3.183703   -0.793338
     10          7           0        0.938204    2.946202   -0.012443
     11          6           0       -0.738048   -2.361759    1.443881
     12          6           0       -0.979161   -0.998376    1.032890
     13          6           0        0.662587   -2.549619    1.294159
     14          6           0        1.235340   -1.411713    0.741134
     15          6           0       -3.762037    1.642836    0.201972
     16          6           0       -2.514700    0.984040    0.500184
     17          6           0       -2.253433   -0.388292    0.894582
     18          6           0       -3.514140    2.956769   -0.235977
     19          6           0       -1.690512   -3.344929    2.017549
     20          6           0        5.424398   -2.902553   -1.418555
     21          6           0        3.396115   -1.921573   -0.327214
     22          6           0       -2.010166    3.064878   -0.156334
     23          6           0        4.846390   -1.657042   -0.561494
     24          6           0       -5.058064    0.971048    0.334212
     25          6           0        2.536155   -1.061942    0.253170
     26          6           0        1.441757   -3.743130    1.882143
     27          6           0        4.112468   -3.913851   -1.415103
     28          6           0       -2.269962   -4.541114    1.104546
     29          6           0       -5.268219    0.005442   -0.947079
     30          6           0       -4.422429    4.097952   -0.543164
     31          6           0       -1.147851    4.150869   -0.393837
     32          6           0        6.696544   -3.588659   -0.780695
     33          6           0        5.751736   -0.808459   -0.116989
     34          6           0        0.266032    4.052534   -0.242124
     35          6           0        1.229392    5.096761   -0.478395
     36          6           0        2.492424    4.548305   -0.204823
     37          6           0       -3.251073   -4.062788    0.000951
     38          6           0        5.573950    0.460226    0.605874
     39          6           0       -6.675289   -0.663146   -0.703803
     40          6           0        3.863342    5.170845   -0.265460
     41          6           0        2.280200    3.167763    0.094286
     42          6           0        0.805316    6.523871   -0.717395
     43          6           0        4.437720    5.278737    1.117550
     44          1           0        0.477609    0.396402    0.066427
     45          1           0       -3.074410   -0.877660    1.118171
     46          1           0       -2.451033   -2.799836    2.558136
     47          1           0       -1.134730   -3.849439    2.848665
     48          1           0        5.628334   -2.485586   -2.284800
     49          1           0       -5.212050    0.316165    1.336066
     50          1           0       -6.032386    1.479643    0.513792
     51          1           0        2.816338   -0.087907    0.297071
     52          1           0       -0.496319    2.102109    0.433061
     53          1           0        1.428689   -4.754341    1.307857
     54          1           0        2.439510   -3.350581    1.849805
     55          1           0        1.152386   -3.957249    2.742376
     56          1           0        2.119392   -3.587306   -0.801728
     57          1           0       -1.440829   -4.862396    0.603195
     58          1           0       -2.887595   -5.158458    1.625824
     59          1           0       -4.386253   -0.687654   -1.157280
     60          1           0       -5.302684    0.536858   -1.755181
     61          1           0       -4.230532    4.922906    0.132919
     62          1           0       -5.474089    3.836540   -0.606825
     63          1           0       -3.947259    4.588759   -1.367992
     64          1           0       -1.494290    5.203195   -0.506372
     65          1           0        7.604408   -2.995877   -0.945877
     66          1           0        6.970382   -4.580369   -1.357573
     67          1           0        6.444986   -3.909877    0.207223
     68          1           0        6.846640   -0.894972   -0.592347
     69          1           0        5.222393    1.251982    0.140635
     70          1           0        6.525210    0.891162    1.183522
     71          1           0        5.085620    0.413179    1.753471
     72          1           0        3.828144    6.186975   -0.748881
     73          1           0        4.421624    4.408965   -0.760016
     74          1           0        0.324062    6.327073   -1.660779
     75          1           0        1.695456    7.172573   -0.738292
     76          1           0       -0.061560    6.969461    0.020101
     77          1           0        3.787542    5.886932    1.823104
     78          1           0        5.414578    5.635795    1.092298
     79          1           0        4.691538    4.347610    1.524584
     80          1           0       -4.009938   -4.857092   -1.568740
     81          1           0       -7.707509   -1.781727   -1.815921
 ---------------------------------------------------------------------

 SCF Done:  E(RB3LYP) =  -1949.09279080     A.U. after   19 cycles

 Excitation energies and oscillator strengths:

 Excited State   1:      Singlet-A      1.8293 eV  677.77 nm  f=0.3349  <S**2>=0.000
     156 ->157         0.70553
     156 <-157        -0.12098
 This state for optimization and/or second-order correction.
 Total Energy, E(TD-HF/TD-DFT) =  -1949.02556532
 Copying the excited state density for this state as the 1-particle RhoCI density.

 The electronic state is 1-A.
 Alpha  occ. eigenvalues --  -19.19164 -19.17966 -19.14315 -19.13509 -19.11783
 Alpha  occ. eigenvalues --  -19.09477 -14.37913 -14.37353 -14.35447 -14.27063
 Alpha  occ. eigenvalues --  -10.32931 -10.32280 -10.29685 -10.25058 -10.24496
 Alpha  occ. eigenvalues --  -10.23661 -10.23544 -10.23501 -10.23057 -10.21477
 Alpha  occ. eigenvalues --  -10.21080 -10.20968 -10.20734 -10.20577 -10.20452
 Alpha  occ. eigenvalues --  -10.20358 -10.20289 -10.19994 -10.19981 -10.19975
 Alpha  occ. eigenvalues --  -10.19888 -10.19826 -10.19347 -10.19341 -10.19155
 Alpha  occ. eigenvalues --  -10.19115 -10.18682 -10.18407 -10.18171 -10.17786
 Alpha  occ. eigenvalues --  -10.17754 -10.17732 -10.15954  -1.12662  -1.11930
 Alpha  occ. eigenvalues --   -1.04832  -1.04762  -1.02846  -1.00127  -0.98660
 Alpha  occ. eigenvalues --   -0.97127  -0.95637  -0.92160  -0.82357  -0.81816
 Alpha  occ. eigenvalues --   -0.80817  -0.80299  -0.79130  -0.78419  -0.77746
 Alpha  occ. eigenvalues --   -0.76928  -0.76207  -0.75110  -0.73848  -0.72683
 Alpha  occ. eigenvalues --   -0.71874  -0.69628  -0.69403  -0.68731  -0.67985
 Alpha  occ. eigenvalues --   -0.67026  -0.65319  -0.63984  -0.63414  -0.62506
 Alpha  occ. eigenvalues --   -0.62152  -0.61059  -0.59826  -0.58676  -0.56943
 Alpha  occ. eigenvalues --   -0.56195  -0.55994  -0.55239  -0.52973  -0.52779
 Alpha  occ. eigenvalues --   -0.52408  -0.52152  -0.51332  -0.50342  -0.50099
 Alpha  occ. eigenvalues --   -0.49750  -0.48832  -0.48573  -0.48193  -0.47760
 Alpha  occ. eigenvalues --   -0.47432  -0.46291  -0.45938  -0.45543  -0.45163
 Alpha  occ. eigenvalues --   -0.44955  -0.44536  -0.44394  -0.44104  -0.43822
 Alpha  occ. eigenvalues --   -0.43476  -0.43182  -0.43091  -0.42871  -0.42584
 Alpha  occ. eigenvalues --   -0.41998  -0.41883  -0.41623  -0.41495  -0.41364
 Alpha  occ. eigenvalues --   -0.40920  -0.40254  -0.39822  -0.39795  -0.39743
 Alpha  occ. eigenvalues --   -0.39485  -0.39340  -0.38889  -0.38661  -0.38369
 Alpha  occ. eigenvalues --   -0.38214  -0.38012  -0.37908  -0.37833  -0.37324
 Alpha  occ. eigenvalues --   -0.36553  -0.36185  -0.36088  -0.35734  -0.35013
 Alpha  occ. eigenvalues --   -0.34419  -0.34260  -0.33892  -0.32930  -0.32390
 Alpha  occ. eigenvalues --   -0.32167  -0.32134  -0.29881  -0.29537  -0.29341
 Alpha  occ. eigenvalues --   -0.29130  -0.26842  -0.25861  -0.25787  -0.25402
 Alpha  occ. eigenvalues --   -0.25198  -0.24062  -0.23561  -0.22408  -0.21128
 Alpha  occ. eigenvalues --   -0.17512
 Alpha virt. eigenvalues --   -0.10224  -0.06231  -0.03766   0.00060   0.00773
 Alpha virt. eigenvalues --    0.01051   0.02314   0.03490   0.04013   0.04373
 Alpha virt. eigenvalues --    0.05013   0.05360   0.05780   0.05925   0.06541

 Mulliken charges:
               1
     1  O   -0.176585
     2  O   -0.153934
     3  O   -0.133478
     4  O   -0.152259
     5  O   -0.191281
     6  O   -0.229829
     7  N   -0.107387
     8  N   -0.035894
     9  N   -0.125814
    10  N   -0.278480
    11  C   -0.093755
    12  C    0.108126
    13  C   -0.211222
    14  C    0.089855
    15  C   -0.011545
    16  C    0.053124
    17  C    0.067167
    18  C   -0.151249
    19  C    0.081794
    20  C   -0.088395
    21  C    0.114085
    22  C    0.035674
    23  C    0.002621
    24  C   -0.046382
    25  C   -0.043406
    26  C    0.184750
    27  C    0.139334
    28  C    0.121824
    29  C    0.027952
    30  C    0.187195
    31  C   -0.114096
    32  C    0.045274
    33  C   -0.151114
    34  C    0.026190
    35  C   -0.117398
    36  C   -0.181563
    37  C    0.061323
    38  C    0.040977
    39  C    0.128980
    40  C    0.128286
    41  C    0.126272
    42  C    0.055767
    43  C    0.039506
    44  H    0.151340
    45  H   -0.089295
    46  H    0.002385
    47  H    0.003929
    48  H   -0.007556
    49  H    0.034992
    50  H    0.019617
    51  H   -0.046311
    52  H    0.130325
    53  H    0.021964
    54  H    0.018145
    55  H   -0.055567
    56  H    0.162735
    57  H    0.009054
    58  H    0.011180
    59  H    0.058770
    60  H   -0.024448
    61  H    0.002992
    62  H    0.026681
    63  H   -0.004199
    64  H   -0.026827
    65  H    0.021141
    66  H    0.031009
    67  H    0.016975
    68  H    0.025656
    69  H    0.012781
    70  H   -0.004528
    71  H    0.036710
    72  H   -0.000220
    73  H   -0.003487
    74  H    0.027522
    75  H    0.020918
    76  H    0.053511
    77  H    0.017078
    78  H   -0.026734
    79  H    0.001730
    80  H    0.159297
    81  H    0.139722
 Sum of Mulliken charges =  -0.00000

 Dipole moment (field-independent basis, Debye):
    X=             -4.2690    Y=             -0.8056    Z=             -1.1487  Tot=              4.4936
 Quadrupole moment (field-independent basis, Debye-Ang):
   XX=           -240.8193   YY=           -238.4795   ZZ=           -253.3073
   XY=             21.7644   XZ=             13.2749   YZ=            -10.9590

 Normal termination of Gaussian 16 at Wed Jun 26 21:03:32 2019.
