 Gaussian 16, Revision A.03,
 Gaussian 16:  ES64L-G16RevA.03 25-Dec-2016

 --------------------------
 # td=(NStates=1) B3LYP/SVP
 --------------------------

 --
 TD
 --
 Symbolic Z-matrix:
 Charge =  0 Multiplicity = 1

                         Standard orientation:
 ---------------------------------------------------------------------
 Center     Atomic      Atomic             Coordinates (Angstroms)
 Number     Number       Type             X           Y           Z
 ---------------------------------------------------------------------
      1          8           0        4.139486   -4.828116   -1.923617
      2          8           0       -3.247524   -4.918558   -0.924780
      3          8           0       -6.979619   -1.671290   -1.821892
      4          8           0       -3.718080   -3.065844    0.039773
      5          8           0       -7.652910   -0.228671   -0.135686
      6          8           0        2.940865    2.305375    0.456824
      7          7           0        0.265921   -0.548303    0.469262
      8          7           0       -1.584299    1.894092    0.340414
      9          7           0        3.336618   -3.080802   -0.644022
     10          7           0        0.758736    2.945701    0.064313
     11          6           0       -0.623109   -2.425647    1.417903
     12          6           0       -0.898491   -1.137437    0.916192
     13          6           0        0.826300   -2.608055    1.279584
     14          6           0        1.311313   -1.490355    0.661548
     15          6           0       -3.822687    1.555488    0.283053
     16          6           0       -2.544323    0.949839    0.616762
     17          6           0       -2.182188   -0.397423    0.911713
     18          6           0       -3.559039    2.899885   -0.125559
     19          6           0       -1.577974   -3.396368    2.027658
     20          6           0        5.520001   -2.824858   -1.338647
     21          6           0        3.661836   -1.798900   -0.248855
     22          6           0       -2.111553    3.077956   -0.084035
     23          6           0        5.117964   -1.568319   -0.527262
     24          6           0       -5.140342    0.823417    0.359127
     25          6           0        2.589460   -0.988094    0.302790
     26          6           0        1.502881   -3.809370    1.835010
     27          6           0        4.287084   -3.751164   -1.341875
     28          6           0       -2.096876   -4.521663    1.090736
     29          6           0       -5.377841   -0.181220   -0.730940
     30          6           0       -4.470279    3.961709   -0.531373
     31          6           0       -1.324952    4.174738   -0.332112
     32          6           0        6.784879   -3.524719   -0.910091
     33          6           0        5.885524   -0.528099   -0.228001
     34          6           0        0.103884    4.058705   -0.323139
     35          6           0        1.091689    5.154726   -0.490675
     36          6           0        2.392640    4.589454   -0.136441
     37          6           0       -3.060376   -4.141192    0.056473
     38          6           0        5.506254    0.684501    0.536702
     39          6           0       -6.816524   -0.735961   -0.842219
     40          6           0        3.702706    5.182587   -0.151783
     41          6           0        2.127180    3.109433    0.175987
     42          6           0        0.825697    6.574267   -0.830229
     43          6           0        4.358532    5.261574    1.334651
     44          1           0        0.444300    0.352072    0.235415
     45          1           0       -3.019163   -0.906659    1.033722
     46          1           0       -2.390985   -2.930289    2.402023
     47          1           0       -0.946023   -3.959734    2.887759
     48          1           0        5.583905   -2.434233   -2.333914
     49          1           0       -5.082671    0.283152    1.333923
     50          1           0       -6.093147    1.181457    0.450804
     51          1           0        2.822279    0.074981    0.544884
     52          1           0       -0.466324    2.170352    0.384963
     53          1           0        1.509215   -4.727088    1.109953
     54          1           0        2.614060   -3.383162    1.914603
     55          1           0        1.099433   -4.158857    2.788984
     56          1           0        2.370759   -3.261764   -0.735310
     57          1           0       -1.383341   -5.301696    0.657972
     58          1           0       -2.550345   -5.359277    1.680966
     59          1           0       -4.657050   -0.994146   -0.647664
     60          1           0       -4.979206    0.440607   -1.665104
     61          1           0       -4.369160    4.795705    0.077469
     62          1           0       -5.651207    3.679823   -0.200708
     63          1           0       -4.619537    4.140128   -1.698560
     64          1           0       -1.914909    5.191818   -0.778167
     65          1           0        7.695513   -2.906132   -1.053403
     66          1           0        6.745854   -4.335397   -1.533991
     67          1           0        6.758763   -3.917796    0.254185
     68          1           0        6.758339   -0.572859   -0.596537
     69          1           0        5.047272    1.260988   -0.323404
     70          1           0        6.417943    1.274641    0.832395
     71          1           0        4.721600    0.644391    1.436259
     72          1           0        3.658654    6.181649   -0.719445
     73          1           0        4.491621    4.695579   -0.832650
     74          1           0        0.647804    6.574109   -2.070435
     75          1           0        1.730581    7.157441   -0.773650
     76          1           0        0.266102    7.113739   -0.275190
     77          1           0        3.784946    5.944258    1.983743
     78          1           0        5.361554    5.529189    1.161239
     79          1           0        4.474789    4.175796    1.450171
     80          1           0       -4.093677   -4.484036   -1.537491
     81          1           0       -8.020753   -1.823356   -1.776486
 ---------------------------------------------------------------------

 SCF Done:  E(RB3LYP) =  -1949.07158879     A.U. after   16 cycles

 Excitation energies and oscillator strengths:

 Excited State   1:      Singlet-A      1.7105 eV  724.84 nm  f=0.2779  <S**2>=0.000
     156 ->157         0.70470
     156 <-157        -0.10416
 This state for optimization and/or second-order correction.
 Total Energy, E(TD-HF/TD-DFT) =  -1949.00872882
 Copying the excited state density for this state as the 1-particle RhoCI density.

 The electronic state is 1-A.
 Alpha  occ. eigenvalues --  -19.20474 -19.20085 -19.13567 -19.11803 -19.11143
 Alpha  occ. eigenvalues --  -19.10832 -14.36780 -14.36097 -14.33492 -14.29336
 Alpha  occ. eigenvalues --  -10.32648 -10.32647 -10.29013 -10.27016 -10.24569
 Alpha  occ. eigenvalues --  -10.23622 -10.23524 -10.23404 -10.22775 -10.22754
 Alpha  occ. eigenvalues --  -10.22692 -10.21739 -10.20985 -10.20840 -10.20795
 Alpha  occ. eigenvalues --  -10.20514 -10.20449 -10.20287 -10.20163 -10.19906
 Alpha  occ. eigenvalues --  -10.19897 -10.19687 -10.19671 -10.19595 -10.19440
 Alpha  occ. eigenvalues --  -10.19128 -10.19106 -10.19101 -10.18947 -10.18868
 Alpha  occ. eigenvalues --  -10.18403 -10.18246 -10.17963  -1.12186  -1.09358
 Alpha  occ. eigenvalues --   -1.04353  -1.02869  -1.01581  -0.98053  -0.97369
 Alpha  occ. eigenvalues --   -0.96469  -0.95712  -0.91895  -0.82436  -0.82097
 Alpha  occ. eigenvalues --   -0.81367  -0.80260  -0.79086  -0.78817  -0.77899
 Alpha  occ. eigenvalues --   -0.76764  -0.76576  -0.75220  -0.73798  -0.72054
 Alpha  occ. eigenvalues --   -0.70247  -0.69674  -0.69479  -0.68384  -0.67563
 Alpha  occ. eigenvalues --   -0.65992  -0.65736  -0.64882  -0.62461  -0.61641
 Alpha  occ. eigenvalues --   -0.60822  -0.58868  -0.58556  -0.58184  -0.56751
 Alpha  occ. eigenvalues --   -0.55686  -0.54992  -0.54658  -0.54027  -0.53462
 Alpha  occ. eigenvalues --   -0.52362  -0.52091  -0.51010  -0.50188  -0.49353
 Alpha  occ. eigenvalues --   -0.49251  -0.49063  -0.48831  -0.47667  -0.47589
 Alpha  occ. eigenvalues --   -0.47088  -0.46708  -0.46293  -0.45451  -0.45048
 Alpha  occ. eigenvalues --   -0.44667  -0.44483  -0.44097  -0.43691  -0.43566
 Alpha  occ. eigenvalues --   -0.43187  -0.43071  -0.42830  -0.42669  -0.42252
 Alpha  occ. eigenvalues --   -0.41950  -0.41742  -0.41581  -0.41232  -0.41085
 Alpha  occ. eigenvalues --   -0.40726  -0.40571  -0.40391  -0.40141  -0.39770
 Alpha  occ. eigenvalues --   -0.39492  -0.39247  -0.38543  -0.38462  -0.38051
 Alpha  occ. eigenvalues --   -0.37440  -0.37298  -0.36923  -0.36357  -0.36010
 Alpha  occ. eigenvalues --   -0.35789  -0.35661  -0.35270  -0.34542  -0.34197
 Alpha  occ. eigenvalues --   -0.33999  -0.33881  -0.33656  -0.33378  -0.33115
 Alpha  occ. eigenvalues --   -0.32446  -0.31832  -0.31383  -0.29279  -0.28694
 Alpha  occ. eigenvalues --   -0.27964  -0.27897  -0.26296  -0.25815  -0.25168
 Alpha  occ. eigenvalues --   -0.24574  -0.24167  -0.24041  -0.22072  -0.21155
 Alpha  occ. eigenvalues --   -0.17745
 Alpha virt. eigenvalues --   -0.10673  -0.06119  -0.04293  -0.00958  -0.00409
 Alpha virt. eigenvalues --   -0.00232   0.00561   0.02255   0.02732   0.03218
 Alpha virt. eigenvalues --    0.03974   0.04477   0.05099   0.05397   0.06588

 Mulliken charges:
               1
     1  O   -0.229309
     2  O   -0.177605
     3  O   -0.220863
     4  O   -0.300172
     5  O   -0.223838
     6  O   -0.167326
     7  N   -0.044898
     8  N   -0.167344
     9  N   -0.052737
    10  N   -0.324938
    11  C   -0.111418
    12  C    0.100062
    13  C   -0.138613
    14  C    0.087243
    15  C   -0.036720
    16  C    0.038379
    17  C    0.068600
    18  C   -0.102763
    19  C    0.181006
    20  C   -0.063031
    21  C    0.008877
    22  C    0.047367
    23  C    0.018475
    24  C    0.128775
    25  C   -0.144583
    26  C    0.023479
    27  C    0.121148
    28  C   -0.001009
    29  C   -0.077999
    30  C    0.023291
    31  C   -0.139162
    32  C    0.059158
    33  C   -0.068910
    34  C    0.086940
    35  C   -0.123380
    36  C   -0.139491
    37  C    0.113031
    38  C    0.037801
    39  C    0.180244
    40  C   -0.050613
    41  C    0.172175
    42  C    0.157580
    43  C    0.034040
    44  H    0.078618
    45  H   -0.086731
    46  H   -0.017066
    47  H    0.019197
    48  H    0.030841
    49  H    0.001131
    50  H   -0.023911
    51  H    0.033668
    52  H    0.199321
    53  H    0.041976
    54  H    0.050432
    55  H    0.023931
    56  H    0.121941
    57  H    0.026534
    58  H    0.038958
    59  H    0.042213
    60  H    0.047438
    61  H    0.014948
    62  H    0.019906
    63  H    0.055850
    64  H    0.038735
    65  H    0.023697
    66  H    0.010735
    67  H    0.033730
    68  H   -0.109535
    69  H    0.058563
    70  H    0.011093
    71  H    0.076862
    72  H   -0.003743
    73  H    0.019870
    74  H    0.040510
    75  H   -0.019623
    76  H   -0.023162
    77  H    0.040423
    78  H   -0.012116
    79  H    0.035162
    80  H    0.266761
    81  H    0.211896
 Sum of Mulliken charges =  -0.00000

 Dipole moment (field-independent basis, Debye):
    X=             -1.9344    Y=              0.1497    Z=             -0.4227  Tot=              1.9857
 Quadrupole moment (field-independent basis, Debye-Ang):
   XX=           -239.8252   YY=           -237.9353   ZZ=           -254.2513
   XY=             27.7346   XZ=             12.2113   YZ=            -15.0900

 Normal termination of Gaussian 16 at Wed Jul  3 20:39:37 2019.
