 Gaussian 16, Revision A.03,
 Gaussian 16:  ES64L-G16RevA.03 25-Dec-2016

 --------------------------
 # td=(NStates=1) B3LYP/SVP
 --------------------------

 --
 TD
 --
 Symbolic Z-matrix:
 Charge =  0 Multiplicity = 1

                         Standard orientation:
 ---------------------------------------------------------------------
 Center     Atomic      Atomic             Coordinates (Angstroms)
 Number     Number       Type             X           Y           Z
 ---------------------------------------------------------------------
      1          8           0        4.524602   -4.831456   -1.665862
      2          8           0       -2.668798   -4.809203   -1.313476
      3          8           0       -7.119865   -1.903944   -1.540106
      4          8           0       -3.724598   -3.323659    0.019542
      5          8           0       -7.696651   -0.729964    0.406071
      6          8           0        2.952699    2.628965    0.421992
      7          7           0        0.338479   -0.442575    0.468896
      8          7           0       -1.664267    1.751433    0.326508
      9          7           0        3.475543   -2.976681   -0.707226
     10          7           0        0.725389    2.865428    0.064893
     11          6           0       -0.478485   -2.320929    1.355416
     12          6           0       -0.837214   -1.118549    0.836747
     13          6           0        0.832537   -2.573135    1.191870
     14          6           0        1.393740   -1.373749    0.660950
     15          6           0       -3.856346    1.426167    0.183653
     16          6           0       -2.562983    0.769235    0.467903
     17          6           0       -2.241026   -0.512670    0.703910
     18          6           0       -3.673471    2.672137   -0.107427
     19          6           0       -1.483202   -3.421456    1.982566
     20          6           0        5.703692   -2.742919   -1.226356
     21          6           0        3.616093   -1.686242   -0.302009
     22          6           0       -2.220053    2.964309   -0.125165
     23          6           0        5.159268   -1.593191   -0.435961
     24          6           0       -5.122964    0.640950    0.470931
     25          6           0        2.670783   -0.935705    0.209296
     26          6           0        1.677668   -3.667952    1.742237
     27          6           0        4.538010   -3.641868   -1.282898
     28          6           0       -1.762972   -4.532472    0.900772
     29          6           0       -5.651732   -0.119152   -0.804534
     30          6           0       -4.726741    3.659736   -0.482728
     31          6           0       -1.403659    4.141616   -0.385935
     32          6           0        6.888767   -3.334943   -0.658184
     33          6           0        5.872810   -0.414353   -0.114974
     34          6           0       -0.025278    4.025128   -0.297931
     35          6           0        0.908293    5.170644   -0.585341
     36          6           0        2.192292    4.730908   -0.184575
     37          6           0       -2.845325   -4.100467   -0.164849
     38          6           0        5.485199    0.768376    0.803409
     39          6           0       -7.010415   -0.885867   -0.632893
     40          6           0        3.529468    5.453182   -0.338173
     41          6           0        2.033042    3.263970    0.117107
     42          6           0        0.478297    6.586468   -0.862881
     43          6           0        4.110233    5.714226    1.040272
     44          1           0        0.352726    0.461942    0.106110
     45          1           0       -3.020625   -1.204160    0.771336
     46          1           0       -2.326686   -3.020886    2.269672
     47          1           0       -0.965705   -4.025371    2.733612
     48          1           0        5.691756   -2.423297   -2.173620
     49          1           0       -5.057589   -0.301570    1.152355
     50          1           0       -6.074951    1.231276    0.674797
     51          1           0        2.805987    0.026337    0.436267
     52          1           0       -0.541111    1.775581    0.389520
     53          1           0        1.499742   -4.571412    1.238898
     54          1           0        2.848298   -3.231535    1.761538
     55          1           0        1.371455   -4.062504    2.634610
     56          1           0        2.535981   -3.279090   -0.734621
     57          1           0       -0.760754   -4.964566    0.455777
     58          1           0       -2.276456   -5.478375    1.383708
     59          1           0       -4.970373   -0.907669   -1.227568
     60          1           0       -5.821797    0.361084   -1.943280
     61          1           0       -4.723118    4.379534    0.242071
     62          1           0       -5.769109    3.154892   -0.346468
     63          1           0       -4.717307    4.018151   -1.413493
     64          1           0       -1.816286    5.027933   -0.537560
     65          1           0        7.945179   -2.912605   -0.823409
     66          1           0        6.931541   -4.380943   -1.152501
     67          1           0        6.782646   -3.461878    0.505624
     68          1           0        6.848520   -0.319137   -0.491370
     69          1           0        4.741735    1.480892    0.334216
     70          1           0        6.483993    1.318600    1.097574
     71          1           0        4.825536    0.616976    1.769017
     72          1           0        3.419334    6.304997   -0.865845
     73          1           0        4.125336    4.665562   -0.760366
     74          1           0       -0.023940    6.542769   -1.633892
     75          1           0        1.253279    7.300346   -1.232347
     76          1           0       -0.316174    6.845361   -0.051865
     77          1           0        3.448535    6.312453    1.837043
     78          1           0        5.062224    6.143069    1.296199
     79          1           0        4.017178    4.638697    1.623101
     80          1           0       -3.337049   -4.495438   -1.783694
     81          1           0       -7.867036   -2.263759   -1.283265
 ---------------------------------------------------------------------

 SCF Done:  E(RB3LYP) =  -1949.00964742     A.U. after   16 cycles

 Excitation energies and oscillator strengths:

 Excited State   1:      Singlet-A      1.8353 eV  675.54 nm  f=0.3020  <S**2>=0.000
     156 ->157         0.70684
 This state for optimization and/or second-order correction.
 Total Energy, E(TD-HF/TD-DFT) =  -1948.94220040
 Copying the excited state density for this state as the 1-particle RhoCI density.

 The electronic state is 1-A.
 Alpha  occ. eigenvalues --  -19.19424 -19.19074 -19.15379 -19.13826 -19.10745
 Alpha  occ. eigenvalues --  -19.10133 -14.37077 -14.36742 -14.36648 -14.29482
 Alpha  occ. eigenvalues --  -10.33913 -10.33496 -10.29106 -10.26028 -10.25878
 Alpha  occ. eigenvalues --  -10.23993 -10.23628 -10.23345 -10.23319 -10.23226
 Alpha  occ. eigenvalues --  -10.23215 -10.22579 -10.22502 -10.21661 -10.20955
 Alpha  occ. eigenvalues --  -10.20649 -10.20552 -10.20326 -10.20211 -10.20081
 Alpha  occ. eigenvalues --  -10.19586 -10.19551 -10.19549 -10.19266 -10.19249
 Alpha  occ. eigenvalues --  -10.19171 -10.18989 -10.18988 -10.18884 -10.18788
 Alpha  occ. eigenvalues --  -10.18654 -10.18498 -10.17198  -1.13203  -1.11771
 Alpha  occ. eigenvalues --   -1.04957  -1.04448  -1.02423  -1.00720  -0.98657
 Alpha  occ. eigenvalues --   -0.97184  -0.95821  -0.90457  -0.83001  -0.82795
 Alpha  occ. eigenvalues --   -0.82267  -0.81355  -0.79634  -0.79449  -0.77586
 Alpha  occ. eigenvalues --   -0.77476  -0.76703  -0.75365  -0.74277  -0.72861
 Alpha  occ. eigenvalues --   -0.72529  -0.69615  -0.69172  -0.68664  -0.68568
 Alpha  occ. eigenvalues --   -0.68173  -0.66280  -0.64407  -0.62203  -0.61442
 Alpha  occ. eigenvalues --   -0.60532  -0.60282  -0.59516  -0.59443  -0.58605
 Alpha  occ. eigenvalues --   -0.57077  -0.55830  -0.55221  -0.54001  -0.53703
 Alpha  occ. eigenvalues --   -0.53148  -0.51994  -0.51305  -0.50925  -0.50055
 Alpha  occ. eigenvalues --   -0.49407  -0.49155  -0.48860  -0.48683  -0.48212
 Alpha  occ. eigenvalues --   -0.47467  -0.47046  -0.47012  -0.46951  -0.46285
 Alpha  occ. eigenvalues --   -0.45775  -0.45382  -0.44418  -0.44386  -0.44251
 Alpha  occ. eigenvalues --   -0.43562  -0.43415  -0.43269  -0.42984  -0.42683
 Alpha  occ. eigenvalues --   -0.42528  -0.42112  -0.41722  -0.41518  -0.41413
 Alpha  occ. eigenvalues --   -0.41168  -0.40852  -0.40331  -0.40220  -0.40110
 Alpha  occ. eigenvalues --   -0.40057  -0.39473  -0.39182  -0.38804  -0.38425
 Alpha  occ. eigenvalues --   -0.38318  -0.37630  -0.37581  -0.37149  -0.36773
 Alpha  occ. eigenvalues --   -0.36404  -0.35914  -0.35254  -0.34978  -0.34860
 Alpha  occ. eigenvalues --   -0.34377  -0.34144  -0.33765  -0.33761  -0.33197
 Alpha  occ. eigenvalues --   -0.33057  -0.32276  -0.31234  -0.30405  -0.29739
 Alpha  occ. eigenvalues --   -0.28746  -0.28595  -0.26917  -0.26381  -0.26003
 Alpha  occ. eigenvalues --   -0.25707  -0.24198  -0.24098  -0.22872  -0.22053
 Alpha  occ. eigenvalues --   -0.18355
 Alpha virt. eigenvalues --   -0.10772  -0.05328  -0.03963  -0.02023  -0.01077
 Alpha virt. eigenvalues --   -0.00191   0.01784   0.03052   0.03229   0.04144
 Alpha virt. eigenvalues --    0.05009   0.05716   0.06163   0.06559   0.06686

 Mulliken charges:
               1
     1  O   -0.242805
     2  O   -0.109450
     3  O   -0.107795
     4  O   -0.200640
     5  O   -0.265853
     6  O   -0.155167
     7  N   -0.084216
     8  N   -0.154156
     9  N   -0.064824
    10  N   -0.355698
    11  C   -0.112284
    12  C    0.032179
    13  C   -0.173448
    14  C    0.051113
    15  C    0.010387
    16  C    0.084908
    17  C   -0.012048
    18  C   -0.156295
    19  C    0.239388
    20  C    0.131400
    21  C    0.112011
    22  C    0.088829
    23  C   -0.106009
    24  C    0.072462
    25  C   -0.041215
    26  C    0.139452
    27  C    0.078747
    28  C   -0.097577
    29  C   -0.117014
    30  C    0.190240
    31  C   -0.048735
    32  C    0.003787
    33  C   -0.075588
    34  C    0.128445
    35  C   -0.173324
    36  C   -0.221714
    37  C    0.129618
    38  C   -0.042948
    39  C    0.161200
    40  C    0.247176
    41  C    0.135709
    42  C    0.235035
    43  C   -0.107561
    44  H    0.086563
    45  H   -0.040800
    46  H   -0.038637
    47  H   -0.001688
    48  H   -0.004419
    49  H    0.060420
    50  H    0.047554
    51  H   -0.067379
    52  H    0.195059
    53  H   -0.018066
    54  H    0.079503
    55  H   -0.027137
    56  H    0.107237
    57  H    0.055618
    58  H    0.056592
    59  H    0.039605
    60  H    0.039585
    61  H   -0.003828
    62  H    0.007380
    63  H    0.001986
    64  H   -0.092370
    65  H    0.029896
    66  H    0.037854
    67  H    0.031904
    68  H   -0.023023
    69  H    0.082063
    70  H    0.026240
    71  H    0.043778
    72  H   -0.035937
    73  H    0.015044
    74  H   -0.076082
    75  H    0.015151
    76  H    0.040466
    77  H    0.005953
    78  H    0.012729
    79  H    0.035021
    80  H    0.114362
    81  H    0.116080
 Sum of Mulliken charges =  -0.00000

 Dipole moment (field-independent basis, Debye):
    X=             -3.6948    Y=              1.7004    Z=             -1.5323  Tot=              4.3464
 Quadrupole moment (field-independent basis, Debye-Ang):
   XX=           -253.7613   YY=           -242.8674   ZZ=           -254.5509
   XY=             14.4714   XZ=             14.5278   YZ=            -15.9909

 Normal termination of Gaussian 16 at Wed Jul  3 02:00:57 2019.
