 Gaussian 16, Revision A.03,
 Gaussian 16:  ES64L-G16RevA.03 25-Dec-2016

 --------------------------
 # td=(NStates=1) B3LYP/SVP
 --------------------------

 --
 TD
 --
 Symbolic Z-matrix:
 Charge =  0 Multiplicity = 1

                         Standard orientation:
 ---------------------------------------------------------------------
 Center     Atomic      Atomic             Coordinates (Angstroms)
 Number     Number       Type             X           Y           Z
 ---------------------------------------------------------------------
      1          8           0        4.453812   -4.929091   -1.693974
      2          8           0       -3.018994   -5.034949   -0.870453
      3          8           0       -7.012904   -1.664387   -2.005353
      4          8           0       -3.775713   -3.182563    0.219939
      5          8           0       -7.754824   -0.536335   -0.231558
      6          8           0        2.958594    2.537270    0.534346
      7          7           0        0.342016   -0.452082    0.497822
      8          7           0       -1.556681    1.776165    0.352239
      9          7           0        3.394626   -3.173828   -0.586746
     10          7           0        0.824165    2.975036    0.149849
     11          6           0       -0.582088   -2.383050    1.349684
     12          6           0       -0.807621   -1.064145    0.953964
     13          6           0        0.873081   -2.611960    1.203007
     14          6           0        1.415750   -1.376971    0.703259
     15          6           0       -3.744825    1.276609    0.154009
     16          6           0       -2.467576    0.799291    0.576838
     17          6           0       -2.131989   -0.491505    0.924232
     18          6           0       -3.630988    2.692257   -0.108969
     19          6           0       -1.463407   -3.381920    2.076582
     20          6           0        5.556864   -2.754793   -1.436323
     21          6           0        3.659171   -1.921441   -0.218835
     22          6           0       -2.195700    3.001575   -0.093697
     23          6           0        5.039866   -1.566310   -0.622450
     24          6           0       -5.001817    0.720136    0.378348
     25          6           0        2.684784   -1.058759    0.315377
     26          6           0        1.647636   -3.799111    1.782921
     27          6           0        4.434284   -3.836100   -1.148596
     28          6           0       -1.975685   -4.451532    1.212232
     29          6           0       -5.491560   -0.150204   -0.884068
     30          6           0       -4.636242    3.773641   -0.424193
     31          6           0       -1.331690    4.112862   -0.311113
     32          6           0        6.807094   -3.363475   -1.020549
     33          6           0        5.797247   -0.415582   -0.446901
     34          6           0        0.066488    4.033975   -0.215223
     35          6           0        1.008222    5.225901   -0.444760
     36          6           0        2.174470    4.724677   -0.133139
     37          6           0       -3.027915   -4.056080    0.153923
     38          6           0        5.412540    0.714062    0.396414
     39          6           0       -6.883177   -0.788715   -0.951817
     40          6           0        3.654817    5.375245   -0.248118
     41          6           0        2.065566    3.266185    0.132137
     42          6           0        0.472873    6.698260   -0.701643
     43          6           0        4.091111    5.768406    1.123690
     44          1           0        0.333961    0.418245    0.111125
     45          1           0       -2.796385   -1.220742    0.893524
     46          1           0       -2.143998   -2.827605    2.728930
     47          1           0       -0.905404   -3.925020    2.864009
     48          1           0        5.451464   -2.681212   -2.509828
     49          1           0       -5.141431   -0.032621    1.120022
     50          1           0       -5.859041    1.380249    0.441429
     51          1           0        3.005606   -0.077548    0.295820
     52          1           0       -0.565758    1.864012    0.387269
     53          1           0        1.513246   -4.741528    1.213581
     54          1           0        2.663286   -3.600424    2.062777
     55          1           0        0.891200   -4.007194    2.775712
     56          1           0        2.552986   -3.586273   -0.458305
     57          1           0       -1.008385   -4.980454    0.763237
     58          1           0       -2.616431   -5.263324    1.787173
     59          1           0       -4.611362   -0.846820   -0.826371
     60          1           0       -5.472571    0.415344   -1.734962
     61          1           0       -4.521783    4.666622    0.207544
     62          1           0       -5.575509    3.288359   -0.573564
     63          1           0       -4.459843    4.313413   -1.412524
     64          1           0       -1.743211    5.070080   -0.604099
     65          1           0        7.684389   -2.561647   -1.035647
     66          1           0        7.057213   -4.171375   -1.674316
     67          1           0        6.711805   -3.902446    0.065503
     68          1           0        6.726256   -0.331477   -0.992970
     69          1           0        4.939474    1.647308    0.061316
     70          1           0        6.471001    1.364115    0.472758
     71          1           0        4.876098    0.544999    1.400418
     72          1           0        3.727818    6.207392   -0.932027
     73          1           0        4.115835    4.449900   -0.806547
     74          1           0       -0.189559    6.573702   -1.517707
     75          1           0        1.416023    7.220977   -0.817109
     76          1           0       -0.278037    6.822332   -0.048477
     77          1           0        3.568904    6.512095    1.739894
     78          1           0        5.176344    6.126905    1.156766
     79          1           0        4.059380    4.999249    1.883145
     80          1           0       -3.922590   -4.882385   -1.317739
     81          1           0       -7.897136   -1.910374   -1.842840
 ---------------------------------------------------------------------

 SCF Done:  E(RB3LYP) =  -1949.09115064     A.U. after   23 cycles

 Excitation energies and oscillator strengths:

 Excited State   1:      Singlet-A      1.6619 eV  746.06 nm  f=0.3548  <S**2>=0.000
     156 ->157         0.71153
     156 <-157        -0.13107
 This state for optimization and/or second-order correction.
 Total Energy, E(TD-HF/TD-DFT) =  -1949.03007840
 Copying the excited state density for this state as the 1-particle RhoCI density.

 The electronic state is 1-A.
 Alpha  occ. eigenvalues --  -19.18544 -19.18021 -19.16046 -19.13938 -19.11491
 Alpha  occ. eigenvalues --  -19.08677 -14.38037 -14.37363 -14.35686 -14.27820
 Alpha  occ. eigenvalues --  -10.33646 -10.32374 -10.29230 -10.25191 -10.25023
 Alpha  occ. eigenvalues --  -10.24445 -10.24134 -10.23860 -10.23626 -10.23476
 Alpha  occ. eigenvalues --  -10.23103 -10.22171 -10.21532 -10.21426 -10.21138
 Alpha  occ. eigenvalues --  -10.21012 -10.20820 -10.20806 -10.20616 -10.20609
 Alpha  occ. eigenvalues --  -10.20429 -10.20007 -10.19836 -10.19653 -10.19648
 Alpha  occ. eigenvalues --  -10.19495 -10.19328 -10.18816 -10.18740 -10.18733
 Alpha  occ. eigenvalues --  -10.18124 -10.17381 -10.17166  -1.11993  -1.11947
 Alpha  occ. eigenvalues --   -1.04404  -1.03166  -1.02252  -1.01201  -0.98291
 Alpha  occ. eigenvalues --   -0.97892  -0.96711  -0.92607  -0.83525  -0.83114
 Alpha  occ. eigenvalues --   -0.82226  -0.81788  -0.79786  -0.78705  -0.78047
 Alpha  occ. eigenvalues --   -0.77318  -0.76887  -0.75495  -0.74406  -0.72927
 Alpha  occ. eigenvalues --   -0.71944  -0.70669  -0.69757  -0.68892  -0.68497
 Alpha  occ. eigenvalues --   -0.68100  -0.66255  -0.64586  -0.63103  -0.61066
 Alpha  occ. eigenvalues --   -0.60477  -0.59602  -0.58933  -0.58659  -0.57469
 Alpha  occ. eigenvalues --   -0.56929  -0.56118  -0.55635  -0.54899  -0.53638
 Alpha  occ. eigenvalues --   -0.53286  -0.52274  -0.51651  -0.50988  -0.50483
 Alpha  occ. eigenvalues --   -0.50159  -0.49956  -0.49413  -0.49194  -0.48664
 Alpha  occ. eigenvalues --   -0.48159  -0.47447  -0.46891  -0.46689  -0.45595
 Alpha  occ. eigenvalues --   -0.45314  -0.44978  -0.44822  -0.44498  -0.44044
 Alpha  occ. eigenvalues --   -0.44001  -0.43811  -0.43696  -0.43193  -0.42636
 Alpha  occ. eigenvalues --   -0.42512  -0.42387  -0.42121  -0.41863  -0.41395
 Alpha  occ. eigenvalues --   -0.41048  -0.40775  -0.40619  -0.40511  -0.40122
 Alpha  occ. eigenvalues --   -0.40084  -0.39553  -0.39468  -0.39302  -0.38780
 Alpha  occ. eigenvalues --   -0.38336  -0.38054  -0.37286  -0.37091  -0.36743
 Alpha  occ. eigenvalues --   -0.36597  -0.36413  -0.35930  -0.35038  -0.34834
 Alpha  occ. eigenvalues --   -0.34167  -0.34035  -0.33899  -0.33747  -0.33072
 Alpha  occ. eigenvalues --   -0.32687  -0.32359  -0.30474  -0.30123  -0.29674
 Alpha  occ. eigenvalues --   -0.29134  -0.27031  -0.26292  -0.25888  -0.25610
 Alpha  occ. eigenvalues --   -0.24833  -0.24756  -0.23919  -0.23503  -0.21806
 Alpha  occ. eigenvalues --   -0.17869
 Alpha virt. eigenvalues --   -0.11284  -0.05878  -0.04752  -0.01023  -0.00772
 Alpha virt. eigenvalues --    0.00969   0.01688   0.02690   0.03294   0.03582
 Alpha virt. eigenvalues --    0.03968   0.04610   0.05414   0.05791   0.06431

 Mulliken charges:
               1
     1  O   -0.217659
     2  O   -0.259060
     3  O   -0.175232
     4  O   -0.146749
     5  O   -0.169604
     6  O   -0.229299
     7  N   -0.041003
     8  N   -0.114858
     9  N    0.036580
    10  N   -0.196626
    11  C   -0.117868
    12  C    0.036586
    13  C   -0.178563
    14  C    0.154354
    15  C   -0.050978
    16  C    0.142808
    17  C    0.020551
    18  C   -0.138971
    19  C    0.130191
    20  C   -0.060093
    21  C    0.016895
    22  C    0.113609
    23  C   -0.013978
    24  C    0.105702
    25  C   -0.060720
    26  C    0.029828
    27  C    0.078079
    28  C   -0.048535
    29  C   -0.062810
    30  C    0.116766
    31  C   -0.112930
    32  C    0.028286
    33  C   -0.071112
    34  C    0.068112
    35  C   -0.154629
    36  C   -0.240068
    37  C    0.141794
    38  C   -0.014220
    39  C    0.130471
    40  C    0.075454
    41  C    0.086074
    42  C    0.259371
    43  C    0.011774
    44  H    0.077436
    45  H   -0.085373
    46  H    0.011254
    47  H   -0.002697
    48  H    0.040265
    49  H    0.009462
    50  H    0.007726
    51  H   -0.042439
    52  H    0.103817
    53  H    0.039833
    54  H    0.043520
    55  H    0.040877
    56  H    0.085465
    57  H    0.058357
    58  H    0.061581
    59  H    0.053319
    60  H    0.007380
    61  H    0.029254
    62  H    0.008915
    63  H    0.017911
    64  H   -0.044277
    65  H    0.026844
    66  H    0.018606
    67  H    0.024592
    68  H   -0.001234
    69  H    0.065430
    70  H    0.001608
    71  H    0.060997
    72  H   -0.007793
    73  H    0.039048
    74  H   -0.019001
    75  H    0.041607
    76  H   -0.027517
    77  H    0.000827
    78  H    0.003106
    79  H    0.004945
    80  H    0.196328
    81  H    0.142304
 Sum of Mulliken charges =  -0.00000

 Dipole moment (field-independent basis, Debye):
    X=             -3.6026    Y=              0.0273    Z=             -0.1578  Tot=              3.6062
 Quadrupole moment (field-independent basis, Debye-Ang):
   XX=           -253.1411   YY=           -243.6621   ZZ=           -255.3059
   XY=             12.8590   XZ=              6.8833   YZ=            -18.4696

 Normal termination of Gaussian 16 at Sat Jun 29 20:22:34 2019.
