 Gaussian 16, Revision A.03,
 Gaussian 16:  ES64L-G16RevA.03 25-Dec-2016

 --------------------------
 # td=(NStates=1) B3LYP/SVP
 --------------------------

 --
 TD
 --
 Symbolic Z-matrix:
 Charge =  0 Multiplicity = 1

                         Standard orientation:
 ---------------------------------------------------------------------
 Center     Atomic      Atomic             Coordinates (Angstroms)
 Number     Number       Type             X           Y           Z
 ---------------------------------------------------------------------
      1          8           0        4.384147   -4.734162   -2.021764
      2          8           0       -2.975957   -4.948097   -1.054942
      3          8           0       -7.101074   -1.560416   -1.944156
      4          8           0       -3.849096   -3.155257    0.018951
      5          8           0       -7.667178   -0.605547   -0.005088
      6          8           0        2.874055    2.282555    0.351461
      7          7           0        0.476893   -0.452524    0.748847
      8          7           0       -1.600952    1.851643    0.447632
      9          7           0        3.374390   -3.098084   -0.752476
     10          7           0        0.691872    2.883180    0.191567
     11          6           0       -0.594464   -2.359790    1.449743
     12          6           0       -0.828861   -0.987475    0.995671
     13          6           0        0.868324   -2.536231    1.264411
     14          6           0        1.383795   -1.309189    0.733186
     15          6           0       -3.853371    1.392155    0.317328
     16          6           0       -2.585785    0.768944    0.729535
     17          6           0       -2.130603   -0.464811    0.990611
     18          6           0       -3.692322    2.734981   -0.070046
     19          6           0       -1.589287   -3.281129    2.102424
     20          6           0        5.615208   -2.698187   -1.365236
     21          6           0        3.620276   -1.792374   -0.257881
     22          6           0       -2.200124    2.923182   -0.076335
     23          6           0        5.058834   -1.469647   -0.600323
     24          6           0       -5.166220    0.616129    0.442243
     25          6           0        2.738493   -0.936439    0.364165
     26          6           0        1.731007   -3.641920    1.754562
     27          6           0        4.428907   -3.679143   -1.473297
     28          6           0       -1.986237   -4.598191    1.117261
     29          6           0       -5.432815   -0.147200   -0.871504
     30          6           0       -4.624077    3.709310   -0.599007
     31          6           0       -1.350680    4.093375   -0.313619
     32          6           0        6.852621   -3.306879   -0.789287
     33          6           0        5.823230   -0.461106   -0.147102
     34          6           0        0.063071    4.015066   -0.212303
     35          6           0        0.998371    5.092193   -0.423510
     36          6           0        2.251003    4.539420   -0.135722
     37          6           0       -2.921447   -4.077491    0.011725
     38          6           0        5.480360    0.720128    0.622797
     39          6           0       -6.819418   -0.758060   -0.799745
     40          6           0        3.528719    5.288744   -0.309280
     41          6           0        1.965424    3.164914    0.131188
     42          6           0        0.609111    6.420830   -0.932959
     43          6           0        4.294361    5.499720    1.033249
     44          1           0        0.751873    0.397715    0.541900
     45          1           0       -2.910344   -1.290373    0.918774
     46          1           0       -2.275813   -2.805985    2.678492
     47          1           0       -1.100122   -3.698542    2.931630
     48          1           0        5.614911   -2.357750   -2.404692
     49          1           0       -5.189200   -0.188240    1.125905
     50          1           0       -6.088420    1.219103    0.526903
     51          1           0        3.051885    0.192705    0.588786
     52          1           0       -0.576047    1.857141    0.383195
     53          1           0        1.513192   -4.479364    0.952116
     54          1           0        2.654499   -3.325610    1.665035
     55          1           0        1.665409   -4.013266    2.682034
     56          1           0        2.383474   -3.563744   -0.786156
     57          1           0       -1.090372   -4.985325    0.568288
     58          1           0       -2.556492   -5.260164    1.755540
     59          1           0       -4.651229   -0.713588   -0.978843
     60          1           0       -5.406030    0.604713   -1.686172
     61          1           0       -4.676847    4.586984    0.013957
     62          1           0       -5.530352    3.155418   -0.454364
     63          1           0       -4.528820    4.193692   -1.629678
     64          1           0       -1.729506    4.968355   -0.733814
     65          1           0        7.800896   -2.578582   -0.479242
     66          1           0        7.066377   -4.221023   -1.388940
     67          1           0        6.682234   -3.628160    0.312501
     68          1           0        6.957421   -0.663078   -0.420444
     69          1           0        4.538835    1.274748    0.301996
     70          1           0        6.306302    1.215707    0.984429
     71          1           0        5.102219    0.439184    1.573156
     72          1           0        3.572502    6.219677   -0.699444
     73          1           0        4.235716    4.789827   -0.770986
     74          1           0        0.031064    6.601258   -1.966827
     75          1           0        1.377258    7.281648   -1.175286
     76          1           0       -0.214156    7.074565   -0.191984
     77          1           0        3.972355    6.043735    1.490853
     78          1           0        5.316482    6.012481    0.775545
     79          1           0        4.320122    4.590616    1.524454
     80          1           0       -3.558211   -4.530736   -1.880093
     81          1           0       -7.960063   -1.780835   -1.950868
 ---------------------------------------------------------------------

 SCF Done:  E(RB3LYP) =  -1948.91003526     A.U. after   19 cycles

 Excitation energies and oscillator strengths:

 Excited State   1:      Singlet-A      1.8793 eV  659.74 nm  f=0.2597  <S**2>=0.000
     156 ->157         0.70453
 This state for optimization and/or second-order correction.
 Total Energy, E(TD-HF/TD-DFT) =  -1948.84097319
 Copying the excited state density for this state as the 1-particle RhoCI density.

 The electronic state is 1-A.
 Alpha  occ. eigenvalues --  -19.20136 -19.15507 -19.14426 -19.14075 -19.11667
 Alpha  occ. eigenvalues --  -19.08526 -14.37729 -14.37585 -14.35353 -14.28135
 Alpha  occ. eigenvalues --  -10.35013 -10.32502 -10.29415 -10.25251 -10.24852
 Alpha  occ. eigenvalues --  -10.24827 -10.24598 -10.23947 -10.23528 -10.23407
 Alpha  occ. eigenvalues --  -10.22300 -10.22247 -10.22099 -10.21912 -10.21690
 Alpha  occ. eigenvalues --  -10.21443 -10.21059 -10.20610 -10.20448 -10.20023
 Alpha  occ. eigenvalues --  -10.19923 -10.19799 -10.19797 -10.19732 -10.19718
 Alpha  occ. eigenvalues --  -10.19439 -10.19173 -10.19032 -10.18947 -10.18223
 Alpha  occ. eigenvalues --  -10.16461 -10.15860 -10.14467  -1.09959  -1.07659
 Alpha  occ. eigenvalues --   -1.04870  -1.01680  -1.01404  -0.99278  -0.97321
 Alpha  occ. eigenvalues --   -0.96320  -0.94115  -0.91914  -0.83306  -0.82682
 Alpha  occ. eigenvalues --   -0.81163  -0.80992  -0.80302  -0.79005  -0.78653
 Alpha  occ. eigenvalues --   -0.77737  -0.76707  -0.76020  -0.74481  -0.73302
 Alpha  occ. eigenvalues --   -0.72172  -0.70710  -0.69809  -0.69108  -0.67741
 Alpha  occ. eigenvalues --   -0.67458  -0.65109  -0.64639  -0.64115  -0.62054
 Alpha  occ. eigenvalues --   -0.60542  -0.59686  -0.59051  -0.58506  -0.57380
 Alpha  occ. eigenvalues --   -0.56924  -0.56609  -0.55615  -0.54156  -0.53993
 Alpha  occ. eigenvalues --   -0.52308  -0.52023  -0.51455  -0.50357  -0.50129
 Alpha  occ. eigenvalues --   -0.49685  -0.49524  -0.48396  -0.48188  -0.47791
 Alpha  occ. eigenvalues --   -0.47504  -0.47129  -0.46668  -0.46257  -0.45695
 Alpha  occ. eigenvalues --   -0.45418  -0.45364  -0.44420  -0.44129  -0.43931
 Alpha  occ. eigenvalues --   -0.43643  -0.43389  -0.42905  -0.42751  -0.42442
 Alpha  occ. eigenvalues --   -0.41904  -0.41690  -0.41634  -0.41292  -0.41238
 Alpha  occ. eigenvalues --   -0.40895  -0.40639  -0.40271  -0.40002  -0.39726
 Alpha  occ. eigenvalues --   -0.39593  -0.39225  -0.39085  -0.38530  -0.38198
 Alpha  occ. eigenvalues --   -0.37768  -0.37498  -0.37316  -0.37005  -0.36543
 Alpha  occ. eigenvalues --   -0.36353  -0.36053  -0.35479  -0.35267  -0.35157
 Alpha  occ. eigenvalues --   -0.34741  -0.34544  -0.33954  -0.33262  -0.32546
 Alpha  occ. eigenvalues --   -0.32348  -0.32119  -0.31457  -0.30145  -0.29317
 Alpha  occ. eigenvalues --   -0.28911  -0.27677  -0.26662  -0.26134  -0.25281
 Alpha  occ. eigenvalues --   -0.24785  -0.23836  -0.23626  -0.22956  -0.21572
 Alpha  occ. eigenvalues --   -0.18328
 Alpha virt. eigenvalues --   -0.10398  -0.06489  -0.04844  -0.03471  -0.00174
 Alpha virt. eigenvalues --    0.00452   0.01211   0.01423   0.02349   0.02809
 Alpha virt. eigenvalues --    0.04083   0.04706   0.05088   0.05789   0.06402

 Mulliken charges:
               1
     1  O   -0.176936
     2  O   -0.259244
     3  O   -0.206231
     4  O   -0.309418
     5  O   -0.170449
     6  O   -0.313885
     7  N    0.103215
     8  N   -0.123943
     9  N   -0.194739
    10  N   -0.244776
    11  C   -0.127804
    12  C    0.092262
    13  C   -0.244019
    14  C   -0.016197
    15  C   -0.084319
    16  C    0.132360
    17  C   -0.104580
    18  C   -0.115207
    19  C    0.166239
    20  C    0.009553
    21  C    0.133922
    22  C    0.060376
    23  C   -0.060609
    24  C    0.082581
    25  C   -0.163998
    26  C    0.206791
    27  C    0.094262
    28  C    0.030843
    29  C    0.058817
    30  C    0.115211
    31  C   -0.044922
    32  C   -0.001256
    33  C   -0.192621
    34  C    0.054331
    35  C   -0.002184
    36  C   -0.130398
    37  C    0.196241
    38  C    0.136195
    39  C    0.155396
    40  C    0.220459
    41  C    0.129536
    42  C   -0.093883
    43  C    0.190380
    44  H    0.065365
    45  H    0.049979
    46  H   -0.013683
    47  H   -0.017451
    48  H    0.033520
    49  H    0.009209
    50  H    0.022079
    51  H    0.074113
    52  H    0.129231
    53  H    0.011982
    54  H   -0.031395
    55  H   -0.011255
    56  H    0.162363
    57  H    0.063856
    58  H    0.067449
    59  H   -0.022502
    60  H    0.033502
    61  H    0.010424
    62  H   -0.004101
    63  H    0.042473
    64  H   -0.057007
    65  H    0.044780
    66  H    0.045366
    67  H    0.018782
    68  H    0.005684
    69  H    0.104313
    70  H   -0.027477
    71  H   -0.011184
    72  H   -0.049234
    73  H   -0.043377
    74  H    0.042470
    75  H    0.031338
    76  H    0.036572
    77  H   -0.188802
    78  H   -0.003726
    79  H    0.008326
    80  H    0.252863
    81  H    0.127803
 Sum of Mulliken charges =  -0.00000

 Dipole moment (field-independent basis, Debye):
    X=             -2.5204    Y=              0.1088    Z=              0.0283  Tot=              2.5229
 Quadrupole moment (field-independent basis, Debye-Ang):
   XX=           -258.5072   YY=           -237.6572   ZZ=           -251.5352
   XY=              9.8526   XZ=             16.5075   YZ=            -18.5032

 Normal termination of Gaussian 16 at Fri Jun 28 01:21:45 2019.
