 Gaussian 16, Revision A.03,
 Gaussian 16:  ES64L-G16RevA.03 25-Dec-2016

 --------------------------
 # td=(NStates=1) B3LYP/SVP
 --------------------------

 --
 TD
 --
 Symbolic Z-matrix:
 Charge =  0 Multiplicity = 1

                         Standard orientation:
 ---------------------------------------------------------------------
 Center     Atomic      Atomic             Coordinates (Angstroms)
 Number     Number       Type             X           Y           Z
 ---------------------------------------------------------------------
      1          8           0        4.134862   -4.826217   -1.911133
      2          8           0       -2.936335   -4.840636   -1.088055
      3          8           0       -6.842457   -1.628184   -1.800065
      4          8           0       -3.858713   -3.185139    0.163359
      5          8           0       -7.546661   -0.517300   -0.048382
      6          8           0        3.046789    2.271890    0.495944
      7          7           0        0.293954   -0.435375    0.632148
      8          7           0       -1.610774    1.841941    0.449836
      9          7           0        3.308745   -3.117523   -0.652787
     10          7           0        0.784762    2.900842    0.289400
     11          6           0       -0.665937   -2.255640    1.465579
     12          6           0       -0.876489   -0.998456    0.977566
     13          6           0        0.687301   -2.498569    1.326330
     14          6           0        1.259547   -1.444416    0.730072
     15          6           0       -3.789945    1.608743    0.254074
     16          6           0       -2.552892    0.822584    0.587831
     17          6           0       -2.216860   -0.478651    0.869812
     18          6           0       -3.481395    2.825251   -0.066374
     19          6           0       -1.659666   -3.361203    2.048425
     20          6           0        5.439414   -2.652542   -1.408202
     21          6           0        3.566304   -1.831924   -0.182637
     22          6           0       -2.071629    3.016114   -0.036601
     23          6           0        5.013483   -1.627830   -0.455723
     24          6           0       -5.103794    0.948386    0.233349
     25          6           0        2.582916   -1.020544    0.337440
     26          6           0        1.547099   -3.649707    1.815440
     27          6           0        4.224721   -3.748608   -1.383335
     28          6           0       -2.091991   -4.465780    1.016076
     29          6           0       -5.398034   -0.021053   -0.878766
     30          6           0       -4.448111    3.875658   -0.535977
     31          6           0       -1.237881    4.083467   -0.253513
     32          6           0        6.790218   -3.418007   -1.299096
     33          6           0        5.759270   -0.733296    0.049059
     34          6           0        0.199580    3.969326   -0.140144
     35          6           0        1.086062    5.064098   -0.574554
     36          6           0        2.363902    4.521983   -0.351795
     37          6           0       -3.132267   -3.982529   -0.038147
     38          6           0        5.419051    0.409426    0.997349
     39          6           0       -6.749225   -0.755836   -0.849655
     40          6           0        3.765469    5.223774   -0.409214
     41          6           0        2.099500    3.121295    0.219433
     42          6           0        0.656023    6.353337   -1.066502
     43          6           0        4.289103    5.595640    1.077547
     44          1           0        0.558293    0.468868    0.153793
     45          1           0       -2.912632   -1.068485    1.151820
     46          1           0       -2.354253   -2.697125    2.421756
     47          1           0       -1.126211   -3.827905    2.883987
     48          1           0        5.361861   -2.212537   -2.368545
     49          1           0       -5.251004    0.475277    1.226756
     50          1           0       -5.940311    1.709811    0.494779
     51          1           0        2.566449    0.163937    0.337370
     52          1           0       -0.521322    1.969615    0.772668
     53          1           0        1.305014   -4.706985    1.220596
     54          1           0        2.711416   -3.607825    1.857813
     55          1           0        0.901206   -3.727823    2.704628
     56          1           0        2.289250   -3.367351   -0.849316
     57          1           0       -1.082930   -4.774899    0.681620
     58          1           0       -2.611042   -5.359936    1.549948
     59          1           0       -4.578389   -0.795659   -0.958267
     60          1           0       -5.173895    0.428457   -1.909670
     61          1           0       -3.813416    5.086111   -0.434979
     62          1           0       -5.513036    3.859452   -0.091784
     63          1           0       -4.353578    4.000279   -1.588742
     64          1           0       -1.542037    5.010403   -0.588294
     65          1           0        7.668015   -2.882259   -1.333173
     66          1           0        6.762011   -4.376218   -1.857912
     67          1           0        7.033883   -3.458558   -0.173747
     68          1           0        6.868750   -0.895448   -0.016251
     69          1           0        5.146702    1.267436    0.247133
     70          1           0        6.475869    0.686956    1.842542
     71          1           0        4.656799    0.000982    1.726822
     72          1           0        3.793730    6.187631   -0.946825
     73          1           0        4.696065    4.657055   -0.927416
     74          1           0       -0.129958    6.273936   -1.938095
     75          1           0        1.394702    7.109564   -1.605953
     76          1           0        0.017378    6.894102   -0.255600
     77          1           0        3.423305    6.131464    1.589786
     78          1           0        5.270310    5.932600    0.934785
     79          1           0        4.482891    4.643025    1.665896
     80          1           0       -3.679670   -4.778106   -1.747810
     81          1           0       -7.853996   -1.911315   -1.846539
 ---------------------------------------------------------------------

 SCF Done:  E(RB3LYP) =  -1949.01438927     A.U. after   16 cycles

 Excitation energies and oscillator strengths:

 Excited State   1:      Singlet-A      1.7379 eV  713.43 nm  f=0.2702  <S**2>=0.000
     156 ->157         0.70649
     156 <-157        -0.10850
 This state for optimization and/or second-order correction.
 Total Energy, E(TD-HF/TD-DFT) =  -1948.95052406
 Copying the excited state density for this state as the 1-particle RhoCI density.

 The electronic state is 1-A.
 Alpha  occ. eigenvalues --  -19.19622 -19.18809 -19.15725 -19.12523 -19.10995
 Alpha  occ. eigenvalues --  -19.10478 -14.37027 -14.36908 -14.35471 -14.30584
 Alpha  occ. eigenvalues --  -10.32875 -10.31657 -10.28578 -10.27514 -10.24083
 Alpha  occ. eigenvalues --  -10.23791 -10.23745 -10.23450 -10.22715 -10.22077
 Alpha  occ. eigenvalues --  -10.21944 -10.21602 -10.21308 -10.20858 -10.20843
 Alpha  occ. eigenvalues --  -10.20796 -10.20779 -10.20763 -10.20432 -10.20327
 Alpha  occ. eigenvalues --  -10.20155 -10.20038 -10.20000 -10.19568 -10.19462
 Alpha  occ. eigenvalues --  -10.19174 -10.18953 -10.18827 -10.18447 -10.18366
 Alpha  occ. eigenvalues --  -10.18246 -10.18138 -10.18000  -1.14445  -1.12391
 Alpha  occ. eigenvalues --   -1.04783  -1.03938  -1.03172  -0.99774  -0.98969
 Alpha  occ. eigenvalues --   -0.97833  -0.95899  -0.93607  -0.82619  -0.82085
 Alpha  occ. eigenvalues --   -0.81958  -0.81665  -0.79898  -0.78954  -0.77362
 Alpha  occ. eigenvalues --   -0.76759  -0.76426  -0.74521  -0.73801  -0.71868
 Alpha  occ. eigenvalues --   -0.70558  -0.68986  -0.68781  -0.68280  -0.67563
 Alpha  occ. eigenvalues --   -0.67436  -0.66247  -0.63482  -0.62592  -0.61338
 Alpha  occ. eigenvalues --   -0.60764  -0.60134  -0.59834  -0.58314  -0.56496
 Alpha  occ. eigenvalues --   -0.56326  -0.55815  -0.55333  -0.53747  -0.52796
 Alpha  occ. eigenvalues --   -0.52251  -0.52090  -0.51384  -0.50959  -0.50853
 Alpha  occ. eigenvalues --   -0.50239  -0.49255  -0.49214  -0.48387  -0.47996
 Alpha  occ. eigenvalues --   -0.47575  -0.46982  -0.46429  -0.46312  -0.45521
 Alpha  occ. eigenvalues --   -0.44982  -0.44585  -0.44383  -0.43732  -0.43328
 Alpha  occ. eigenvalues --   -0.43296  -0.43117  -0.42840  -0.42442  -0.42283
 Alpha  occ. eigenvalues --   -0.41927  -0.41760  -0.41436  -0.41225  -0.41164
 Alpha  occ. eigenvalues --   -0.40883  -0.40381  -0.40269  -0.39796  -0.39570
 Alpha  occ. eigenvalues --   -0.39239  -0.39170  -0.38489  -0.37864  -0.37738
 Alpha  occ. eigenvalues --   -0.37621  -0.37429  -0.36807  -0.36604  -0.35855
 Alpha  occ. eigenvalues --   -0.35341  -0.35254  -0.34919  -0.34680  -0.34471
 Alpha  occ. eigenvalues --   -0.33824  -0.33740  -0.33528  -0.32992  -0.32319
 Alpha  occ. eigenvalues --   -0.32014  -0.31809  -0.30535  -0.30320  -0.29972
 Alpha  occ. eigenvalues --   -0.28834  -0.28609  -0.26972  -0.26209  -0.25671
 Alpha  occ. eigenvalues --   -0.25172  -0.24687  -0.24509  -0.24087  -0.22011
 Alpha  occ. eigenvalues --   -0.17944
 Alpha virt. eigenvalues --   -0.10896  -0.06110  -0.03137   0.01206   0.01417
 Alpha virt. eigenvalues --    0.01606   0.02237   0.02654   0.02719   0.03601
 Alpha virt. eigenvalues --    0.03952   0.04288   0.04697   0.05268   0.06090

 Mulliken charges:
               1
     1  O   -0.199529
     2  O   -0.222211
     3  O   -0.178821
     4  O   -0.075764
     5  O   -0.171965
     6  O   -0.287773
     7  N   -0.091265
     8  N   -0.181278
     9  N   -0.095600
    10  N   -0.205096
    11  C   -0.165606
    12  C    0.068379
    13  C   -0.131871
    14  C    0.037508
    15  C   -0.066993
    16  C    0.098634
    17  C    0.023290
    18  C   -0.079347
    19  C    0.154532
    20  C   -0.069752
    21  C    0.088298
    22  C    0.137138
    23  C    0.088930
    24  C    0.098019
    25  C   -0.160543
    26  C   -0.000806
    27  C    0.093746
    28  C   -0.023314
    29  C   -0.035484
    30  C    0.037400
    31  C   -0.085668
    32  C    0.072296
    33  C   -0.230281
    34  C    0.020662
    35  C   -0.054527
    36  C   -0.137931
    37  C    0.111870
    38  C   -0.016406
    39  C    0.108141
    40  C   -0.000823
    41  C    0.163930
    42  C    0.000629
    43  C   -0.015055
    44  H    0.156460
    45  H   -0.114476
    46  H   -0.014276
    47  H    0.000804
    48  H    0.026902
    49  H    0.004163
    50  H    0.001306
    51  H    0.070153
    52  H    0.201902
    53  H    0.031516
    54  H    0.072302
    55  H    0.024060
    56  H    0.154585
    57  H    0.034230
    58  H    0.054270
    59  H    0.032879
    60  H    0.027473
    61  H    0.005506
    62  H    0.064052
    63  H    0.015149
    64  H   -0.081319
    65  H   -0.017684
    66  H    0.055710
    67  H   -0.008633
    68  H   -0.003897
    69  H    0.096046
    70  H    0.011887
    71  H    0.053762
    72  H    0.002322
    73  H    0.029210
    74  H    0.032469
    75  H    0.047228
    76  H    0.044245
    77  H    0.036192
    78  H    0.004567
    79  H    0.033968
    80  H    0.182028
    81  H    0.213247
 Sum of Mulliken charges =  -0.00000

 Dipole moment (field-independent basis, Debye):
    X=             -4.6545    Y=              1.5972    Z=             -2.1102  Tot=              5.3543
 Quadrupole moment (field-independent basis, Debye-Ang):
   XX=           -247.3142   YY=           -243.7228   ZZ=           -253.6147
   XY=             22.8679   XZ=             17.7004   YZ=            -13.3172

 Normal termination of Gaussian 16 at Wed Jun 26 23:34:52 2019.
