 Gaussian 16, Revision A.03,
 Gaussian 16:  ES64L-G16RevA.03 25-Dec-2016

 --------------------------
 # td=(NStates=1) B3LYP/SVP
 --------------------------

 --
 TD
 --
 Symbolic Z-matrix:
 Charge =  0 Multiplicity = 1

                         Standard orientation:
 ---------------------------------------------------------------------
 Center     Atomic      Atomic             Coordinates (Angstroms)
 Number     Number       Type             X           Y           Z
 ---------------------------------------------------------------------
      1          8           0       -4.298413   -4.936286    1.850366
      2          8           0        3.237021   -4.797505    1.117198
      3          8           0        7.032758   -1.489392    1.989396
      4          8           0        3.868435   -3.024882   -0.227267
      5          8           0        7.485316   -0.732751   -0.090209
      6          8           0       -3.096577    2.557377   -0.403671
      7          7           0       -0.328161   -0.455788   -0.670853
      8          7           0        1.616306    1.889519   -0.409801
      9          7           0       -3.393649   -3.172661    0.668345
     10          7           0       -0.789568    2.948836   -0.124456
     11          6           0        0.672800   -2.377298   -1.447618
     12          6           0        0.930351   -1.015477   -1.051605
     13          6           0       -0.769508   -2.603598   -1.176924
     14          6           0       -1.335976   -1.408167   -0.683362
     15          6           0        3.877131    1.480483   -0.360103
     16          6           0        2.471223    0.840597   -0.612795
     17          6           0        2.157281   -0.506115   -1.034167
     18          6           0        3.557771    2.767672    0.101759
     19          6           0        1.720471   -3.451619   -1.968955
     20          6           0       -5.716316   -2.810151    1.276083
     21          6           0       -3.710120   -2.027284    0.262460
     22          6           0        2.124702    3.116361   -0.041351
     23          6           0       -5.190060   -1.691804    0.531675
     24          6           0        5.125851    0.681524   -0.440153
     25          6           0       -2.759828   -1.059540   -0.334773
     26          6           0       -1.484814   -3.868911   -1.635856
     27          6           0       -4.533337   -3.790638    1.378544
     28          6           0        2.081775   -4.572980   -1.005395
     29          6           0        5.436497   -0.194964    0.923607
     30          6           0        4.623952    3.828138    0.569978
     31          6           0        1.310463    4.164267    0.259189
     32          6           0       -6.943075   -3.479354    0.698477
     33          6           0       -5.859704   -0.591269    0.046645
     34          6           0       -0.094731    4.037347    0.237936
     35          6           0       -0.996586    5.158203    0.514763
     36          6           0       -2.268946    4.706048    0.334909
     37          6           0        3.125251   -4.032340    0.091235
     38          6           0       -5.381474    0.624245   -0.714393
     39          6           0        6.688721   -0.788450    0.892871
     40          6           0       -3.580054    5.430023    0.480260
     41          6           0       -2.164939    3.290296   -0.135930
     42          6           0       -0.658493    6.579314    0.817897
     43          6           0       -4.130079    5.704479   -1.051224
     44          1           0       -0.456503    0.506707   -0.214031
     45          1           0        2.856722   -1.083868   -1.025154
     46          1           0        2.565914   -2.740101   -2.190374
     47          1           0        1.401704   -4.018869   -2.991302
     48          1           0       -5.877379   -2.493340    2.302621
     49          1           0        5.151991   -0.001600   -1.193099
     50          1           0        5.925329    1.248081   -0.731011
     51          1           0       -2.875587   -0.076985   -0.428957
     52          1           0        0.439318    1.746690   -0.642095
     53          1           0       -1.652875   -4.775003   -0.795720
     54          1           0       -2.473984   -3.601814   -1.754370
     55          1           0       -0.886437   -4.138729   -2.448932
     56          1           0       -2.410848   -3.607580    0.759212
     57          1           0        1.213692   -4.869085   -0.285773
     58          1           0        2.599322   -5.460029   -1.478642
     59          1           0        4.856725   -1.128551    1.069341
     60          1           0        5.161724    0.634543    1.783417
     61          1           0        4.562701    4.708922   -0.003660
     62          1           0        5.609348    3.476102    0.372012
     63          1           0        4.521876    4.063915    1.787737
     64          1           0        1.593835    5.081763    0.594201
     65          1           0       -7.861018   -2.959113    0.642037
     66          1           0       -7.247804   -4.280390    1.361908
     67          1           0       -6.694791   -3.763411   -0.344349
     68          1           0       -7.016376   -0.518664    0.571580
     69          1           0       -4.635032    1.330490   -0.054539
     70          1           0       -6.410546    1.342920   -0.913335
     71          1           0       -4.992295    0.241485   -1.704721
     72          1           0       -3.528927    6.296743    1.021886
     73          1           0       -4.262438    4.691642    0.981538
     74          1           0        0.240076    6.892431    1.593496
     75          1           0       -1.583542    7.057584    1.081087
     76          1           0       -0.206880    7.183572   -0.161469
     77          1           0       -3.467937    6.537121   -1.571360
     78          1           0       -5.184563    6.329714   -1.190920
     79          1           0       -4.196757    4.748383   -1.648078
     80          1           0        3.961656   -4.373899    1.611062
     81          1           0        7.740578   -2.143820    1.767519
 ---------------------------------------------------------------------

 SCF Done:  E(RB3LYP) =  -1949.00638673     A.U. after   18 cycles

 Excitation energies and oscillator strengths:

 Excited State   1:      Singlet-A      1.6396 eV  756.19 nm  f=0.3580  <S**2>=0.000
     156 ->157         0.71231
     156 <-157        -0.14309
 This state for optimization and/or second-order correction.
 Total Energy, E(TD-HF/TD-DFT) =  -1948.94613260
 Copying the excited state density for this state as the 1-particle RhoCI density.

 The electronic state is 1-A.
 Alpha  occ. eigenvalues --  -19.23417 -19.18011 -19.14519 -19.14066 -19.11103
 Alpha  occ. eigenvalues --  -19.10420 -14.39199 -14.37569 -14.35794 -14.28686
 Alpha  occ. eigenvalues --  -10.34869 -10.32383 -10.31305 -10.26318 -10.25906
 Alpha  occ. eigenvalues --  -10.23861 -10.23609 -10.23443 -10.23041 -10.22901
 Alpha  occ. eigenvalues --  -10.22780 -10.22559 -10.22346 -10.21987 -10.21294
 Alpha  occ. eigenvalues --  -10.21211 -10.21042 -10.20807 -10.20449 -10.20431
 Alpha  occ. eigenvalues --  -10.20296 -10.20113 -10.19927 -10.19923 -10.19613
 Alpha  occ. eigenvalues --  -10.19515 -10.19243 -10.19139 -10.18882 -10.18715
 Alpha  occ. eigenvalues --  -10.18584 -10.18168 -10.17777  -1.15025  -1.08505
 Alpha  occ. eigenvalues --   -1.04202  -1.01612  -1.00046  -0.98108  -0.97342
 Alpha  occ. eigenvalues --   -0.96367  -0.95359  -0.91274  -0.84231  -0.81818
 Alpha  occ. eigenvalues --   -0.80402  -0.80134  -0.79033  -0.77813  -0.77174
 Alpha  occ. eigenvalues --   -0.76767  -0.76529  -0.73861  -0.73018  -0.71671
 Alpha  occ. eigenvalues --   -0.70904  -0.70403  -0.68552  -0.67995  -0.67275
 Alpha  occ. eigenvalues --   -0.66464  -0.66137  -0.64333  -0.62742  -0.61710
 Alpha  occ. eigenvalues --   -0.60983  -0.59825  -0.59484  -0.59368  -0.55778
 Alpha  occ. eigenvalues --   -0.55268  -0.55037  -0.54530  -0.53415  -0.52750
 Alpha  occ. eigenvalues --   -0.52386  -0.52125  -0.51065  -0.50623  -0.50087
 Alpha  occ. eigenvalues --   -0.49858  -0.49461  -0.49080  -0.48476  -0.47588
 Alpha  occ. eigenvalues --   -0.47049  -0.46771  -0.46214  -0.45567  -0.45202
 Alpha  occ. eigenvalues --   -0.44982  -0.44755  -0.44111  -0.43814  -0.43484
 Alpha  occ. eigenvalues --   -0.43361  -0.42833  -0.42396  -0.42348  -0.42155
 Alpha  occ. eigenvalues --   -0.41792  -0.41573  -0.40750  -0.40556  -0.40388
 Alpha  occ. eigenvalues --   -0.40225  -0.39792  -0.39671  -0.39275  -0.39087
 Alpha  occ. eigenvalues --   -0.38701  -0.38497  -0.38336  -0.38232  -0.37871
 Alpha  occ. eigenvalues --   -0.37464  -0.37380  -0.37339  -0.37121  -0.36605
 Alpha  occ. eigenvalues --   -0.36309  -0.36252  -0.35783  -0.35468  -0.35316
 Alpha  occ. eigenvalues --   -0.35052  -0.33859  -0.33768  -0.32999  -0.32543
 Alpha  occ. eigenvalues --   -0.31904  -0.31667  -0.30704  -0.30143  -0.29236
 Alpha  occ. eigenvalues --   -0.28460  -0.27416  -0.26555  -0.26260  -0.25349
 Alpha  occ. eigenvalues --   -0.24406  -0.24162  -0.23793  -0.22486  -0.21089
 Alpha  occ. eigenvalues --   -0.16662
 Alpha virt. eigenvalues --   -0.10274  -0.05682  -0.04461  -0.03543  -0.02894
 Alpha virt. eigenvalues --   -0.01042   0.01722   0.02120   0.02195   0.03816
 Alpha virt. eigenvalues --    0.04118   0.04372   0.04974   0.05309   0.05733

 Mulliken charges:
               1
     1  O   -0.218894
     2  O   -0.082918
     3  O   -0.203400
     4  O   -0.307590
     5  O   -0.290737
     6  O   -0.214739
     7  N   -0.161784
     8  N   -0.192756
     9  N   -0.071394
    10  N   -0.325753
    11  C   -0.132248
    12  C    0.189031
    13  C   -0.215707
    14  C    0.047355
    15  C   -0.103376
    16  C    0.007055
    17  C    0.082628
    18  C   -0.161359
    19  C    0.049363
    20  C    0.038362
    21  C    0.038301
    22  C    0.217224
    23  C   -0.069229
    24  C    0.226567
    25  C   -0.008649
    26  C    0.104719
    27  C    0.122839
    28  C   -0.000631
    29  C   -0.053782
    30  C    0.077577
    31  C   -0.090881
    32  C    0.092865
    33  C   -0.184603
    34  C    0.068168
    35  C   -0.067425
    36  C   -0.186806
    37  C    0.124171
    38  C   -0.031277
    39  C    0.156830
    40  C    0.144957
    41  C    0.165064
    42  C    0.004828
    43  C   -0.108765
    44  H    0.160519
    45  H   -0.159155
    46  H    0.042525
    47  H    0.039987
    48  H    0.042186
    49  H   -0.024220
    50  H   -0.020125
    51  H   -0.076016
    52  H    0.213498
    53  H    0.020132
    54  H    0.002038
    55  H    0.015999
    56  H    0.180659
    57  H    0.055081
    58  H    0.062505
    59  H    0.044581
    60  H    0.082119
    61  H    0.013183
    62  H   -0.001824
    63  H    0.040137
    64  H   -0.082844
    65  H    0.006295
    66  H    0.020060
    67  H    0.027498
    68  H    0.027570
    69  H    0.133960
    70  H    0.029092
    71  H    0.054985
    72  H   -0.024977
    73  H    0.021037
    74  H    0.040606
    75  H    0.010524
    76  H    0.040698
    77  H    0.023860
    78  H    0.020167
    79  H    0.060162
    80  H    0.188919
    81  H    0.195375
 Sum of Mulliken charges =  -0.00000

 Dipole moment (field-independent basis, Debye):
    X=             -0.3192    Y=             -2.4939    Z=              2.4260  Tot=              3.4938
 Quadrupole moment (field-independent basis, Debye-Ang):
   XX=           -250.4092   YY=           -235.5099   ZZ=           -256.2934
   XY=            -12.9229   XZ=              9.9811   YZ=              6.9269

 Normal termination of Gaussian 16 at Fri Jun 28 22:52:53 2019.
