 Gaussian 16, Revision A.03,
 Gaussian 16:  ES64L-G16RevA.03 25-Dec-2016

 --------------------------
 # td=(NStates=1) B3LYP/SVP
 --------------------------

 --
 TD
 --
 Symbolic Z-matrix:
 Charge =  0 Multiplicity = 1

                         Standard orientation:
 ---------------------------------------------------------------------
 Center     Atomic      Atomic             Coordinates (Angstroms)
 Number     Number       Type             X           Y           Z
 ---------------------------------------------------------------------
      1          8           0       -3.937159   -4.901081    2.045224
      2          8           0        3.103482   -4.720455    1.156744
      3          8           0        6.808239   -1.450706    1.789563
      4          8           0        3.979191   -3.058807   -0.115525
      5          8           0        7.465810   -0.645250   -0.254206
      6          8           0       -2.993366    2.199274   -0.414467
      7          7           0       -0.253477   -0.472369   -0.640949
      8          7           0        1.447144    1.945123   -0.408006
      9          7           0       -3.161455   -3.093460    0.733098
     10          7           0       -0.869594    2.867776   -0.025301
     11          6           0        0.707681   -2.393173   -1.357642
     12          6           0        0.934870   -1.018026   -0.977061
     13          6           0       -0.673957   -2.651546   -1.236821
     14          6           0       -1.277472   -1.423260   -0.724452
     15          6           0        3.748541    1.665694   -0.238865
     16          6           0        2.468884    0.965620   -0.627721
     17          6           0        2.198798   -0.296577   -1.021889
     18          6           0        3.529727    2.924083    0.200358
     19          6           0        1.673275   -3.349611   -1.954366
     20          6           0       -5.359461   -2.799646    1.448860
     21          6           0       -3.536091   -1.860838    0.251048
     22          6           0        2.059620    3.085461    0.171026
     23          6           0       -5.029754   -1.615539    0.511937
     24          6           0        5.081348    0.962262   -0.434566
     25          6           0       -2.703375   -1.035059   -0.462020
     26          6           0       -1.408998   -3.828027   -1.643242
     27          6           0       -4.106633   -3.768929    1.508154
     28          6           0        2.153491   -4.427208   -1.059887
     29          6           0        5.316464    0.003892    0.732380
     30          6           0        4.407419    3.959609    0.731552
     31          6           0        1.102310    4.172091    0.439005
     32          6           0       -6.609427   -3.737314    0.911305
     33          6           0       -5.801368   -0.737936   -0.104398
     34          6           0       -0.240579    4.030876    0.368242
     35          6           0       -1.145268    5.120419    0.471647
     36          6           0       -2.414204    4.609505    0.173591
     37          6           0        3.123597   -3.942659    0.031698
     38          6           0       -5.499909    0.406949   -0.967284
     39          6           0        6.655850   -0.698468    0.690808
     40          6           0       -3.733916    5.239313    0.275215
     41          6           0       -2.175336    3.120845   -0.215593
     42          6           0       -0.812942    6.501397    0.926356
     43          6           0       -4.437133    5.254292   -1.176779
     44          1           0       -0.437755    0.462642   -0.375378
     45          1           0        3.020554   -0.928222   -0.796749
     46          1           0        2.505446   -2.706488   -2.443949
     47          1           0        1.322378   -3.928823   -2.768797
     48          1           0       -5.573672   -2.360322    2.485310
     49          1           0        5.079720    0.404753   -1.449703
     50          1           0        5.969438    1.763529   -0.369928
     51          1           0       -2.865531    0.109845   -0.812420
     52          1           0        0.426868    1.916545   -0.442380
     53          1           0       -1.455359   -4.541533   -0.964883
     54          1           0       -2.498953   -3.643603   -1.816616
     55          1           0       -0.936153   -4.351420   -2.609723
     56          1           0       -2.229702   -3.456491    0.479219
     57          1           0        1.289269   -4.891840   -0.518851
     58          1           0        2.715458   -4.965779   -1.625643
     59          1           0        4.539892   -0.777598    0.687163
     60          1           0        5.202571    0.567694    1.715596
     61          1           0        4.439173    4.802444   -0.051968
     62          1           0        5.592166    3.433822    0.816920
     63          1           0        4.168020    4.210828    1.808179
     64          1           0        1.600296    5.035082    0.930564
     65          1           0       -7.533910   -3.073371    0.767549
     66          1           0       -6.656091   -4.537311    1.637757
     67          1           0       -6.260489   -3.968496   -0.221600
     68          1           0       -6.776944   -0.860807    0.227636
     69          1           0       -5.266326    1.211157   -0.096604
     70          1           0       -6.364004    0.763284   -1.584691
     71          1           0       -4.613968    0.257738   -1.741879
     72          1           0       -3.577996    6.212709    0.746935
     73          1           0       -4.374092    4.546860    0.867976
     74          1           0       -0.768746    6.686221    2.069763
     75          1           0       -1.643662    7.264886    0.732399
     76          1           0        0.248371    6.812766    0.319913
     77          1           0       -3.952414    6.002796   -1.811523
     78          1           0       -5.623949    5.624293   -1.054187
     79          1           0       -4.605504    4.405918   -1.577266
     80          1           0        3.532288   -4.273258    1.880701
     81          1           0        7.639104   -1.974663    1.847039
 ---------------------------------------------------------------------

 SCF Done:  E(RB3LYP) =  -1949.12515227     A.U. after   18 cycles

 Excitation energies and oscillator strengths:

 Excited State   1:      Singlet-A      1.7646 eV  702.62 nm  f=0.2800  <S**2>=0.000
     156 ->157         0.70698
     156 <-157        -0.10261
 This state for optimization and/or second-order correction.
 Total Energy, E(TD-HF/TD-DFT) =  -1949.06030490
 Copying the excited state density for this state as the 1-particle RhoCI density.

 The electronic state is 1-A.
 Alpha  occ. eigenvalues --  -19.19268 -19.18756 -19.14334 -19.12269 -19.11507
 Alpha  occ. eigenvalues --  -19.09399 -14.37836 -14.37510 -14.35802 -14.28063
 Alpha  occ. eigenvalues --  -10.33788 -10.32317 -10.30242 -10.25906 -10.25598
 Alpha  occ. eigenvalues --  -10.24019 -10.23971 -10.23733 -10.23548 -10.22964
 Alpha  occ. eigenvalues --  -10.22119 -10.21975 -10.21883 -10.21629 -10.21622
 Alpha  occ. eigenvalues --  -10.21322 -10.20994 -10.20924 -10.20876 -10.20770
 Alpha  occ. eigenvalues --  -10.20534 -10.19900 -10.19830 -10.19676 -10.19634
 Alpha  occ. eigenvalues --  -10.19558 -10.19526 -10.19456 -10.19378 -10.19337
 Alpha  occ. eigenvalues --  -10.19188 -10.18895 -10.18213  -1.10038  -1.08877
 Alpha  occ. eigenvalues --   -1.01230  -1.00942  -0.99713  -0.99104  -0.98323
 Alpha  occ. eigenvalues --   -0.95935  -0.94735  -0.91211  -0.83705  -0.82749
 Alpha  occ. eigenvalues --   -0.81273  -0.81023  -0.79637  -0.79307  -0.78068
 Alpha  occ. eigenvalues --   -0.77371  -0.76335  -0.74766  -0.73791  -0.72942
 Alpha  occ. eigenvalues --   -0.71771  -0.69333  -0.68918  -0.68295  -0.67317
 Alpha  occ. eigenvalues --   -0.67137  -0.65387  -0.64451  -0.62963  -0.62387
 Alpha  occ. eigenvalues --   -0.61646  -0.60141  -0.58776  -0.57882  -0.57141
 Alpha  occ. eigenvalues --   -0.55989  -0.55457  -0.54704  -0.53512  -0.52924
 Alpha  occ. eigenvalues --   -0.52345  -0.51485  -0.50988  -0.50599  -0.49835
 Alpha  occ. eigenvalues --   -0.49538  -0.48843  -0.48451  -0.47435  -0.47259
 Alpha  occ. eigenvalues --   -0.46749  -0.46578  -0.45999  -0.45731  -0.45199
 Alpha  occ. eigenvalues --   -0.45045  -0.44724  -0.44286  -0.43609  -0.43301
 Alpha  occ. eigenvalues --   -0.43218  -0.43087  -0.42474  -0.42451  -0.42149
 Alpha  occ. eigenvalues --   -0.41833  -0.41502  -0.41237  -0.41071  -0.40910
 Alpha  occ. eigenvalues --   -0.40763  -0.40528  -0.40214  -0.39904  -0.39422
 Alpha  occ. eigenvalues --   -0.39351  -0.38855  -0.38587  -0.38390  -0.38119
 Alpha  occ. eigenvalues --   -0.37530  -0.37312  -0.37143  -0.36926  -0.36536
 Alpha  occ. eigenvalues --   -0.36256  -0.35642  -0.35243  -0.35057  -0.34848
 Alpha  occ. eigenvalues --   -0.34348  -0.34137  -0.33822  -0.33244  -0.32990
 Alpha  occ. eigenvalues --   -0.32678  -0.31916  -0.31099  -0.29489  -0.29254
 Alpha  occ. eigenvalues --   -0.27797  -0.27247  -0.26285  -0.26226  -0.25858
 Alpha  occ. eigenvalues --   -0.25388  -0.24542  -0.23825  -0.22381  -0.21646
 Alpha  occ. eigenvalues --   -0.18243
 Alpha virt. eigenvalues --   -0.10952  -0.05682  -0.03257  -0.02352  -0.00171
 Alpha virt. eigenvalues --   -0.00113   0.01490   0.02250   0.03367   0.03723
 Alpha virt. eigenvalues --    0.04093   0.04342   0.04718   0.05442   0.05936

 Mulliken charges:
               1
     1  O   -0.256331
     2  O   -0.179330
     3  O   -0.190812
     4  O   -0.247106
     5  O   -0.256247
     6  O   -0.259703
     7  N   -0.032425
     8  N   -0.149116
     9  N   -0.109380
    10  N   -0.306617
    11  C   -0.099517
    12  C    0.002594
    13  C   -0.163269
    14  C   -0.014522
    15  C   -0.062538
    16  C    0.087285
    17  C    0.006703
    18  C   -0.076765
    19  C    0.065708
    20  C   -0.127830
    21  C    0.068493
    22  C    0.047688
    23  C    0.018107
    24  C    0.036740
    25  C   -0.149990
    26  C    0.107581
    27  C    0.197658
    28  C    0.159239
    29  C   -0.032179
    30  C   -0.005347
    31  C   -0.133182
    32  C   -0.005883
    33  C   -0.128129
    34  C    0.157899
    35  C   -0.078635
    36  C   -0.182876
    37  C    0.110136
    38  C    0.037913
    39  C    0.173117
    40  C    0.098237
    41  C    0.162011
    42  C   -0.013509
    43  C    0.016144
    44  H    0.108774
    45  H    0.005706
    46  H    0.028242
    47  H   -0.015549
    48  H    0.055985
    49  H    0.052323
    50  H    0.033230
    51  H    0.107639
    52  H    0.126888
    53  H   -0.016498
    54  H    0.029588
    55  H    0.032545
    56  H    0.134665
    57  H    0.039902
    58  H   -0.019503
    59  H    0.052844
    60  H    0.038018
    61  H    0.062552
    62  H    0.034782
    63  H    0.059399
    64  H   -0.011712
    65  H    0.036094
    66  H    0.054651
    67  H    0.039392
    68  H   -0.040559
    69  H    0.086490
    70  H    0.014431
    71  H    0.057174
    72  H   -0.005298
    73  H    0.023571
    74  H    0.042107
    75  H    0.022045
    76  H    0.052313
    77  H    0.023202
    78  H    0.002065
    79  H   -0.014242
    80  H    0.180813
    81  H    0.193919
 Sum of Mulliken charges =  -0.00000

 Dipole moment (field-independent basis, Debye):
    X=              2.1218    Y=              1.4429    Z=              1.2015  Tot=              2.8334
 Quadrupole moment (field-independent basis, Debye-Ang):
   XX=           -252.4337   YY=           -245.4140   ZZ=           -252.9638
   XY=            -13.0665   XZ=             21.4573   YZ=             15.9469

 Normal termination of Gaussian 16 at Tue Jul  2 08:29:52 2019.
