 Gaussian 16, Revision A.03,
 Gaussian 16:  ES64L-G16RevA.03 25-Dec-2016

 --------------------------
 # td=(NStates=1) B3LYP/SVP
 --------------------------

 --
 TD
 --
 Symbolic Z-matrix:
 Charge =  0 Multiplicity = 1

                         Standard orientation:
 ---------------------------------------------------------------------
 Center     Atomic      Atomic             Coordinates (Angstroms)
 Number     Number       Type             X           Y           Z
 ---------------------------------------------------------------------
      1          8           0        4.319885   -4.844515   -1.751755
      2          8           0       -2.915824   -4.821707   -1.088395
      3          8           0       -6.944224   -1.700667   -1.976431
      4          8           0       -3.852554   -3.192043    0.228850
      5          8           0       -7.822527   -0.685916   -0.165861
      6          8           0        2.963071    2.361655    0.241004
      7          7           0        0.320753   -0.433184    0.590075
      8          7           0       -1.596825    1.798225    0.466989
      9          7           0        3.400090   -3.169314   -0.557581
     10          7           0        0.755560    2.898725    0.105415
     11          6           0       -0.559013   -2.296895    1.525448
     12          6           0       -0.923534   -1.048040    1.075787
     13          6           0        0.794091   -2.564573    1.275315
     14          6           0        1.431055   -1.382708    0.683621
     15          6           0       -3.845314    1.438340    0.226348
     16          6           0       -2.511284    0.836669    0.593967
     17          6           0       -2.188965   -0.540117    0.893088
     18          6           0       -3.612955    2.734065   -0.042975
     19          6           0       -1.534053   -3.320370    2.015780
     20          6           0        5.536881   -2.856507   -1.377771
     21          6           0        3.635108   -1.783022   -0.302093
     22          6           0       -2.181235    3.003906    0.031127
     23          6           0        5.063613   -1.536196   -0.590716
     24          6           0       -5.124116    0.707595    0.359850
     25          6           0        2.725199   -0.945540    0.347002
     26          6           0        1.563157   -3.675757    1.978028
     27          6           0        4.334527   -3.788111   -1.297630
     28          6           0       -1.920056   -4.496781    1.014460
     29          6           0       -5.338777   -0.213470   -0.957858
     30          6           0       -4.616270    3.776622   -0.225760
     31          6           0       -1.375395    4.106315   -0.302193
     32          6           0        6.925776   -3.342129   -0.924189
     33          6           0        5.873420   -0.473387   -0.120490
     34          6           0        0.009295    4.067362   -0.292834
     35          6           0        1.001126    5.136519   -0.585857
     36          6           0        2.210989    4.590520   -0.288801
     37          6           0       -2.996881   -4.009980   -0.029391
     38          6           0        5.443788    0.703206    0.584271
     39          6           0       -6.795261   -0.804461   -0.910861
     40          6           0        3.632628    5.369679   -0.336870
     41          6           0        2.014658    3.170939    0.025126
     42          6           0        0.607818    6.608368   -0.785665
     43          6           0        4.132121    5.509080    1.128357
     44          1           0        0.437358    0.411257   -0.128744
     45          1           0       -2.923067   -1.284345    0.983667
     46          1           0       -2.380505   -2.728388    2.474545
     47          1           0       -1.171499   -3.791865    2.906387
     48          1           0        5.739291   -2.463028   -2.487770
     49          1           0       -5.132174    0.058845    1.316653
     50          1           0       -5.892336    1.349261    0.351139
     51          1           0        3.049875    0.019156    0.060937
     52          1           0       -0.485681    2.000082    0.749172
     53          1           0        1.403973   -4.554487    1.277943
     54          1           0        2.833413   -3.446437    2.029979
     55          1           0        1.228762   -3.913993    3.049790
     56          1           0        2.446242   -3.561126   -0.500915
     57          1           0       -0.932507   -4.943950    0.587170
     58          1           0       -2.416825   -5.410021    1.606933
     59          1           0       -4.451502   -0.975555   -0.998829
     60          1           0       -5.239225    0.467653   -1.801382
     61          1           0       -4.917131    4.292469    0.972125
     62          1           0       -5.563787    3.120806   -0.939927
     63          1           0       -4.026764    4.798244   -1.040109
     64          1           0       -2.209507    5.138001   -0.628659
     65          1           0        7.653596   -2.705495   -1.315421
     66          1           0        7.095417   -4.141858   -1.483908
     67          1           0        7.021178   -3.349667    0.124071
     68          1           0        6.954529   -0.596179   -0.203998
     69          1           0        5.167554    1.575391   -0.202732
     70          1           0        6.474951    1.135592    1.100562
     71          1           0        4.485937    0.556532    1.328275
     72          1           0        3.562980    6.251320   -0.847419
     73          1           0        4.173749    4.475671   -0.943834
     74          1           0        0.249446    7.067141   -1.904963
     75          1           0        1.686363    7.230863   -1.052945
     76          1           0        0.052628    6.994708    0.132245
     77          1           0        3.502904    5.986008    1.841722
     78          1           0        4.955876    6.184303    1.313542
     79          1           0        4.470080    4.562544    1.669911
     80          1           0       -3.611421   -4.502892   -1.909497
     81          1           0       -7.904702   -1.989023   -1.933022
 ---------------------------------------------------------------------

 SCF Done:  E(RB3LYP) =  -1948.94513536     A.U. after   23 cycles

 Excitation energies and oscillator strengths:

 Excited State   1:      Singlet-A      1.6582 eV  747.71 nm  f=0.3297  <S**2>=0.000
     156 ->157         0.71017
     156 <-157        -0.13865
 This state for optimization and/or second-order correction.
 Total Energy, E(TD-HF/TD-DFT) =  -1948.88419776
 Copying the excited state density for this state as the 1-particle RhoCI density.

 The electronic state is 1-A.
 Alpha  occ. eigenvalues --  -19.21352 -19.17719 -19.15209 -19.13706 -19.11094
 Alpha  occ. eigenvalues --  -19.07875 -14.37372 -14.37277 -14.35953 -14.28771
 Alpha  occ. eigenvalues --  -10.34478 -10.33689 -10.28659 -10.26051 -10.25374
 Alpha  occ. eigenvalues --  -10.25003 -10.24634 -10.24083 -10.24034 -10.23999
 Alpha  occ. eigenvalues --  -10.23382 -10.23246 -10.23113 -10.22336 -10.22297
 Alpha  occ. eigenvalues --  -10.21680 -10.21340 -10.21151 -10.21096 -10.20861
 Alpha  occ. eigenvalues --  -10.20808 -10.20588 -10.20501 -10.20480 -10.20115
 Alpha  occ. eigenvalues --  -10.20083 -10.19998 -10.19903 -10.19611 -10.18918
 Alpha  occ. eigenvalues --  -10.18707 -10.17172 -10.17134  -1.10423  -1.07145
 Alpha  occ. eigenvalues --   -1.07129  -1.02489  -0.98594  -0.97464  -0.97386
 Alpha  occ. eigenvalues --   -0.96077  -0.94044  -0.90592  -0.82443  -0.82212
 Alpha  occ. eigenvalues --   -0.80924  -0.80742  -0.79039  -0.78010  -0.77049
 Alpha  occ. eigenvalues --   -0.76880  -0.76058  -0.75273  -0.73432  -0.71783
 Alpha  occ. eigenvalues --   -0.70278  -0.69861  -0.67577  -0.67218  -0.67153
 Alpha  occ. eigenvalues --   -0.66252  -0.65642  -0.63436  -0.62007  -0.61351
 Alpha  occ. eigenvalues --   -0.60285  -0.59298  -0.58481  -0.57972  -0.56167
 Alpha  occ. eigenvalues --   -0.55535  -0.54469  -0.53809  -0.53308  -0.52329
 Alpha  occ. eigenvalues --   -0.51341  -0.50862  -0.50082  -0.49805  -0.48980
 Alpha  occ. eigenvalues --   -0.48829  -0.48463  -0.48340  -0.47988  -0.47462
 Alpha  occ. eigenvalues --   -0.47025  -0.46357  -0.45824  -0.45266  -0.45084
 Alpha  occ. eigenvalues --   -0.44542  -0.44463  -0.44105  -0.43657  -0.43393
 Alpha  occ. eigenvalues --   -0.42934  -0.42656  -0.42358  -0.41995  -0.41875
 Alpha  occ. eigenvalues --   -0.41544  -0.41359  -0.41157  -0.40676  -0.40335
 Alpha  occ. eigenvalues --   -0.39991  -0.39458  -0.39285  -0.39159  -0.39118
 Alpha  occ. eigenvalues --   -0.39005  -0.38308  -0.38227  -0.37776  -0.37609
 Alpha  occ. eigenvalues --   -0.37346  -0.37252  -0.37050  -0.36567  -0.35968
 Alpha  occ. eigenvalues --   -0.35675  -0.35489  -0.35171  -0.35003  -0.34517
 Alpha  occ. eigenvalues --   -0.34355  -0.33824  -0.33766  -0.33145  -0.32859
 Alpha  occ. eigenvalues --   -0.31879  -0.31409  -0.30457  -0.30416  -0.29606
 Alpha  occ. eigenvalues --   -0.28404  -0.26852  -0.26755  -0.26257  -0.25352
 Alpha  occ. eigenvalues --   -0.25158  -0.24679  -0.23220  -0.22830  -0.22022
 Alpha  occ. eigenvalues --   -0.17901
 Alpha virt. eigenvalues --   -0.11353  -0.06245  -0.04629  -0.02686  -0.02140
 Alpha virt. eigenvalues --   -0.01053  -0.00915   0.00151   0.01528   0.02083
 Alpha virt. eigenvalues --    0.02551   0.03270   0.03758   0.04576   0.05501

 Mulliken charges:
               1
     1  O   -0.136273
     2  O   -0.236035
     3  O   -0.239439
     4  O   -0.219537
     5  O   -0.276868
     6  O   -0.288220
     7  N   -0.246492
     8  N   -0.147246
     9  N   -0.123706
    10  N   -0.289299
    11  C   -0.103163
    12  C    0.151330
    13  C   -0.145728
    14  C    0.126991
    15  C   -0.092614
    16  C    0.068824
    17  C   -0.066661
    18  C   -0.041770
    19  C    0.106311
    20  C   -0.187212
    21  C    0.032167
    22  C    0.046491
    23  C   -0.025532
    24  C    0.140070
    25  C   -0.038085
    26  C   -0.037620
    27  C    0.112001
    28  C   -0.047653
    29  C   -0.055004
    30  C   -0.155972
    31  C   -0.132574
    32  C    0.198007
    33  C   -0.112741
    34  C    0.090082
    35  C   -0.041356
    36  C   -0.180785
    37  C    0.176560
    38  C   -0.045597
    39  C    0.215058
    40  C    0.120701
    41  C    0.116099
    42  C   -0.052189
    43  C    0.001067
    44  H    0.190322
    45  H   -0.018270
    46  H    0.018275
    47  H   -0.016537
    48  H    0.054892
    49  H    0.051273
    50  H   -0.031220
    51  H    0.022155
    52  H    0.223366
    53  H    0.030544
    54  H    0.066915
    55  H    0.055792
    56  H    0.137616
    57  H    0.051422
    58  H    0.070130
    59  H    0.079871
    60  H    0.042232
    61  H    0.090257
    62  H    0.064108
    63  H    0.050132
    64  H    0.045936
    65  H   -0.016934
    66  H   -0.025865
    67  H    0.010062
    68  H    0.000102
    69  H    0.096033
    70  H    0.020192
    71  H    0.093043
    72  H   -0.024877
    73  H    0.048103
    74  H    0.046193
    75  H    0.017980
    76  H    0.065388
    77  H   -0.008760
    78  H   -0.014769
    79  H    0.035595
    80  H    0.250841
    81  H    0.192074
 Sum of Mulliken charges =  -0.00000

 Dipole moment (field-independent basis, Debye):
    X=             -1.2381    Y=             -0.7518    Z=             -1.0602  Tot=              1.7950
 Quadrupole moment (field-independent basis, Debye-Ang):
   XX=           -259.9046   YY=           -245.2265   ZZ=           -251.0943
   XY=             12.6391   XZ=             12.5146   YZ=             -7.9153

 Normal termination of Gaussian 16 at Mon Jul  1 17:35:19 2019.
