 Gaussian 16, Revision A.03,
 Gaussian 16:  ES64L-G16RevA.03 25-Dec-2016

 --------------------------
 # td=(NStates=1) B3LYP/SVP
 --------------------------

 --
 TD
 --
 Symbolic Z-matrix:
 Charge =  0 Multiplicity = 1

                         Standard orientation:
 ---------------------------------------------------------------------
 Center     Atomic      Atomic             Coordinates (Angstroms)
 Number     Number       Type             X           Y           Z
 ---------------------------------------------------------------------
      1          8           0        3.968901   -4.914851   -2.000230
      2          8           0       -3.190975   -4.942576   -0.969189
      3          8           0       -6.913334   -1.460442   -1.886058
      4          8           0       -3.607963   -2.899032   -0.082181
      5          8           0       -7.514968   -0.531826    0.135757
      6          8           0        3.095577    2.217576    0.313020
      7          7           0        0.305786   -0.474736    0.564260
      8          7           0       -1.566009    1.920000    0.311119
      9          7           0        3.136768   -3.185512   -0.613401
     10          7           0        0.840314    2.940432    0.070738
     11          6           0       -0.671013   -2.261200    1.493088
     12          6           0       -0.961267   -0.960112    1.055891
     13          6           0        0.750664   -2.578880    1.309358
     14          6           0        1.300504   -1.482061    0.758358
     15          6           0       -3.732055    1.581899    0.174674
     16          6           0       -2.470430    0.972481    0.505510
     17          6           0       -2.178050   -0.388585    0.890730
     18          6           0       -3.451164    2.899940   -0.048157
     19          6           0       -1.611293   -3.304879    2.059367
     20          6           0        5.329131   -2.946923   -1.359087
     21          6           0        3.506132   -1.926353   -0.180141
     22          6           0       -2.049650    3.104938   -0.148886
     23          6           0        4.857070   -1.690974   -0.478619
     24          6           0       -4.998415    0.854258    0.200953
     25          6           0        2.612909   -1.074443    0.370262
     26          6           0        1.500958   -3.834455    1.875472
     27          6           0        4.088734   -3.784934   -1.487252
     28          6           0       -2.135969   -4.447919    1.137857
     29          6           0       -5.341211   -0.116008   -0.867443
     30          6           0       -4.451742    4.018532   -0.406504
     31          6           0       -1.192583    4.166376   -0.294808
     32          6           0        6.663544   -3.747003   -0.885073
     33          6           0        5.743788   -0.701643   -0.103514
     34          6           0        0.240754    4.125871   -0.260570
     35          6           0        1.184508    5.130598   -0.502201
     36          6           0        2.460504    4.578211   -0.268053
     37          6           0       -3.102284   -4.079091    0.050083
     38          6           0        5.491741    0.581091    0.642029
     39          6           0       -6.698263   -0.690648   -0.798543
     40          6           0        3.741568    5.135476   -0.203603
     41          6           0        2.204031    3.099742    0.008770
     42          6           0        0.834002    6.544393   -0.813745
     43          6           0        4.432060    5.528296    1.148073
     44          1           0        0.300124    0.352773   -0.014273
     45          1           0       -2.865755   -1.190999    1.112065
     46          1           0       -2.490293   -2.835040    2.551507
     47          1           0       -1.157143   -3.880251    3.057714
     48          1           0        5.469998   -2.484980   -2.510992
     49          1           0       -5.062092    0.314937    1.187020
     50          1           0       -6.058104    1.500777    0.263326
     51          1           0        2.619374    0.052761    0.463955
     52          1           0       -0.546996    1.800079    0.685155
     53          1           0        1.371800   -4.633780    1.231657
     54          1           0        2.558798   -3.411440    2.120099
     55          1           0        1.028873   -4.280506    2.931184
     56          1           0        2.051378   -3.434159   -0.807931
     57          1           0       -1.157575   -4.842588    0.734810
     58          1           0       -2.688171   -5.175766    1.758363
     59          1           0       -4.573006   -0.881054   -1.060923
     60          1           0       -5.355999    0.526804   -1.711450
     61          1           0       -4.681897    5.049132    0.039217
     62          1           0       -5.344355    3.600727   -0.199350
     63          1           0       -4.451857    4.204472   -1.417801
     64          1           0       -1.595208    5.221847   -0.454032
     65          1           0        7.408467   -2.897449   -0.924224
     66          1           0        6.688091   -4.512843   -1.640592
     67          1           0        6.432441   -4.132114    0.013063
     68          1           0        6.723175   -0.961032   -0.413223
     69          1           0        4.553768    1.228970    0.049188
     70          1           0        6.385627    1.151202    0.763148
     71          1           0        5.045432    0.498749    1.773607
     72          1           0        3.543151    6.094808   -0.878975
     73          1           0        4.130245    4.514883   -0.757731
     74          1           0        0.308797    6.548421   -1.864748
     75          1           0        1.791466    6.880664   -0.952064
     76          1           0        0.160887    7.192297   -0.091268
     77          1           0        3.937152    6.401656    1.702377
     78          1           0        5.494705    5.876486    0.902021
     79          1           0        4.353903    4.704318    1.890426
     80          1           0       -3.660644   -4.439216   -1.696297
     81          1           0       -7.767755   -1.711569   -1.697660
 ---------------------------------------------------------------------

 SCF Done:  E(RB3LYP) =  -1949.04492230     A.U. after   19 cycles

 Excitation energies and oscillator strengths:

 Excited State   1:      Singlet-A      1.4995 eV  826.86 nm  f=0.2263  <S**2>=0.000
     154 ->157         0.13585
     156 ->157         0.70158
     156 <-157        -0.13679
 This state for optimization and/or second-order correction.
 Total Energy, E(TD-HF/TD-DFT) =  -1948.98981852
 Copying the excited state density for this state as the 1-particle RhoCI density.

 The electronic state is 1-A.
 Alpha  occ. eigenvalues --  -19.21347 -19.19150 -19.14603 -19.13325 -19.11374
 Alpha  occ. eigenvalues --  -19.09966 -14.37562 -14.36435 -14.36088 -14.27630
 Alpha  occ. eigenvalues --  -10.35001 -10.32647 -10.29522 -10.25967 -10.23728
 Alpha  occ. eigenvalues --  -10.23575 -10.23492 -10.23470 -10.23404 -10.23022
 Alpha  occ. eigenvalues --  -10.22856 -10.22078 -10.21911 -10.21681 -10.21327
 Alpha  occ. eigenvalues --  -10.21146 -10.20495 -10.20276 -10.20173 -10.20146
 Alpha  occ. eigenvalues --  -10.20073 -10.19655 -10.19606 -10.19600 -10.19563
 Alpha  occ. eigenvalues --  -10.19480 -10.19258 -10.18868 -10.18829 -10.18226
 Alpha  occ. eigenvalues --  -10.18048 -10.18014 -10.17652  -1.11545  -1.11400
 Alpha  occ. eigenvalues --   -1.01856  -1.00206  -0.99751  -0.99431  -0.97892
 Alpha  occ. eigenvalues --   -0.96157  -0.94722  -0.90810  -0.82708  -0.82204
 Alpha  occ. eigenvalues --   -0.81803  -0.80882  -0.80009  -0.79202  -0.78383
 Alpha  occ. eigenvalues --   -0.77955  -0.76680  -0.75809  -0.73727  -0.72270
 Alpha  occ. eigenvalues --   -0.71546  -0.69460  -0.69326  -0.68818  -0.67847
 Alpha  occ. eigenvalues --   -0.67642  -0.66348  -0.64320  -0.63348  -0.61971
 Alpha  occ. eigenvalues --   -0.61371  -0.60059  -0.58900  -0.57393  -0.56658
 Alpha  occ. eigenvalues --   -0.55901  -0.54937  -0.54486  -0.54008  -0.52223
 Alpha  occ. eigenvalues --   -0.52155  -0.51582  -0.51492  -0.50895  -0.50342
 Alpha  occ. eigenvalues --   -0.49769  -0.49742  -0.49344  -0.48909  -0.47914
 Alpha  occ. eigenvalues --   -0.47009  -0.46547  -0.45857  -0.45278  -0.45085
 Alpha  occ. eigenvalues --   -0.44937  -0.44208  -0.44010  -0.43848  -0.43505
 Alpha  occ. eigenvalues --   -0.43302  -0.42943  -0.42511  -0.42354  -0.42077
 Alpha  occ. eigenvalues --   -0.41782  -0.41738  -0.41337  -0.41161  -0.40943
 Alpha  occ. eigenvalues --   -0.40829  -0.40347  -0.40122  -0.39995  -0.39549
 Alpha  occ. eigenvalues --   -0.39238  -0.38778  -0.38432  -0.38344  -0.38267
 Alpha  occ. eigenvalues --   -0.37859  -0.37674  -0.37421  -0.36763  -0.36322
 Alpha  occ. eigenvalues --   -0.36080  -0.35727  -0.35205  -0.34632  -0.34587
 Alpha  occ. eigenvalues --   -0.34500  -0.33497  -0.33341  -0.33171  -0.32895
 Alpha  occ. eigenvalues --   -0.32416  -0.32211  -0.31544  -0.30273  -0.29601
 Alpha  occ. eigenvalues --   -0.28683  -0.26524  -0.26361  -0.26185  -0.25356
 Alpha  occ. eigenvalues --   -0.25157  -0.24775  -0.23529  -0.21760  -0.21236
 Alpha  occ. eigenvalues --   -0.17648
 Alpha virt. eigenvalues --   -0.11498  -0.06563  -0.04664  -0.04347  -0.01513
 Alpha virt. eigenvalues --   -0.00834   0.01521   0.02390   0.03223   0.03994
 Alpha virt. eigenvalues --    0.04531   0.04815   0.05243   0.05430   0.05828

 Mulliken charges:
               1
     1  O   -0.240525
     2  O   -0.168784
     3  O   -0.123727
     4  O   -0.299729
     5  O   -0.266103
     6  O   -0.306705
     7  N   -0.172941
     8  N   -0.071634
     9  N   -0.188356
    10  N   -0.312181
    11  C   -0.068229
    12  C    0.061437
    13  C   -0.186049
    14  C    0.083508
    15  C   -0.001369
    16  C    0.047420
    17  C   -0.017992
    18  C   -0.138590
    19  C   -0.008184
    20  C   -0.170252
    21  C    0.155945
    22  C    0.138916
    23  C   -0.026690
    24  C   -0.019946
    25  C   -0.154832
    26  C    0.073122
    27  C    0.156697
    28  C    0.039010
    29  C    0.051539
    30  C    0.146956
    31  C   -0.124725
    32  C    0.117942
    33  C   -0.073503
    34  C    0.071756
    35  C   -0.111100
    36  C   -0.207473
    37  C    0.163411
    38  C   -0.038688
    39  C    0.133349
    40  C    0.160789
    41  C    0.188271
    42  C    0.110899
    43  C    0.007357
    44  H    0.130970
    45  H   -0.004260
    46  H    0.015426
    47  H    0.032841
    48  H    0.062504
    49  H    0.023425
    50  H    0.038950
    51  H    0.044428
    52  H    0.174529
    53  H    0.011296
    54  H    0.067807
    55  H    0.031017
    56  H    0.180380
    57  H    0.056303
    58  H    0.049964
    59  H    0.055337
    60  H    0.010319
    61  H    0.026140
    62  H   -0.048744
    63  H   -0.003799
    64  H   -0.008957
    65  H    0.043299
    66  H    0.036615
    67  H    0.002839
    68  H   -0.032727
    69  H    0.144252
    70  H   -0.001027
    71  H    0.044425
    72  H   -0.005240
    73  H   -0.065059
    74  H    0.026476
    75  H   -0.032625
    76  H    0.053121
    77  H    0.017166
    78  H    0.032514
    79  H    0.036252
    80  H    0.209166
    81  H    0.134661
 Sum of Mulliken charges =  -0.00000

 Dipole moment (field-independent basis, Debye):
    X=             -2.4619    Y=             -0.3601    Z=             -0.6095  Tot=              2.5617
 Quadrupole moment (field-independent basis, Debye-Ang):
   XX=           -253.1534   YY=           -241.1788   ZZ=           -253.6376
   XY=             16.6563   XZ=             14.8258   YZ=            -13.8466

 Normal termination of Gaussian 16 at Sun Jun 30 11:54:29 2019.
