 Gaussian 16, Revision A.03,
 Gaussian 16:  ES64L-G16RevA.03 25-Dec-2016

 --------------------------
 # td=(NStates=1) B3LYP/SVP
 --------------------------

 --
 TD
 --
 Symbolic Z-matrix:
 Charge =  0 Multiplicity = 1

                         Standard orientation:
 ---------------------------------------------------------------------
 Center     Atomic      Atomic             Coordinates (Angstroms)
 Number     Number       Type             X           Y           Z
 ---------------------------------------------------------------------
      1          8           0        4.292370   -4.899252   -1.715585
      2          8           0       -2.782806   -4.837859   -1.201683
      3          8           0       -7.102701   -1.565412   -1.826307
      4          8           0       -3.816770   -3.290177   -0.027890
      5          8           0       -7.760484   -0.570865    0.100286
      6          8           0        3.170264    2.457706    0.294830
      7          7           0        0.229962   -0.547055    0.523641
      8          7           0       -1.525347    1.906331    0.280798
      9          7           0        3.262467   -3.092512   -0.645952
     10          7           0        0.870616    2.934848    0.127772
     11          6           0       -0.596556   -2.350919    1.492889
     12          6           0       -0.952698   -1.095484    0.999793
     13          6           0        0.720706   -2.596791    1.303442
     14          6           0        1.345682   -1.381607    0.685910
     15          6           0       -3.736888    1.411719    0.314599
     16          6           0       -2.397752    0.866449    0.414528
     17          6           0       -2.206922   -0.522125    0.842068
     18          6           0       -3.614173    2.794050   -0.091021
     19          6           0       -1.609251   -3.409936    2.009170
     20          6           0        5.524207   -2.834927   -1.254577
     21          6           0        3.556575   -1.805912   -0.196247
     22          6           0       -2.063700    3.096115   -0.099670
     23          6           0        5.005595   -1.561856   -0.522762
     24          6           0       -5.091608    0.768404    0.407655
     25          6           0        2.635287   -1.030262    0.371040
     26          6           0        1.437619   -4.007928    1.730776
     27          6           0        4.332569   -3.780301   -1.282795
     28          6           0       -2.084295   -4.558681    1.140113
     29          6           0       -5.392524   -0.121728   -0.751472
     30          6           0       -4.505568    3.956935   -0.576973
     31          6           0       -1.258386    4.173533   -0.222171
     32          6           0        6.723785   -3.605012   -0.894913
     33          6           0        5.852324   -0.553812   -0.171759
     34          6           0        0.185308    4.063819   -0.187549
     35          6           0        1.064732    5.201871   -0.345049
     36          6           0        2.307798    4.727201   -0.133268
     37          6           0       -3.003945   -4.168186   -0.081786
     38          6           0        5.568167    0.625286    0.684434
     39          6           0       -6.873347   -0.714501   -0.739597
     40          6           0        3.622414    5.374498   -0.257183
     41          6           0        2.163604    3.267250    0.084205
     42          6           0        0.579950    6.620543   -0.947127
     43          6           0        4.119352    5.700645    1.162748
     44          1           0        0.420492    0.341199   -0.036223
     45          1           0       -3.171468   -1.100116    0.985324
     46          1           0       -2.498386   -2.994508    2.427210
     47          1           0       -1.160271   -3.830379    2.850583
     48          1           0        5.860390   -2.703366   -2.343908
     49          1           0       -5.420568    0.234803    1.289352
     50          1           0       -5.827107    1.564518    0.555667
     51          1           0        2.857621   -0.012437    0.463194
     52          1           0       -0.630056    1.942163    0.472793
     53          1           0        1.350454   -4.619964    0.865264
     54          1           0        2.514330   -3.779177    1.895578
     55          1           0        0.958690   -4.017329    2.757134
     56          1           0        2.367168   -3.691544   -0.499263
     57          1           0       -1.097761   -4.999768    0.744716
     58          1           0       -2.555338   -5.226849    1.668307
     59          1           0       -4.661048   -1.033148   -1.089199
     60          1           0       -5.379050    0.476855   -1.749654
     61          1           0       -4.288211    4.892638   -0.065226
     62          1           0       -5.509326    3.640558   -0.158711
     63          1           0       -4.331876    4.138822   -1.676923
     64          1           0       -1.700125    5.129043   -0.787758
     65          1           0        7.778571   -3.101969   -1.109088
     66          1           0        6.982256   -4.404689   -1.769212
     67          1           0        6.702828   -3.839261    0.015029
     68          1           0        6.872237   -0.694425   -0.827597
     69          1           0        5.131074    1.522564    0.137401
     70          1           0        6.433301    0.698146    1.253720
     71          1           0        4.689045    0.315506    1.426930
     72          1           0        3.523526    6.313680   -0.697408
     73          1           0        4.363954    4.716570   -0.762717
     74          1           0        0.527906    6.392051   -2.087447
     75          1           0        1.375554    7.569225   -0.952530
     76          1           0       -0.140290    6.858522   -0.228458
     77          1           0        3.469610    6.418322    1.748108
     78          1           0        5.232465    6.136792    1.090529
     79          1           0        4.394596    4.815448    1.645731
     80          1           0       -3.345231   -4.525396   -1.886820
     81          1           0       -8.101206   -1.597611   -1.882132
 ---------------------------------------------------------------------

 SCF Done:  E(RB3LYP) =  -1949.06366666     A.U. after   24 cycles

 Excitation energies and oscillator strengths:

 Excited State   1:      Singlet-A      1.7236 eV  719.35 nm  f=0.3554  <S**2>=0.000
     156 ->157         0.71359
     156 <-157        -0.14766
 This state for optimization and/or second-order correction.
 Total Energy, E(TD-HF/TD-DFT) =  -1949.00032669
 Copying the excited state density for this state as the 1-particle RhoCI density.

 The electronic state is 1-A.
 Alpha  occ. eigenvalues --  -19.19710 -19.17605 -19.13953 -19.13399 -19.11817
 Alpha  occ. eigenvalues --  -19.09280 -14.38404 -14.37678 -14.35901 -14.28618
 Alpha  occ. eigenvalues --  -10.33516 -10.32736 -10.29428 -10.25550 -10.25188
 Alpha  occ. eigenvalues --  -10.24492 -10.24206 -10.23879 -10.23264 -10.23124
 Alpha  occ. eigenvalues --  -10.22754 -10.22485 -10.21613 -10.21594 -10.21508
 Alpha  occ. eigenvalues --  -10.21390 -10.21388 -10.21252 -10.20885 -10.20777
 Alpha  occ. eigenvalues --  -10.20734 -10.20537 -10.20429 -10.20314 -10.19870
 Alpha  occ. eigenvalues --  -10.19803 -10.19159 -10.19002 -10.18055 -10.17996
 Alpha  occ. eigenvalues --  -10.17820 -10.17668 -10.17586  -1.12573  -1.07709
 Alpha  occ. eigenvalues --   -1.04429  -1.02683  -0.99115  -0.99073  -0.97731
 Alpha  occ. eigenvalues --   -0.97419  -0.94924  -0.91301  -0.82859  -0.82374
 Alpha  occ. eigenvalues --   -0.81595  -0.81074  -0.79582  -0.79174  -0.78040
 Alpha  occ. eigenvalues --   -0.77240  -0.76733  -0.75591  -0.74304  -0.72227
 Alpha  occ. eigenvalues --   -0.71017  -0.70026  -0.69177  -0.68474  -0.67767
 Alpha  occ. eigenvalues --   -0.67151  -0.65835  -0.64207  -0.63202  -0.62722
 Alpha  occ. eigenvalues --   -0.60863  -0.59818  -0.58524  -0.57760  -0.56993
 Alpha  occ. eigenvalues --   -0.56244  -0.55873  -0.55543  -0.53145  -0.52655
 Alpha  occ. eigenvalues --   -0.52033  -0.51403  -0.51203  -0.50186  -0.49742
 Alpha  occ. eigenvalues --   -0.49495  -0.49340  -0.48869  -0.48032  -0.47841
 Alpha  occ. eigenvalues --   -0.47055  -0.46798  -0.46539  -0.45606  -0.45529
 Alpha  occ. eigenvalues --   -0.45320  -0.44762  -0.44579  -0.44364  -0.44129
 Alpha  occ. eigenvalues --   -0.44002  -0.43388  -0.42893  -0.42797  -0.42555
 Alpha  occ. eigenvalues --   -0.42175  -0.41940  -0.41602  -0.41499  -0.41223
 Alpha  occ. eigenvalues --   -0.41080  -0.40830  -0.40648  -0.40590  -0.39981
 Alpha  occ. eigenvalues --   -0.39790  -0.39187  -0.38479  -0.38410  -0.37894
 Alpha  occ. eigenvalues --   -0.37561  -0.37283  -0.37166  -0.36265  -0.36087
 Alpha  occ. eigenvalues --   -0.35561  -0.35094  -0.34967  -0.34592  -0.34166
 Alpha  occ. eigenvalues --   -0.33924  -0.33586  -0.33129  -0.32954  -0.32466
 Alpha  occ. eigenvalues --   -0.32188  -0.32021  -0.31773  -0.29585  -0.29339
 Alpha  occ. eigenvalues --   -0.28325  -0.27233  -0.26781  -0.26684  -0.26292
 Alpha  occ. eigenvalues --   -0.25540  -0.24800  -0.23687  -0.23103  -0.22306
 Alpha  occ. eigenvalues --   -0.17470
 Alpha virt. eigenvalues --   -0.10868  -0.06580  -0.03919  -0.01072  -0.00627
 Alpha virt. eigenvalues --   -0.00433   0.02233   0.02610   0.03698   0.04205
 Alpha virt. eigenvalues --    0.04300   0.04511   0.05196   0.05484   0.05684

 Mulliken charges:
               1
     1  O   -0.184333
     2  O   -0.129786
     3  O   -0.237597
     4  O   -0.215105
     5  O   -0.238453
     6  O   -0.311607
     7  N   -0.133502
     8  N    0.030432
     9  N   -0.199204
    10  N   -0.246955
    11  C   -0.092274
    12  C    0.131016
    13  C   -0.226999
    14  C    0.102066
    15  C   -0.107680
    16  C    0.059250
    17  C   -0.091255
    18  C   -0.140788
    19  C    0.147468
    20  C   -0.080284
    21  C    0.163161
    22  C    0.062165
    23  C    0.022062
    24  C    0.137200
    25  C   -0.133594
    26  C    0.082256
    27  C    0.125909
    28  C    0.081229
    29  C   -0.085752
    30  C    0.091826
    31  C   -0.141017
    32  C    0.067209
    33  C   -0.187728
    34  C    0.033336
    35  C   -0.114913
    36  C   -0.162367
    37  C    0.099493
    38  C    0.069207
    39  C    0.164212
    40  C    0.165928
    41  C    0.148630
    42  C    0.022555
    43  C   -0.033885
    44  H    0.166019
    45  H    0.048394
    46  H   -0.009310
    47  H   -0.031106
    48  H    0.040185
    49  H    0.010968
    50  H   -0.001725
    51  H   -0.017755
    52  H    0.040961
    53  H    0.052830
    54  H    0.028043
    55  H    0.057874
    56  H    0.155327
    57  H    0.025355
    58  H   -0.009069
    59  H    0.086842
    60  H    0.040347
    61  H    0.021665
    62  H    0.021498
    63  H    0.050297
    64  H    0.025734
    65  H    0.008243
    66  H    0.045049
    67  H   -0.045011
    68  H    0.025769
    69  H    0.098931
    70  H    0.003282
    71  H    0.035435
    72  H   -0.036830
    73  H    0.016050
    74  H    0.067139
    75  H    0.031727
    76  H    0.037770
    77  H    0.028979
    78  H   -0.001586
    79  H    0.007829
    80  H    0.170356
    81  H    0.191962
 Sum of Mulliken charges =  -0.00000

 Dipole moment (field-independent basis, Debye):
    X=             -1.8124    Y=             -0.2717    Z=             -1.3523  Tot=              2.2775
 Quadrupole moment (field-independent basis, Debye-Ang):
   XX=           -255.1936   YY=           -244.6340   ZZ=           -250.3158
   XY=              5.0912   XZ=             12.5426   YZ=            -14.6299

 Normal termination of Gaussian 16 at Mon Jul  1 06:38:18 2019.
