 Gaussian 16, Revision A.03,
 Gaussian 16:  ES64L-G16RevA.03 25-Dec-2016

 --------------------------
 # td=(NStates=1) B3LYP/SVP
 --------------------------

 --
 TD
 --
 Symbolic Z-matrix:
 Charge =  0 Multiplicity = 1

                         Standard orientation:
 ---------------------------------------------------------------------
 Center     Atomic      Atomic             Coordinates (Angstroms)
 Number     Number       Type             X           Y           Z
 ---------------------------------------------------------------------
      1          8           0        4.473628   -4.718488   -1.730417
      2          8           0       -2.534510   -5.052102   -1.041388
      3          8           0       -6.740563   -1.997014   -1.813974
      4          8           0       -3.477119   -3.259735    0.087499
      5          8           0       -7.571461   -0.826535   -0.084466
      6          8           0        2.878230    2.492892    0.297003
      7          7           0        0.321388   -0.445084    0.551245
      8          7           0       -1.679945    1.751326    0.331234
      9          7           0        3.421636   -3.032283   -0.611489
     10          7           0        0.607536    2.899637    0.051734
     11          6           0       -0.504774   -2.469061    1.398435
     12          6           0       -0.895674   -1.095266    1.016229
     13          6           0        0.844743   -2.595187    1.310398
     14          6           0        1.365957   -1.336312    0.779392
     15          6           0       -3.936312    1.330442    0.276948
     16          6           0       -2.550253    0.775840    0.491160
     17          6           0       -2.183670   -0.507559    0.865795
     18          6           0       -3.779568    2.616236   -0.096503
     19          6           0       -1.380990   -3.469805    1.975590
     20          6           0        5.613049   -2.547324   -1.415467
     21          6           0        3.619376   -1.664146   -0.212717
     22          6           0       -2.292909    2.931735   -0.171216
     23          6           0        5.100969   -1.361915   -0.474380
     24          6           0       -5.087229    0.564786    0.388476
     25          6           0        2.731607   -0.889898    0.425539
     26          6           0        1.681673   -3.667250    1.763877
     27          6           0        4.406400   -3.533122   -1.334234
     28          6           0       -1.707442   -4.514944    0.982674
     29          6           0       -5.313525   -0.455592   -0.796399
     30          6           0       -4.922045    3.589427   -0.438493
     31          6           0       -1.441776    4.106935   -0.345857
     32          6           0        7.018644   -3.151812   -0.841217
     33          6           0        5.871134   -0.357492   -0.138438
     34          6           0       -0.055459    3.988161   -0.226854
     35          6           0        0.786859    5.184397   -0.510513
     36          6           0        2.025138    4.790236   -0.272358
     37          6           0       -2.634138   -4.128080    0.001607
     38          6           0        5.389126    0.894628    0.486704
     39          6           0       -6.681382   -1.022360   -0.857627
     40          6           0        3.357284    5.580379   -0.327885
     41          6           0        1.942020    3.316600    0.068101
     42          6           0        0.141025    6.635455   -0.660210
     43          6           0        3.890910    5.732437    1.108004
     44          1           0        0.457326    0.733399    0.402292
     45          1           0       -2.971387   -1.156060    1.098040
     46          1           0       -2.385550   -3.001892    2.293665
     47          1           0       -0.949904   -4.003427    2.864052
     48          1           0        5.868043   -2.169691   -2.392869
     49          1           0       -5.013988   -0.168691    1.266122
     50          1           0       -6.041828    1.177820    0.351797
     51          1           0        2.953236    0.298783    0.634218
     52          1           0       -0.612152    1.859356    0.540176
     53          1           0        1.794920   -4.511545    1.214799
     54          1           0        2.749110   -3.346855    2.106882
     55          1           0        1.278599   -3.938769    2.663449
     56          1           0        2.422353   -3.590122   -0.611551
     57          1           0       -0.663857   -4.826986    0.552836
     58          1           0       -2.250902   -5.375028    1.634588
     59          1           0       -4.718563   -1.444030   -0.511237
     60          1           0       -4.906022   -0.095844   -1.857425
     61          1           0       -4.496321    4.732399    0.022395
     62          1           0       -5.925106    3.401427   -0.039187
     63          1           0       -5.008026    3.745594   -1.436113
     64          1           0       -1.828989    5.035177   -0.748882
     65          1           0        7.679148   -2.482961   -0.864988
     66          1           0        7.045942   -4.046158   -1.593800
     67          1           0        6.948579   -3.585441    0.312113
     68          1           0        6.959466   -0.387655   -0.398820
     69          1           0        4.956427    1.688424   -0.213255
     70          1           0        6.436948    1.341854    0.910615
     71          1           0        4.676231    0.551727    1.523833
     72          1           0        3.017122    6.481193   -0.931340
     73          1           0        3.944898    4.974983   -0.978941
     74          1           0       -0.661126    6.523103   -1.417197
     75          1           0        1.060619    7.246836   -1.067608
     76          1           0       -0.300518    7.017506    0.384810
     77          1           0        3.209284    6.373239    1.718549
     78          1           0        4.901210    6.347219    1.177743
     79          1           0        3.914343    4.711269    1.734583
     80          1           0       -3.260404   -4.767440   -1.717286
     81          1           0       -7.711713   -2.293448   -1.911564
 ---------------------------------------------------------------------

 SCF Done:  E(RB3LYP) =  -1949.06613920     A.U. after   16 cycles

 Excitation energies and oscillator strengths:

 Excited State   1:      Singlet-A      1.8355 eV  675.50 nm  f=0.3291  <S**2>=0.000
     156 ->157         0.70956
     156 <-157        -0.12282
 This state for optimization and/or second-order correction.
 Total Energy, E(TD-HF/TD-DFT) =  -1948.99868747
 Copying the excited state density for this state as the 1-particle RhoCI density.

 The electronic state is 1-A.
 Alpha  occ. eigenvalues --  -19.19456 -19.17826 -19.15438 -19.12764 -19.10593
 Alpha  occ. eigenvalues --  -19.09213 -14.38700 -14.38127 -14.36414 -14.30332
 Alpha  occ. eigenvalues --  -10.33639 -10.31752 -10.28200 -10.27409 -10.25458
 Alpha  occ. eigenvalues --  -10.24672 -10.24288 -10.23892 -10.23063 -10.22559
 Alpha  occ. eigenvalues --  -10.22532 -10.22286 -10.21693 -10.21072 -10.21049
 Alpha  occ. eigenvalues --  -10.21028 -10.20854 -10.20557 -10.20541 -10.20392
 Alpha  occ. eigenvalues --  -10.20088 -10.20036 -10.19998 -10.19970 -10.19848
 Alpha  occ. eigenvalues --  -10.19771 -10.19727 -10.19428 -10.19357 -10.19313
 Alpha  occ. eigenvalues --  -10.18986 -10.18853 -10.18755  -1.09789  -1.09026
 Alpha  occ. eigenvalues --   -1.01885  -1.01290  -1.00426  -1.00104  -0.97920
 Alpha  occ. eigenvalues --   -0.95399  -0.93416  -0.93168  -0.84777  -0.83067
 Alpha  occ. eigenvalues --   -0.81003  -0.80481  -0.80265  -0.79610  -0.77814
 Alpha  occ. eigenvalues --   -0.76805  -0.75976  -0.74398  -0.73706  -0.73127
 Alpha  occ. eigenvalues --   -0.71609  -0.69149  -0.68890  -0.68290  -0.67759
 Alpha  occ. eigenvalues --   -0.66966  -0.64865  -0.62996  -0.62037  -0.61166
 Alpha  occ. eigenvalues --   -0.59555  -0.59208  -0.58268  -0.57372  -0.57028
 Alpha  occ. eigenvalues --   -0.55939  -0.54659  -0.54006  -0.53317  -0.52675
 Alpha  occ. eigenvalues --   -0.52460  -0.52037  -0.51100  -0.50597  -0.50132
 Alpha  occ. eigenvalues --   -0.49431  -0.48952  -0.48004  -0.47691  -0.47426
 Alpha  occ. eigenvalues --   -0.46625  -0.46329  -0.46030  -0.45245  -0.44912
 Alpha  occ. eigenvalues --   -0.44715  -0.44333  -0.43942  -0.43871  -0.43435
 Alpha  occ. eigenvalues --   -0.43117  -0.42892  -0.42784  -0.42682  -0.42107
 Alpha  occ. eigenvalues --   -0.41860  -0.41565  -0.41347  -0.40920  -0.40816
 Alpha  occ. eigenvalues --   -0.40648  -0.40269  -0.39936  -0.39656  -0.39415
 Alpha  occ. eigenvalues --   -0.39321  -0.39160  -0.38846  -0.38677  -0.38234
 Alpha  occ. eigenvalues --   -0.37942  -0.37459  -0.36874  -0.36646  -0.36383
 Alpha  occ. eigenvalues --   -0.36159  -0.35767  -0.35077  -0.34949  -0.34170
 Alpha  occ. eigenvalues --   -0.33990  -0.33661  -0.33612  -0.33011  -0.32836
 Alpha  occ. eigenvalues --   -0.32433  -0.32003  -0.30799  -0.30525  -0.29479
 Alpha  occ. eigenvalues --   -0.29219  -0.28291  -0.26415  -0.25918  -0.25557
 Alpha  occ. eigenvalues --   -0.25259  -0.24943  -0.24386  -0.23964  -0.22434
 Alpha  occ. eigenvalues --   -0.17805
 Alpha virt. eigenvalues --   -0.10492  -0.05560  -0.03586  -0.02822   0.00206
 Alpha virt. eigenvalues --    0.00375   0.01144   0.02143   0.03067   0.03387
 Alpha virt. eigenvalues --    0.03640   0.04018   0.04468   0.05058   0.05382

 Mulliken charges:
               1
     1  O   -0.271224
     2  O   -0.241774
     3  O   -0.234975
     4  O   -0.212082
     5  O   -0.208218
     6  O   -0.259786
     7  N   -0.219564
     8  N   -0.121542
     9  N   -0.137040
    10  N   -0.285366
    11  C   -0.082749
    12  C    0.072708
    13  C   -0.175689
    14  C    0.058932
    15  C   -0.008497
    16  C    0.063601
    17  C   -0.010034
    18  C   -0.128792
    19  C    0.094974
    20  C   -0.112383
    21  C    0.163647
    22  C    0.106260
    23  C    0.048764
    24  C    0.072511
    25  C   -0.199307
    26  C    0.154508
    27  C    0.132134
    28  C   -0.031230
    29  C   -0.127223
    30  C    0.068288
    31  C   -0.122942
    32  C    0.049680
    33  C   -0.183539
    34  C    0.063890
    35  C   -0.125159
    36  C   -0.214461
    37  C    0.149063
    38  C   -0.036483
    39  C    0.138102
    40  C    0.146413
    41  C    0.172481
    42  C    0.033172
    43  C   -0.060090
    44  H    0.228889
    45  H   -0.050955
    46  H    0.018970
    47  H    0.013003
    48  H    0.036569
    49  H    0.027698
    50  H    0.026506
    51  H    0.113392
    52  H    0.175672
    53  H   -0.000826
    54  H    0.038940
    55  H   -0.022720
    56  H    0.194530
    57  H    0.057632
    58  H    0.079221
    59  H    0.093077
    60  H    0.061012
    61  H    0.029912
    62  H    0.034546
    63  H    0.005710
    64  H   -0.031298
    65  H   -0.031264
    66  H    0.056952
    67  H    0.033849
    68  H    0.001780
    69  H    0.089631
    70  H    0.007304
    71  H    0.061936
    72  H    0.001477
    73  H    0.008569
    74  H    0.040260
    75  H    0.038743
    76  H    0.070585
    77  H    0.010357
    78  H    0.029624
    79  H    0.062660
    80  H    0.208586
    81  H    0.200495
 Sum of Mulliken charges =  -0.00000

 Dipole moment (field-independent basis, Debye):
    X=             -3.4436    Y=              1.5697    Z=             -0.0703  Tot=              3.7852
 Quadrupole moment (field-independent basis, Debye-Ang):
   XX=           -260.8800   YY=           -243.5602   ZZ=           -252.0014
   XY=             21.7302   XZ=             16.7795   YZ=            -15.5146

 Normal termination of Gaussian 16 at Thu Jun 27 19:03:36 2019.
