 Gaussian 16, Revision A.03,
 Gaussian 16:  ES64L-G16RevA.03 25-Dec-2016

 --------------------------
 # td=(NStates=1) B3LYP/SVP
 --------------------------

 --
 TD
 --
 Symbolic Z-matrix:
 Charge =  0 Multiplicity = 1

                         Standard orientation:
 ---------------------------------------------------------------------
 Center     Atomic      Atomic             Coordinates (Angstroms)
 Number     Number       Type             X           Y           Z
 ---------------------------------------------------------------------
      1          8           0        4.209149   -4.916650   -1.865909
      2          8           0       -3.227305   -4.770186   -0.914643
      3          8           0       -7.212857   -1.403896   -1.793053
      4          8           0       -3.938679   -3.032584    0.206883
      5          8           0       -7.385834   -0.620583    0.278947
      6          8           0        3.091760    2.363231    0.382551
      7          7           0        0.314706   -0.458864    0.447818
      8          7           0       -1.581356    1.737758    0.127366
      9          7           0        3.322846   -3.082920   -0.637271
     10          7           0        0.831566    2.869601    0.169098
     11          6           0       -0.599493   -2.348879    1.498278
     12          6           0       -0.911729   -1.100838    0.872776
     13          6           0        0.737057   -2.606105    1.160890
     14          6           0        1.331845   -1.397768    0.507411
     15          6           0       -3.780467    1.477620    0.136181
     16          6           0       -2.522679    0.866714    0.394003
     17          6           0       -2.140550   -0.408470    0.745091
     18          6           0       -3.488039    2.767953   -0.232872
     19          6           0       -1.659138   -3.221747    2.042279
     20          6           0        5.519458   -2.884676   -1.353507
     21          6           0        3.667618   -1.868627   -0.174802
     22          6           0       -2.078355    3.009368   -0.202762
     23          6           0        5.047151   -1.603737   -0.584416
     24          6           0       -5.087883    0.776424    0.351506
     25          6           0        2.694583   -1.023542    0.274075
     26          6           0        1.562472   -3.594781    1.795156
     27          6           0        4.315019   -3.783776   -1.272004
     28          6           0       -2.173727   -4.357867    1.092049
     29          6           0       -5.332046   -0.072909   -0.919456
     30          6           0       -4.523119    3.870452   -0.537675
     31          6           0       -1.251174    4.054732   -0.389592
     32          6           0        6.890683   -3.480621   -0.887436
     33          6           0        5.933774   -0.634790   -0.130561
     34          6           0        0.207309    3.968219   -0.314031
     35          6           0        1.131260    5.103965   -0.472035
     36          6           0        2.417285    4.635016   -0.193328
     37          6           0       -3.237127   -4.004484    0.152026
     38          6           0        5.463772    0.586977    0.616744
     39          6           0       -6.730144   -0.708669   -0.786194
     40          6           0        3.679650    5.310275   -0.129688
     41          6           0        2.141646    3.203035    0.065630
     42          6           0        0.523541    6.478633   -0.700411
     43          6           0        4.287737    5.344140    1.350822
     44          1           0        0.473638    0.249680   -0.194557
     45          1           0       -3.128675   -1.238929    0.838115
     46          1           0       -2.572990   -2.797187    2.293321
     47          1           0       -1.213995   -3.726634    2.900689
     48          1           0        5.481817   -2.601525   -2.474852
     49          1           0       -4.978620    0.142745    1.287848
     50          1           0       -5.973283    1.505773    0.449449
     51          1           0        3.051743    0.058810    0.529178
     52          1           0       -0.482728    1.967675    0.575660
     53          1           0        1.241823   -4.578112    1.209034
     54          1           0        2.598088   -3.449915    1.944004
     55          1           0        1.092296   -3.946609    2.768740
     56          1           0        2.416921   -3.597769   -0.330596
     57          1           0       -1.305253   -4.999213    0.326744
     58          1           0       -2.557246   -5.277489    1.911266
     59          1           0       -4.795258   -1.059792   -0.985083
     60          1           0       -5.410132    0.479774   -2.014619
     61          1           0       -4.354444    4.696419    0.115248
     62          1           0       -5.527380    3.442599   -0.345178
     63          1           0       -4.562419    3.996424   -1.647618
     64          1           0       -1.669816    5.077833   -0.559353
     65          1           0        7.588313   -2.823348   -1.232869
     66          1           0        6.978995   -4.374973   -1.447704
     67          1           0        7.114195   -3.672454    0.054490
     68          1           0        6.875729   -0.581279   -0.389892
     69          1           0        4.675908    1.043916    0.085638
     70          1           0        6.414495    1.187303    0.761257
     71          1           0        4.940855    0.558602    1.531190
     72          1           0        3.502192    6.477799   -0.379061
     73          1           0        4.461821    4.865080   -1.023759
     74          1           0        0.200800    6.573086   -1.831882
     75          1           0        1.324011    7.244010   -0.725724
     76          1           0       -0.321848    7.032009   -0.001424
     77          1           0        3.768470    5.815481    2.188909
     78          1           0        5.429705    5.652302    1.396601
     79          1           0        4.550203    4.404946    1.627063
     80          1           0       -3.903419   -4.557939   -1.501262
     81          1           0       -8.145875   -1.710213   -1.461188
 ---------------------------------------------------------------------

 SCF Done:  E(RB3LYP) =  -1949.04444716     A.U. after   23 cycles

 Excitation energies and oscillator strengths:

 Excited State   1:      Singlet-A      1.5941 eV  777.78 nm  f=0.2836  <S**2>=0.000
     156 ->157         0.71273
     156 <-157        -0.14400
 This state for optimization and/or second-order correction.
 Total Energy, E(TD-HF/TD-DFT) =  -1948.98586597
 Copying the excited state density for this state as the 1-particle RhoCI density.

 The electronic state is 1-A.
 Alpha  occ. eigenvalues --  -19.19901 -19.19373 -19.14753 -19.11167 -19.10015
 Alpha  occ. eigenvalues --  -19.09046 -14.37694 -14.37187 -14.33826 -14.29917
 Alpha  occ. eigenvalues --  -10.34013 -10.31475 -10.28765 -10.26319 -10.25240
 Alpha  occ. eigenvalues --  -10.24166 -10.24005 -10.23728 -10.22953 -10.22457
 Alpha  occ. eigenvalues --  -10.22327 -10.21862 -10.21772 -10.21576 -10.21431
 Alpha  occ. eigenvalues --  -10.21322 -10.21118 -10.21079 -10.20817 -10.20720
 Alpha  occ. eigenvalues --  -10.20698 -10.20449 -10.20143 -10.19618 -10.19532
 Alpha  occ. eigenvalues --  -10.19396 -10.19334 -10.19280 -10.19187 -10.18916
 Alpha  occ. eigenvalues --  -10.17738 -10.16979 -10.16167  -1.13938  -1.09953
 Alpha  occ. eigenvalues --   -1.03697  -1.01016  -0.98297  -0.97858  -0.97572
 Alpha  occ. eigenvalues --   -0.96574  -0.94794  -0.91376  -0.83614  -0.81337
 Alpha  occ. eigenvalues --   -0.80991  -0.80709  -0.79786  -0.79408  -0.78471
 Alpha  occ. eigenvalues --   -0.76494  -0.76296  -0.74661  -0.74217  -0.72882
 Alpha  occ. eigenvalues --   -0.71063  -0.70547  -0.70249  -0.68819  -0.67939
 Alpha  occ. eigenvalues --   -0.66737  -0.65416  -0.64321  -0.62987  -0.62753
 Alpha  occ. eigenvalues --   -0.61779  -0.58909  -0.58647  -0.58246  -0.57480
 Alpha  occ. eigenvalues --   -0.55622  -0.55339  -0.54832  -0.54477  -0.52442
 Alpha  occ. eigenvalues --   -0.52162  -0.51649  -0.50883  -0.50501  -0.49571
 Alpha  occ. eigenvalues --   -0.48694  -0.48560  -0.48248  -0.47909  -0.47643
 Alpha  occ. eigenvalues --   -0.47298  -0.46343  -0.46219  -0.45949  -0.45668
 Alpha  occ. eigenvalues --   -0.45056  -0.44211  -0.43922  -0.43855  -0.43761
 Alpha  occ. eigenvalues --   -0.43423  -0.43342  -0.42808  -0.42320  -0.42022
 Alpha  occ. eigenvalues --   -0.41862  -0.41483  -0.41148  -0.40985  -0.40279
 Alpha  occ. eigenvalues --   -0.40003  -0.39818  -0.39448  -0.39263  -0.39077
 Alpha  occ. eigenvalues --   -0.38814  -0.38514  -0.38046  -0.37793  -0.37568
 Alpha  occ. eigenvalues --   -0.37445  -0.37013  -0.36849  -0.36448  -0.36267
 Alpha  occ. eigenvalues --   -0.36161  -0.36066  -0.35675  -0.35144  -0.35078
 Alpha  occ. eigenvalues --   -0.34676  -0.33818  -0.33738  -0.33408  -0.32562
 Alpha  occ. eigenvalues --   -0.32371  -0.31751  -0.31112  -0.30156  -0.29038
 Alpha  occ. eigenvalues --   -0.28072  -0.26856  -0.26220  -0.25255  -0.25007
 Alpha  occ. eigenvalues --   -0.24687  -0.24396  -0.23571  -0.23257  -0.21426
 Alpha  occ. eigenvalues --   -0.17142
 Alpha virt. eigenvalues --   -0.10829  -0.06335  -0.04246  -0.03270  -0.00409
 Alpha virt. eigenvalues --    0.00780   0.01269   0.01663   0.02529   0.03112
 Alpha virt. eigenvalues --    0.03760   0.04437   0.05131   0.05316   0.05610

 Mulliken charges:
               1
     1  O   -0.288817
     2  O   -0.109318
     3  O   -0.185113
     4  O   -0.216904
     5  O   -0.298037
     6  O   -0.304331
     7  N   -0.082270
     8  N   -0.188757
     9  N   -0.107091
    10  N   -0.260867
    11  C   -0.056813
    12  C    0.048577
    13  C   -0.166924
    14  C    0.072972
    15  C   -0.041357
    16  C    0.047965
    17  C   -0.133409
    18  C   -0.171780
    19  C    0.190375
    20  C   -0.087613
    21  C    0.081815
    22  C    0.130886
    23  C   -0.035808
    24  C    0.105943
    25  C   -0.166973
    26  C    0.050636
    27  C    0.130027
    28  C   -0.184463
    29  C   -0.045569
    30  C    0.134682
    31  C   -0.142493
    32  C    0.186911
    33  C   -0.057067
    34  C    0.054121
    35  C   -0.076358
    36  C   -0.080305
    37  C    0.151011
    38  C    0.064215
    39  C    0.113034
    40  C   -0.042107
    41  C    0.157797
    42  C    0.012783
    43  C    0.014218
    44  H    0.126122
    45  H    0.082498
    46  H    0.002577
    47  H   -0.005598
    48  H    0.058258
    49  H    0.044738
    50  H    0.035365
    51  H    0.065771
    52  H    0.234969
    53  H    0.024684
    54  H    0.042927
    55  H    0.017864
    56  H    0.165722
    57  H    0.084885
    58  H    0.081936
    59  H    0.062038
    60  H    0.063505
    61  H    0.029055
    62  H   -0.012939
    63  H    0.025833
    64  H   -0.013657
    65  H   -0.013608
    66  H    0.012477
    67  H   -0.021999
    68  H   -0.066886
    69  H    0.060768
    70  H    0.005148
    71  H    0.014264
    72  H    0.024384
    73  H    0.056843
    74  H    0.034812
    75  H   -0.001182
    76  H    0.066488
    77  H    0.026650
    78  H   -0.000137
    79  H   -0.004051
    80  H    0.159565
    81  H    0.212480
 Sum of Mulliken charges =  -0.00000

 Dipole moment (field-independent basis, Debye):
    X=             -2.9810    Y=             -0.0559    Z=              0.0177  Tot=              2.9815
 Quadrupole moment (field-independent basis, Debye-Ang):
   XX=           -244.7492   YY=           -241.0141   ZZ=           -254.5896
   XY=             18.3707   XZ=             18.4252   YZ=            -16.2554

 Normal termination of Gaussian 16 at Mon Jul  1 13:49:24 2019.
