 Gaussian 16, Revision A.03,
 Gaussian 16:  ES64L-G16RevA.03 25-Dec-2016

 --------------------------
 # td=(NStates=1) B3LYP/SVP
 --------------------------

 --
 TD
 --
 Symbolic Z-matrix:
 Charge =  0 Multiplicity = 1

                         Standard orientation:
 ---------------------------------------------------------------------
 Center     Atomic      Atomic             Coordinates (Angstroms)
 Number     Number       Type             X           Y           Z
 ---------------------------------------------------------------------
      1          8           0        4.196857   -4.987687   -1.815590
      2          8           0       -3.270179   -4.892123   -1.009165
      3          8           0       -6.913060   -1.464737   -1.796923
      4          8           0       -3.798584   -2.999241    0.009851
      5          8           0       -7.472239   -0.564871    0.175944
      6          8           0        3.015188    2.313954    0.411338
      7          7           0        0.276192   -0.563097    0.570038
      8          7           0       -1.493439    1.929379    0.318459
      9          7           0        3.268664   -3.116664   -0.719766
     10          7           0        0.926691    2.901479   -0.006696
     11          6           0       -0.617400   -2.331249    1.452867
     12          6           0       -0.893903   -1.041452    1.061226
     13          6           0        0.735770   -2.683875    1.276495
     14          6           0        1.259361   -1.513016    0.769851
     15          6           0       -3.712612    1.541630    0.220955
     16          6           0       -2.420537    0.919501    0.515223
     17          6           0       -2.158802   -0.402046    0.836405
     18          6           0       -3.549714    2.864575   -0.191254
     19          6           0       -1.628639   -3.297404    2.048681
     20          6           0        5.477847   -2.911031   -1.292091
     21          6           0        3.528601   -1.897950   -0.197171
     22          6           0       -2.089473    3.062290   -0.162792
     23          6           0        5.070798   -1.618525   -0.524310
     24          6           0       -5.042328    0.800699    0.349515
     25          6           0        2.598531   -1.081861    0.384041
     26          6           0        1.362616   -3.898394    1.722644
     27          6           0        4.229704   -3.809900   -1.356605
     28          6           0       -2.146426   -4.447693    1.029678
     29          6           0       -5.282765   -0.004267   -0.897827
     30          6           0       -4.549931    3.948034   -0.580829
     31          6           0       -1.226911    4.167983   -0.413622
     32          6           0        6.647829   -3.580675   -0.763205
     33          6           0        5.885028   -0.603887   -0.225402
     34          6           0        0.155552    4.067148   -0.341295
     35          6           0        1.092892    5.192205   -0.445849
     36          6           0        2.332281    4.670682   -0.270786
     37          6           0       -3.150433   -4.048991   -0.041118
     38          6           0        5.413768    0.613633    0.545356
     39          6           0       -6.603278   -0.720400   -0.715691
     40          6           0        3.783903    5.207396   -0.317571
     41          6           0        2.184105    3.244355    0.044221
     42          6           0        0.698573    6.623930   -0.432781
     43          6           0        4.348452    5.512006    1.118140
     44          1           0        0.294591    0.359462    0.159546
     45          1           0       -2.997529   -1.119084    0.850794
     46          1           0       -2.489782   -2.889183    2.189326
     47          1           0       -1.303744   -3.698572    2.867094
     48          1           0        5.625798   -2.650989   -2.488935
     49          1           0       -5.052478    0.169183    1.312803
     50          1           0       -6.072596    1.261959    0.500748
     51          1           0        2.871594   -0.051115    0.655381
     52          1           0       -0.437493    2.103603    0.429722
     53          1           0        1.117696   -4.560659    0.846841
     54          1           0        2.593396   -3.522974    1.727082
     55          1           0        0.970785   -4.481326    2.797230
     56          1           0        2.413913   -3.651677   -0.481103
     57          1           0       -1.365775   -5.031971    0.540525
     58          1           0       -2.845717   -5.238916    1.595692
     59          1           0       -4.593603   -0.830284   -1.192444
     60          1           0       -5.492474    0.644358   -1.878283
     61          1           0       -4.291794    4.830169    0.004600
     62          1           0       -5.556164    3.461606   -0.456766
     63          1           0       -4.351360    4.258519   -1.702834
     64          1           0       -1.812099    5.121191   -0.765062
     65          1           0        7.574714   -3.000087   -1.146389
     66          1           0        6.831975   -4.581380   -0.940798
     67          1           0        6.768334   -3.626515    0.388942
     68          1           0        6.841150   -0.695503   -0.476057
     69          1           0        4.754756    1.305994    0.021132
     70          1           0        6.266460    1.098233    1.106562
     71          1           0        4.667095    0.508863    1.483375
     72          1           0        3.959152    6.060183   -1.134512
     73          1           0        4.327031    4.393427   -0.897924
     74          1           0        0.012655    6.976109   -1.204667
     75          1           0        1.497589    7.362009   -0.697285
     76          1           0       -0.043594    6.812514    0.527113
     77          1           0        3.732088    6.133569    1.671220
     78          1           0        5.423461    5.919749    1.164502
     79          1           0        4.423742    4.537888    1.713546
     80          1           0       -3.799506   -4.484366   -1.634576
     81          1           0       -7.767651   -1.764712   -1.624648
 ---------------------------------------------------------------------

 SCF Done:  E(RB3LYP) =  -1949.10751399     A.U. after   25 cycles

 Excitation energies and oscillator strengths:

 Excited State   1:      Singlet-A      1.8002 eV  688.74 nm  f=0.2534  <S**2>=0.000
     153 ->157        -0.11161
     156 ->157         0.69987
 This state for optimization and/or second-order correction.
 Total Energy, E(TD-HF/TD-DFT) =  -1949.04135923
 Copying the excited state density for this state as the 1-particle RhoCI density.

 The electronic state is 1-A.
 Alpha  occ. eigenvalues --  -19.21276 -19.18528 -19.14180 -19.13140 -19.10382
 Alpha  occ. eigenvalues --  -19.08240 -14.37841 -14.37253 -14.36330 -14.28596
 Alpha  occ. eigenvalues --  -10.34266 -10.32679 -10.28783 -10.24944 -10.24936
 Alpha  occ. eigenvalues --  -10.24734 -10.24516 -10.23687 -10.23684 -10.23411
 Alpha  occ. eigenvalues --  -10.23242 -10.22550 -10.22353 -10.22234 -10.22027
 Alpha  occ. eigenvalues --  -10.21883 -10.21421 -10.21412 -10.20850 -10.20787
 Alpha  occ. eigenvalues --  -10.20630 -10.20238 -10.20236 -10.20068 -10.19588
 Alpha  occ. eigenvalues --  -10.19493 -10.19321 -10.19164 -10.18509 -10.18460
 Alpha  occ. eigenvalues --  -10.18151 -10.17992 -10.16977  -1.15206  -1.10810
 Alpha  occ. eigenvalues --   -1.02246  -1.01732  -0.99510  -0.99447  -0.98369
 Alpha  occ. eigenvalues --   -0.97568  -0.95326  -0.90110  -0.83234  -0.82810
 Alpha  occ. eigenvalues --   -0.81696  -0.80853  -0.79618  -0.78997  -0.78319
 Alpha  occ. eigenvalues --   -0.78152  -0.76654  -0.74983  -0.73985  -0.73228
 Alpha  occ. eigenvalues --   -0.71912  -0.71019  -0.69402  -0.68792  -0.68004
 Alpha  occ. eigenvalues --   -0.67765  -0.66253  -0.64273  -0.63329  -0.62852
 Alpha  occ. eigenvalues --   -0.61431  -0.60137  -0.59311  -0.57858  -0.56973
 Alpha  occ. eigenvalues --   -0.56537  -0.55952  -0.55544  -0.54117  -0.53728
 Alpha  occ. eigenvalues --   -0.52992  -0.51994  -0.51477  -0.51039  -0.50113
 Alpha  occ. eigenvalues --   -0.49925  -0.49229  -0.48872  -0.48565  -0.47891
 Alpha  occ. eigenvalues --   -0.47304  -0.46940  -0.46573  -0.46246  -0.45869
 Alpha  occ. eigenvalues --   -0.44947  -0.44759  -0.44354  -0.43655  -0.43447
 Alpha  occ. eigenvalues --   -0.43032  -0.42744  -0.42503  -0.42393  -0.42036
 Alpha  occ. eigenvalues --   -0.41929  -0.41802  -0.41502  -0.41175  -0.40855
 Alpha  occ. eigenvalues --   -0.40784  -0.40426  -0.40183  -0.39922  -0.39743
 Alpha  occ. eigenvalues --   -0.39708  -0.39397  -0.38825  -0.38626  -0.38427
 Alpha  occ. eigenvalues --   -0.38094  -0.37398  -0.37146  -0.37030  -0.36801
 Alpha  occ. eigenvalues --   -0.36536  -0.36319  -0.34983  -0.34462  -0.34178
 Alpha  occ. eigenvalues --   -0.33982  -0.33781  -0.33618  -0.32666  -0.32209
 Alpha  occ. eigenvalues --   -0.31979  -0.31735  -0.31052  -0.29803  -0.29253
 Alpha  occ. eigenvalues --   -0.28695  -0.26784  -0.26112  -0.25782  -0.25452
 Alpha  occ. eigenvalues --   -0.25145  -0.24816  -0.23325  -0.23175  -0.21852
 Alpha  occ. eigenvalues --   -0.18829
 Alpha virt. eigenvalues --   -0.11318  -0.06145  -0.03478  -0.01764  -0.01223
 Alpha virt. eigenvalues --    0.00069   0.01754   0.02123   0.03066   0.03345
 Alpha virt. eigenvalues --    0.03939   0.04689   0.05334   0.05842   0.06587

 Mulliken charges:
               1
     1  O   -0.267129
     2  O   -0.070057
     3  O   -0.144892
     4  O   -0.267191
     5  O   -0.281332
     6  O   -0.302089
     7  N   -0.043455
     8  N   -0.129537
     9  N   -0.057086
    10  N   -0.274540
    11  C   -0.160085
    12  C    0.052135
    13  C   -0.088335
    14  C    0.060508
    15  C   -0.052326
    16  C    0.133484
    17  C   -0.080612
    18  C   -0.124272
    19  C    0.349962
    20  C   -0.092951
    21  C    0.068295
    22  C    0.029877
    23  C    0.020736
    24  C    0.008662
    25  C   -0.105955
    26  C   -0.079793
    27  C    0.121069
    28  C   -0.077547
    29  C   -0.024115
    30  C    0.089265
    31  C   -0.141832
    32  C    0.050989
    33  C   -0.044143
    34  C    0.124485
    35  C   -0.086205
    36  C   -0.158987
    37  C    0.098103
    38  C   -0.015587
    39  C    0.133789
    40  C    0.032745
    41  C    0.140475
    42  C    0.072305
    43  C    0.005755
    44  H    0.123139
    45  H    0.030011
    46  H   -0.068448
    47  H   -0.057337
    48  H    0.061543
    49  H    0.040377
    50  H    0.039762
    51  H    0.032833
    52  H    0.168241
    53  H    0.058023
    54  H    0.079784
    55  H    0.073625
    56  H    0.125639
    57  H    0.029426
    58  H    0.059329
    59  H    0.053767
    60  H    0.064095
    61  H    0.034748
    62  H    0.038153
    63  H    0.042549
    64  H    0.007699
    65  H    0.020088
    66  H    0.004172
    67  H    0.014305
    68  H   -0.069122
    69  H    0.072972
    70  H    0.004929
    71  H    0.034435
    72  H    0.006861
    73  H    0.026396
    74  H   -0.004603
    75  H    0.024943
    76  H    0.044895
    77  H    0.001566
    78  H    0.019784
    79  H    0.035099
    80  H    0.155297
    81  H    0.148439
 Sum of Mulliken charges =  -0.00000

 Dipole moment (field-independent basis, Debye):
    X=             -4.9358    Y=              0.6825    Z=             -0.5285  Tot=              5.0107
 Quadrupole moment (field-independent basis, Debye-Ang):
   XX=           -258.3753   YY=           -239.5817   ZZ=           -254.6835
   XY=             14.3617   XZ=             17.3482   YZ=            -16.0454

 Normal termination of Gaussian 16 at Thu Jun 27 06:18:57 2019.
