 Gaussian 16, Revision A.03,
 Gaussian 16:  ES64L-G16RevA.03 25-Dec-2016

 --------------------------
 # td=(NStates=1) B3LYP/SVP
 --------------------------

 --
 TD
 --
 Symbolic Z-matrix:
 Charge =  0 Multiplicity = 1

                         Standard orientation:
 ---------------------------------------------------------------------
 Center     Atomic      Atomic             Coordinates (Angstroms)
 Number     Number       Type             X           Y           Z
 ---------------------------------------------------------------------
      1          8           0        4.424861   -4.827053   -1.765547
      2          8           0       -2.817689   -5.007422   -1.055472
      3          8           0       -6.967626   -1.607274   -1.920658
      4          8           0       -3.690933   -3.290315    0.097700
      5          8           0       -7.662863   -0.696912    0.057492
      6          8           0        3.100598    2.415578    0.453008
      7          7           0        0.155934   -0.496080    0.578409
      8          7           0       -1.578906    1.874803    0.282365
      9          7           0        3.315203   -3.137810   -0.682966
     10          7           0        0.802386    2.914694    0.006990
     11          6           0       -0.564027   -2.462468    1.401782
     12          6           0       -0.950950   -1.101961    0.981811
     13          6           0        0.754639   -2.552442    1.154497
     14          6           0        1.259168   -1.374706    0.660107
     15          6           0       -3.837215    1.383868    0.258476
     16          6           0       -2.533682    0.886261    0.581462
     17          6           0       -2.223239   -0.465752    0.739861
     18          6           0       -3.647923    2.742974   -0.160385
     19          6           0       -1.480989   -3.314403    2.104919
     20          6           0        5.499522   -2.642131   -1.439350
     21          6           0        3.574143   -1.831453   -0.064801
     22          6           0       -2.161485    3.015318   -0.088343
     23          6           0        4.968045   -1.457545   -0.553379
     24          6           0       -5.171271    0.713539    0.399089
     25          6           0        2.629675   -0.969390    0.381999
     26          6           0        1.588626   -3.655351    1.758776
     27          6           0        4.413841   -3.670500   -1.379908
     28          6           0       -1.869221   -4.528808    1.140743
     29          6           0       -5.365540   -0.135013   -0.876537
     30          6           0       -4.668805    3.810679   -0.558110
     31          6           0       -1.416502    4.148084   -0.240042
     32          6           0        6.817311   -3.251014   -0.985684
     33          6           0        5.753707   -0.494465   -0.063936
     34          6           0        0.112468    4.060931   -0.304563
     35          6           0        0.967821    5.224188   -0.389985
     36          6           0        2.271839    4.627289   -0.260246
     37          6           0       -2.868599   -4.095481   -0.011367
     38          6           0        5.488374    0.655820    0.786659
     39          6           0       -6.855681   -0.810658   -0.847407
     40          6           0        3.606848    5.348469   -0.364863
     41          6           0        2.139982    3.253026    0.051526
     42          6           0        0.526878    6.610742   -0.677107
     43          6           0        4.234458    5.349690    1.060512
     44          1           0        0.277304    0.313338    0.090665
     45          1           0       -3.225779   -0.867409    1.285108
     46          1           0       -2.576863   -2.737007    2.559690
     47          1           0       -1.094780   -3.899174    2.883460
     48          1           0        5.629559   -2.355332   -2.387500
     49          1           0       -5.065565    0.090853    1.423143
     50          1           0       -5.822514    1.458035    0.607263
     51          1           0        3.054725    0.130914    0.544033
     52          1           0       -0.652732    2.048547    0.310345
     53          1           0        2.042597   -4.764874    1.101298
     54          1           0        2.520282   -3.190588    1.969875
     55          1           0        1.236076   -4.263451    2.517234
     56          1           0        2.604729   -3.671721   -0.389999
     57          1           0       -1.113190   -5.169439    0.706588
     58          1           0       -2.358088   -5.322063    1.717262
     59          1           0       -4.725793   -1.137958   -0.948298
     60          1           0       -5.538905    0.341690   -1.767858
     61          1           0       -4.845429    4.455429    0.589783
     62          1           0       -5.922742    3.558209   -0.653503
     63          1           0       -4.321312    4.485088   -1.514500
     64          1           0       -1.728828    5.185319   -0.467305
     65          1           0        7.581579   -2.566263   -1.624488
     66          1           0        6.743594   -4.305402   -1.477572
     67          1           0        7.037144   -3.533451    0.067564
     68          1           0        6.645248   -0.424857   -0.511587
     69          1           0        5.190398    1.487113    0.295532
     70          1           0        6.617141    1.001917    1.383673
     71          1           0        4.614490    0.402046    1.441937
     72          1           0        3.424207    6.361969   -0.731840
     73          1           0        4.372857    4.687518   -0.901250
     74          1           0        0.122069    6.565461   -1.669381
     75          1           0        1.411575    7.212578   -0.614417
     76          1           0       -0.234494    7.013006    0.122420
     77          1           0        3.709199    5.855083    1.787231
     78          1           0        5.381014    5.652555    0.883937
     79          1           0        4.331870    4.333822    1.429690
     80          1           0       -3.443318   -4.533728   -1.667175
     81          1           0       -7.783725   -1.983874   -1.794064
 ---------------------------------------------------------------------

 SCF Done:  E(RB3LYP) =  -1948.97098613     A.U. after   20 cycles

 Excitation energies and oscillator strengths:

 Excited State   1:      Singlet-A      1.5778 eV  785.79 nm  f=0.2458  <S**2>=0.000
     154 ->157        -0.11364
     156 ->157         0.70629
     156 <-157        -0.13751
 This state for optimization and/or second-order correction.
 Total Energy, E(TD-HF/TD-DFT) =  -1948.91300188
 Copying the excited state density for this state as the 1-particle RhoCI density.

 The electronic state is 1-A.
 Alpha  occ. eigenvalues --  -19.19417 -19.18727 -19.15124 -19.13613 -19.10720
 Alpha  occ. eigenvalues --  -19.10374 -14.37906 -14.35642 -14.35343 -14.29075
 Alpha  occ. eigenvalues --  -10.33021 -10.32629 -10.28674 -10.26490 -10.25046
 Alpha  occ. eigenvalues --  -10.24608 -10.24555 -10.24289 -10.24039 -10.23983
 Alpha  occ. eigenvalues --  -10.23830 -10.22637 -10.22605 -10.21987 -10.21827
 Alpha  occ. eigenvalues --  -10.21677 -10.21556 -10.21487 -10.21172 -10.20528
 Alpha  occ. eigenvalues --  -10.20431 -10.20406 -10.20345 -10.19947 -10.19878
 Alpha  occ. eigenvalues --  -10.19828 -10.19802 -10.19663 -10.19482 -10.19357
 Alpha  occ. eigenvalues --  -10.18129 -10.17939 -10.17114  -1.11918  -1.11894
 Alpha  occ. eigenvalues --   -1.02918  -1.02849  -1.01774  -1.00333  -0.99232
 Alpha  occ. eigenvalues --   -0.96917  -0.93020  -0.90660  -0.83998  -0.83520
 Alpha  occ. eigenvalues --   -0.81663  -0.81104  -0.79360  -0.79069  -0.77610
 Alpha  occ. eigenvalues --   -0.77066  -0.76601  -0.75868  -0.74421  -0.72372
 Alpha  occ. eigenvalues --   -0.70910  -0.69887  -0.69010  -0.68638  -0.68417
 Alpha  occ. eigenvalues --   -0.67026  -0.65492  -0.64831  -0.62241  -0.61562
 Alpha  occ. eigenvalues --   -0.60428  -0.60204  -0.59155  -0.57886  -0.57470
 Alpha  occ. eigenvalues --   -0.57222  -0.56387  -0.55262  -0.53905  -0.53340
 Alpha  occ. eigenvalues --   -0.52544  -0.51979  -0.51069  -0.50421  -0.49783
 Alpha  occ. eigenvalues --   -0.49517  -0.49430  -0.48839  -0.48378  -0.48253
 Alpha  occ. eigenvalues --   -0.47919  -0.46609  -0.46308  -0.45875  -0.45761
 Alpha  occ. eigenvalues --   -0.44948  -0.44769  -0.44421  -0.44314  -0.43992
 Alpha  occ. eigenvalues --   -0.43586  -0.43339  -0.43287  -0.42899  -0.42601
 Alpha  occ. eigenvalues --   -0.42282  -0.41827  -0.41524  -0.41224  -0.40737
 Alpha  occ. eigenvalues --   -0.40522  -0.40370  -0.40104  -0.39687  -0.39473
 Alpha  occ. eigenvalues --   -0.39052  -0.38915  -0.38385  -0.38191  -0.37913
 Alpha  occ. eigenvalues --   -0.37526  -0.37141  -0.36955  -0.36833  -0.36313
 Alpha  occ. eigenvalues --   -0.36154  -0.35722  -0.35590  -0.35454  -0.34812
 Alpha  occ. eigenvalues --   -0.34743  -0.34093  -0.33968  -0.33574  -0.33424
 Alpha  occ. eigenvalues --   -0.32632  -0.31724  -0.31272  -0.30070  -0.29580
 Alpha  occ. eigenvalues --   -0.28110  -0.27489  -0.26604  -0.26239  -0.25789
 Alpha  occ. eigenvalues --   -0.25170  -0.24813  -0.24281  -0.22632  -0.21899
 Alpha  occ. eigenvalues --   -0.18181
 Alpha virt. eigenvalues --   -0.11908  -0.07686  -0.03670  -0.00854   0.00291
 Alpha virt. eigenvalues --    0.00344   0.01441   0.02125   0.02187   0.02782
 Alpha virt. eigenvalues --    0.03167   0.04213   0.04670   0.05469   0.05699

 Mulliken charges:
               1
     1  O   -0.217885
     2  O   -0.212818
     3  O   -0.125733
     4  O   -0.161613
     5  O   -0.230427
     6  O   -0.318948
     7  N   -0.004645
     8  N    0.003328
     9  N   -0.115738
    10  N   -0.299723
    11  C   -0.030282
    12  C    0.011448
    13  C   -0.071375
    14  C    0.063876
    15  C   -0.117524
    16  C    0.069628
    17  C   -0.043505
    18  C   -0.067932
    19  C    0.066294
    20  C    0.029651
    21  C    0.082163
    22  C    0.095000
    23  C   -0.048209
    24  C    0.158861
    25  C   -0.124331
    26  C    0.006138
    27  C    0.124136
    28  C   -0.024293
    29  C   -0.010476
    30  C   -0.108032
    31  C   -0.101564
    32  C   -0.019756
    33  C   -0.085096
    34  C    0.014137
    35  C   -0.149272
    36  C   -0.156033
    37  C    0.126470
    38  C    0.076913
    39  C    0.109606
    40  C    0.105980
    41  C    0.189092
    42  C    0.115605
    43  C   -0.019030
    44  H    0.098666
    45  H    0.046436
    46  H    0.066406
    47  H   -0.013524
    48  H   -0.009172
    49  H    0.045014
    50  H   -0.022659
    51  H    0.085996
    52  H    0.053497
    53  H    0.021563
    54  H    0.032933
    55  H   -0.002409
    56  H    0.074168
    57  H    0.021730
    58  H    0.029367
    59  H    0.093810
    60  H    0.014677
    61  H    0.055572
    62  H    0.058002
    63  H    0.074041
    64  H   -0.012088
    65  H    0.035842
    66  H    0.042290
    67  H    0.032355
    68  H   -0.051002
    69  H    0.029928
    70  H    0.017323
    71  H    0.038375
    72  H   -0.002560
    73  H    0.023073
    74  H    0.035190
    75  H    0.007167
    76  H    0.048035
    77  H   -0.006376
    78  H    0.011390
    79  H    0.030431
    80  H    0.176565
    81  H    0.135862
 Sum of Mulliken charges =  -0.00000

 Dipole moment (field-independent basis, Debye):
    X=             -4.0461    Y=              1.8001    Z=             -0.4282  Tot=              4.4491
 Quadrupole moment (field-independent basis, Debye-Ang):
   XX=           -255.5823   YY=           -244.4888   ZZ=           -253.3377
   XY=             10.3541   XZ=             12.4346   YZ=            -17.9563

 Normal termination of Gaussian 16 at Sun Jun 30 14:46:00 2019.
