 Gaussian 16, Revision A.03,
 Gaussian 16:  ES64L-G16RevA.03 25-Dec-2016

 --------------------------
 # td=(NStates=1) B3LYP/SVP
 --------------------------

 --
 TD
 --
 Symbolic Z-matrix:
 Charge =  0 Multiplicity = 1

                         Standard orientation:
 ---------------------------------------------------------------------
 Center     Atomic      Atomic             Coordinates (Angstroms)
 Number     Number       Type             X           Y           Z
 ---------------------------------------------------------------------
      1          8           0        4.423751   -4.782770   -1.891252
      2          8           0       -3.083987   -4.756279   -1.175930
      3          8           0       -6.965811   -1.738604   -1.642391
      4          8           0       -3.749392   -2.997053    0.079664
      5          8           0       -7.566461   -0.427536    0.100838
      6          8           0        3.045199    2.504777    0.556432
      7          7           0        0.234383   -0.505869    0.499423
      8          7           0       -1.547962    1.787021    0.459167
      9          7           0        3.305569   -3.150244   -0.692110
     10          7           0        0.830867    2.924345    0.191959
     11          6           0       -0.572252   -2.503726    1.340322
     12          6           0       -0.909271   -1.148200    0.888987
     13          6           0        0.782659   -2.605552    1.180236
     14          6           0        1.220878   -1.408569    0.648383
     15          6           0       -3.807997    1.517248    0.246980
     16          6           0       -2.526407    0.861518    0.685127
     17          6           0       -2.250651   -0.481159    1.016633
     18          6           0       -3.492174    2.791810   -0.138889
     19          6           0       -1.651742   -3.442843    2.008277
     20          6           0        5.566929   -2.772771   -1.337418
     21          6           0        3.565495   -1.849532   -0.351802
     22          6           0       -2.072357    2.953052   -0.056074
     23          6           0        5.022020   -1.573526   -0.499597
     24          6           0       -5.099275    0.766337    0.290815
     25          6           0        2.595933   -1.075604    0.308084
     26          6           0        1.518248   -3.796024    1.778877
     27          6           0        4.499095   -3.699769   -1.318774
     28          6           0       -2.072510   -4.550250    0.979722
     29          6           0       -5.364382   -0.094543   -0.853138
     30          6           0       -4.492450    3.889085   -0.583740
     31          6           0       -1.279391    4.106708   -0.288471
     32          6           0        6.769000   -3.470917   -0.717587
     33          6           0        5.815008   -0.559428   -0.072036
     34          6           0        0.149881    4.026569   -0.294216
     35          6           0        1.047117    5.203525   -0.613579
     36          6           0        2.294589    4.622878   -0.288973
     37          6           0       -3.062039   -4.090875   -0.101042
     38          6           0        5.415755    0.631712    0.707227
     39          6           0       -6.734657   -0.740707   -0.759743
     40          6           0        3.553795    5.452995   -0.252173
     41          6           0        2.144022    3.271987    0.221406
     42          6           0        0.710365    6.609218   -0.967868
     43          6           0        4.144952    5.365416    1.239341
     44          1           0       -0.046983    0.523206   -0.031404
     45          1           0       -2.986975   -1.258329    1.115450
     46          1           0       -2.559440   -2.869048    2.577009
     47          1           0       -1.001503   -4.042202    2.748812
     48          1           0        5.579607   -2.647208   -2.440716
     49          1           0       -5.158529   -0.008744    1.063297
     50          1           0       -5.904940    1.660782    0.344842
     51          1           0        2.819584   -0.013609    0.383524
     52          1           0       -0.560636    1.855232    0.987286
     53          1           0        1.543514   -4.841985    1.080962
     54          1           0        2.567105   -3.641769    2.096549
     55          1           0        0.928049   -4.213799    2.610318
     56          1           0        2.315898   -3.385501   -0.870874
     57          1           0       -1.147373   -4.972199    0.457083
     58          1           0       -2.452423   -5.622634    1.310853
     59          1           0       -4.558575   -1.069593   -1.048449
     60          1           0       -5.080573    0.451960   -1.811881
     61          1           0       -4.563703    4.868473    0.106288
     62          1           0       -5.475610    3.406140   -0.656102
     63          1           0       -4.175502    4.309857   -1.508411
     64          1           0       -1.785197    4.897141   -0.899938
     65          1           0        7.569821   -2.820828   -0.726548
     66          1           0        7.052010   -4.445160   -1.405994
     67          1           0        6.498001   -3.708759    0.310533
     68          1           0        6.865702   -0.533102   -0.407757
     69          1           0        4.957764    1.463464   -0.132340
     70          1           0        6.188852    0.947312    1.225751
     71          1           0        4.562463    0.505011    1.447139
     72          1           0        3.473598    6.686778   -0.471665
     73          1           0        4.272937    4.990985   -0.960978
     74          1           0        0.618070    6.530476   -2.169961
     75          1           0        1.573637    7.349730   -0.741665
     76          1           0       -0.492450    6.928030   -0.399598
     77          1           0        3.498742    5.945605    1.739753
     78          1           0        5.189546    5.915762    1.253665
     79          1           0        4.202895    4.310695    1.603237
     80          1           0       -3.640524   -4.147881   -1.936890
     81          1           0       -7.842372   -2.347727   -1.540906
 ---------------------------------------------------------------------

 SCF Done:  E(RB3LYP) =  -1949.04266965     A.U. after   20 cycles

 Excitation energies and oscillator strengths:

 Excited State   1:      Singlet-A      1.6456 eV  753.44 nm  f=0.2829  <S**2>=0.000
     156 ->157         0.70873
     156 <-157        -0.11568
 This state for optimization and/or second-order correction.
 Total Energy, E(TD-HF/TD-DFT) =  -1948.98219562
 Copying the excited state density for this state as the 1-particle RhoCI density.

 The electronic state is 1-A.
 Alpha  occ. eigenvalues --  -19.22974 -19.18418 -19.13271 -19.11912 -19.10643
 Alpha  occ. eigenvalues --  -19.09131 -14.38131 -14.37192 -14.36155 -14.28254
 Alpha  occ. eigenvalues --  -10.34317 -10.32261 -10.28882 -10.25330 -10.24218
 Alpha  occ. eigenvalues --  -10.23876 -10.23767 -10.23711 -10.23568 -10.23334
 Alpha  occ. eigenvalues --  -10.23228 -10.23201 -10.22790 -10.21711 -10.21549
 Alpha  occ. eigenvalues --  -10.21191 -10.21178 -10.20805 -10.20533 -10.20532
 Alpha  occ. eigenvalues --  -10.20527 -10.20302 -10.20203 -10.20095 -10.19932
 Alpha  occ. eigenvalues --  -10.19883 -10.19485 -10.19450 -10.19221 -10.18507
 Alpha  occ. eigenvalues --  -10.17688 -10.17358 -10.16877  -1.13140  -1.07372
 Alpha  occ. eigenvalues --   -1.02814  -1.00385  -0.98898  -0.98464  -0.98164
 Alpha  occ. eigenvalues --   -0.97843  -0.94376  -0.90580  -0.82441  -0.82260
 Alpha  occ. eigenvalues --   -0.81606  -0.80406  -0.78536  -0.78391  -0.77357
 Alpha  occ. eigenvalues --   -0.77107  -0.76000  -0.74093  -0.72854  -0.70943
 Alpha  occ. eigenvalues --   -0.70370  -0.69303  -0.68343  -0.67997  -0.67178
 Alpha  occ. eigenvalues --   -0.66823  -0.65505  -0.64300  -0.61312  -0.60965
 Alpha  occ. eigenvalues --   -0.60408  -0.59124  -0.58786  -0.57267  -0.57028
 Alpha  occ. eigenvalues --   -0.55361  -0.54910  -0.54046  -0.52743  -0.52485
 Alpha  occ. eigenvalues --   -0.52039  -0.51262  -0.50808  -0.50529  -0.50215
 Alpha  occ. eigenvalues --   -0.49240  -0.48785  -0.48717  -0.48103  -0.46598
 Alpha  occ. eigenvalues --   -0.46474  -0.45870  -0.45563  -0.45188  -0.44441
 Alpha  occ. eigenvalues --   -0.44277  -0.44093  -0.43949  -0.43360  -0.42924
 Alpha  occ. eigenvalues --   -0.42707  -0.42563  -0.42135  -0.41834  -0.41304
 Alpha  occ. eigenvalues --   -0.41210  -0.41038  -0.41016  -0.40582  -0.40119
 Alpha  occ. eigenvalues --   -0.39840  -0.39624  -0.39267  -0.39148  -0.38893
 Alpha  occ. eigenvalues --   -0.38663  -0.38368  -0.38302  -0.38179  -0.37828
 Alpha  occ. eigenvalues --   -0.37673  -0.37204  -0.36970  -0.36738  -0.36469
 Alpha  occ. eigenvalues --   -0.35887  -0.35241  -0.34746  -0.34649  -0.34375
 Alpha  occ. eigenvalues --   -0.34013  -0.33456  -0.32814  -0.32712  -0.32071
 Alpha  occ. eigenvalues --   -0.31779  -0.31596  -0.31452  -0.28992  -0.28507
 Alpha  occ. eigenvalues --   -0.27557  -0.27245  -0.26357  -0.26098  -0.25987
 Alpha  occ. eigenvalues --   -0.25245  -0.24590  -0.23634  -0.22102  -0.21042
 Alpha  occ. eigenvalues --   -0.17362
 Alpha virt. eigenvalues --   -0.10597  -0.05886  -0.03784  -0.03335  -0.01105
 Alpha virt. eigenvalues --   -0.00577  -0.00480   0.01292   0.01891   0.02646
 Alpha virt. eigenvalues --    0.02814   0.03771   0.04543   0.04996   0.05412

 Mulliken charges:
               1
     1  O   -0.220509
     2  O   -0.158111
     3  O   -0.255332
     4  O   -0.329314
     5  O   -0.251391
     6  O   -0.228817
     7  N   -0.096062
     8  N   -0.171616
     9  N   -0.125958
    10  N   -0.302576
    11  C   -0.106585
    12  C   -0.081417
    13  C   -0.122180
    14  C    0.045960
    15  C   -0.074883
    16  C    0.074561
    17  C    0.003947
    18  C   -0.124873
    19  C    0.097564
    20  C   -0.003192
    21  C    0.057735
    22  C    0.070694
    23  C   -0.002527
    24  C    0.113459
    25  C   -0.111214
    26  C    0.032310
    27  C    0.078676
    28  C   -0.044892
    29  C   -0.133748
    30  C    0.088524
    31  C   -0.096787
    32  C    0.067042
    33  C   -0.168034
    34  C    0.058750
    35  C   -0.063248
    36  C   -0.159689
    37  C    0.154732
    38  C    0.066820
    39  C    0.200682
    40  C   -0.004332
    41  C    0.146437
    42  C   -0.030506
    43  C   -0.019322
    44  H    0.233052
    45  H    0.008304
    46  H    0.074502
    47  H    0.015176
    48  H    0.052481
    49  H    0.021417
    50  H    0.049748
    51  H    0.014226
    52  H    0.206922
    53  H    0.026435
    54  H    0.040832
    55  H    0.006899
    56  H    0.147264
    57  H    0.040535
    58  H    0.055708
    59  H    0.078679
    60  H    0.033874
    61  H    0.043730
    62  H    0.015988
    63  H    0.012484
    64  H   -0.005866
    65  H   -0.004267
    66  H    0.055311
    67  H    0.020361
    68  H   -0.002327
    69  H    0.092502
    70  H   -0.028819
    71  H    0.046712
    72  H    0.022636
    73  H    0.017428
    74  H    0.057771
    75  H    0.048093
    76  H    0.062466
    77  H   -0.012655
    78  H    0.012124
    79  H    0.061662
    80  H    0.268320
    81  H    0.239511
 Sum of Mulliken charges =  -0.00000

 Dipole moment (field-independent basis, Debye):
    X=             -2.7020    Y=             -1.3904    Z=             -2.2757  Tot=              3.7964
 Quadrupole moment (field-independent basis, Debye-Ang):
   XX=           -255.3125   YY=           -239.4221   ZZ=           -252.9962
   XY=             20.4729   XZ=             17.1615   YZ=            -11.6517

 Normal termination of Gaussian 16 at Tue Jul  2 01:55:44 2019.
