 Gaussian 16, Revision A.03,
 Gaussian 16:  ES64L-G16RevA.03 25-Dec-2016

 --------------------------
 # td=(NStates=1) B3LYP/SVP
 --------------------------

 --
 TD
 --
 Symbolic Z-matrix:
 Charge =  0 Multiplicity = 1

                         Standard orientation:
 ---------------------------------------------------------------------
 Center     Atomic      Atomic             Coordinates (Angstroms)
 Number     Number       Type             X           Y           Z
 ---------------------------------------------------------------------
      1          8           0        4.251555   -4.923282   -1.859487
      2          8           0       -3.182337   -4.885128   -0.992929
      3          8           0       -7.112346   -1.190756   -1.989276
      4          8           0       -3.804669   -3.009491    0.117149
      5          8           0       -7.615432   -0.362706    0.029218
      6          8           0        3.039417    2.341168    0.721050
      7          7           0        0.356884   -0.497522    0.573916
      8          7           0       -1.478993    1.843298    0.485688
      9          7           0        3.232714   -3.215997   -0.692193
     10          7           0        0.834042    2.815893    0.030743
     11          6           0       -0.658135   -2.348579    1.386342
     12          6           0       -0.998581   -1.104324    0.872676
     13          6           0        0.708759   -2.656889    1.280275
     14          6           0        1.295411   -1.422176    0.689046
     15          6           0       -3.792281    1.549339    0.281056
     16          6           0       -2.541746    0.844476    0.565926
     17          6           0       -2.316969   -0.467033    0.887867
     18          6           0       -3.459717    2.841599   -0.098848
     19          6           0       -1.611499   -3.344994    2.050564
     20          6           0        5.419733   -2.791273   -1.409658
     21          6           0        3.545043   -1.920914   -0.252818
     22          6           0       -2.008416    3.014697   -0.026020
     23          6           0        5.006810   -1.628132   -0.689024
     24          6           0       -5.035491    0.899142    0.509246
     25          6           0        2.639130   -1.054948    0.370648
     26          6           0        1.555419   -3.773186    1.809871
     27          6           0        4.186342   -3.778307   -1.385887
     28          6           0       -2.104090   -4.550769    1.100669
     29          6           0       -5.392881   -0.069874   -0.898105
     30          6           0       -4.402092    3.892425   -0.628335
     31          6           0       -1.160133    4.028877   -0.392734
     32          6           0        6.752968   -3.444163   -1.066753
     33          6           0        5.704770   -0.630149   -0.164246
     34          6           0        0.205331    3.935308   -0.371723
     35          6           0        1.186548    5.098675   -0.540932
     36          6           0        2.360300    4.560539   -0.238273
     37          6           0       -3.180388   -4.117151    0.136356
     38          6           0        5.491644    0.429713    0.849351
     39          6           0       -6.774805   -0.593720   -0.802150
     40          6           0        3.736191    5.261349   -0.321846
     41          6           0        2.171159    3.186940    0.181451
     42          6           0        0.883719    6.524545   -0.813661
     43          6           0        4.289598    5.654697    1.145956
     44          1           0        0.562158    0.262091   -0.024763
     45          1           0       -3.087784   -1.200855    1.023541
     46          1           0       -2.406141   -2.825418    2.682626
     47          1           0       -1.071597   -3.857177    2.923220
     48          1           0        5.336944   -2.571253   -2.503329
     49          1           0       -5.050334    0.342177    1.438117
     50          1           0       -5.784396    1.539976    0.802341
     51          1           0        3.118093   -0.077142    0.570094
     52          1           0       -0.480828    1.561073    0.451211
     53          1           0        1.623657   -4.322312    0.861045
     54          1           0        2.478992   -3.337996    2.205255
     55          1           0        0.967845   -4.515578    2.619417
     56          1           0        2.267477   -3.620964   -0.586327
     57          1           0       -1.247943   -5.037719    0.476822
     58          1           0       -2.532505   -5.527903    1.576806
     59          1           0       -4.735180   -0.910956   -1.272728
     60          1           0       -5.597279    0.637568   -1.865278
     61          1           0       -4.183067    4.736834    0.102151
     62          1           0       -5.388244    3.459913   -0.466469
     63          1           0       -4.318352    4.064153   -1.873488
     64          1           0       -1.715302    5.026497   -0.574963
     65          1           0        7.700492   -2.734231   -1.093802
     66          1           0        6.712689   -4.509197   -1.664803
     67          1           0        6.673304   -3.791322   -0.058640
     68          1           0        6.718217   -0.498548   -0.659523
     69          1           0        4.699473    1.335008    0.580376
     70          1           0        6.414208    1.014875    1.042547
     71          1           0        4.814371    0.278259    1.700467
     72          1           0        3.382551    6.350788   -0.585197
     73          1           0        4.516315    4.564717   -0.721925
     74          1           0        0.156113    6.681965   -1.593049
     75          1           0        1.975373    6.960189   -1.153589
     76          1           0        0.676897    7.246003    0.043880
     77          1           0        3.596297    6.352110    1.442474
     78          1           0        5.402947    5.929943    1.024074
     79          1           0        4.130898    4.554830    1.673791
     80          1           0       -3.817377   -4.595633   -1.722461
     81          1           0       -7.940928   -1.497345   -1.910527
 ---------------------------------------------------------------------

 SCF Done:  E(RB3LYP) =  -1949.06743975     A.U. after   18 cycles

 Excitation energies and oscillator strengths:

 Excited State   1:      Singlet-A      1.7245 eV  718.98 nm  f=0.2211  <S**2>=0.000
     156 ->157         0.70304
 This state for optimization and/or second-order correction.
 Total Energy, E(TD-HF/TD-DFT) =  -1949.00406733
 Copying the excited state density for this state as the 1-particle RhoCI density.

 The electronic state is 1-A.
 Alpha  occ. eigenvalues --  -19.19923 -19.17092 -19.14541 -19.12897 -19.10181
 Alpha  occ. eigenvalues --  -19.09877 -14.38455 -14.37957 -14.35942 -14.28866
 Alpha  occ. eigenvalues --  -10.34759 -10.32071 -10.28763 -10.26549 -10.24878
 Alpha  occ. eigenvalues --  -10.24704 -10.24306 -10.24214 -10.23807 -10.23276
 Alpha  occ. eigenvalues --  -10.23058 -10.23029 -10.22735 -10.21773 -10.21666
 Alpha  occ. eigenvalues --  -10.21613 -10.20976 -10.20918 -10.20728 -10.20712
 Alpha  occ. eigenvalues --  -10.20615 -10.20219 -10.20068 -10.19913 -10.19832
 Alpha  occ. eigenvalues --  -10.19734 -10.19524 -10.19348 -10.19048 -10.18997
 Alpha  occ. eigenvalues --  -10.18578 -10.18570 -10.17937  -1.10468  -1.09286
 Alpha  occ. eigenvalues --   -1.02877  -1.01262  -0.99554  -0.97863  -0.97188
 Alpha  occ. eigenvalues --   -0.95838  -0.95690  -0.90815  -0.82972  -0.82450
 Alpha  occ. eigenvalues --   -0.82158  -0.80895  -0.79996  -0.78674  -0.77950
 Alpha  occ. eigenvalues --   -0.76845  -0.76274  -0.74617  -0.73921  -0.73244
 Alpha  occ. eigenvalues --   -0.72310  -0.69562  -0.69154  -0.68969  -0.68487
 Alpha  occ. eigenvalues --   -0.67201  -0.65436  -0.64776  -0.62334  -0.61466
 Alpha  occ. eigenvalues --   -0.60436  -0.59751  -0.59254  -0.58133  -0.57179
 Alpha  occ. eigenvalues --   -0.56310  -0.55539  -0.55012  -0.53898  -0.53491
 Alpha  occ. eigenvalues --   -0.51648  -0.51498  -0.50912  -0.50076  -0.49517
 Alpha  occ. eigenvalues --   -0.48840  -0.48359  -0.48076  -0.47875  -0.47696
 Alpha  occ. eigenvalues --   -0.47060  -0.46969  -0.46091  -0.45864  -0.45491
 Alpha  occ. eigenvalues --   -0.45098  -0.44778  -0.44525  -0.43992  -0.43435
 Alpha  occ. eigenvalues --   -0.43266  -0.42887  -0.42798  -0.42547  -0.42317
 Alpha  occ. eigenvalues --   -0.41541  -0.41162  -0.40838  -0.40797  -0.40581
 Alpha  occ. eigenvalues --   -0.40150  -0.40031  -0.39935  -0.39724  -0.39538
 Alpha  occ. eigenvalues --   -0.39028  -0.38832  -0.38651  -0.38122  -0.37948
 Alpha  occ. eigenvalues --   -0.37534  -0.37459  -0.37085  -0.36801  -0.36443
 Alpha  occ. eigenvalues --   -0.36311  -0.35930  -0.35622  -0.34978  -0.34718
 Alpha  occ. eigenvalues --   -0.34626  -0.34045  -0.33224  -0.32824  -0.32740
 Alpha  occ. eigenvalues --   -0.32120  -0.31710  -0.29952  -0.29579  -0.29483
 Alpha  occ. eigenvalues --   -0.28413  -0.27226  -0.26760  -0.25601  -0.25327
 Alpha  occ. eigenvalues --   -0.25068  -0.24283  -0.24013  -0.23142  -0.21858
 Alpha  occ. eigenvalues --   -0.18041
 Alpha virt. eigenvalues --   -0.10699  -0.05968  -0.04136  -0.03729  -0.00419
 Alpha virt. eigenvalues --    0.00908   0.01278   0.02004   0.02558   0.03020
 Alpha virt. eigenvalues --    0.03591   0.03858   0.04562   0.05177   0.05946

 Mulliken charges:
               1
     1  O   -0.248971
     2  O   -0.221180
     3  O   -0.163924
     4  O   -0.276170
     5  O   -0.220815
     6  O   -0.322534
     7  N   -0.091809
     8  N   -0.129757
     9  N   -0.055436
    10  N   -0.284353
    11  C   -0.087655
    12  C    0.057828
    13  C   -0.185040
    14  C    0.055448
    15  C   -0.029390
    16  C    0.098146
    17  C   -0.033357
    18  C   -0.153939
    19  C    0.065564
    20  C   -0.020520
    21  C   -0.017973
    22  C    0.117864
    23  C    0.042719
    24  C    0.135394
    25  C   -0.084810
    26  C    0.080776
    27  C    0.063201
    28  C   -0.033845
    29  C   -0.056273
    30  C    0.050674
    31  C   -0.157803
    32  C    0.023588
    33  C   -0.157129
    34  C    0.108453
    35  C   -0.078699
    36  C   -0.139577
    37  C    0.183292
    38  C   -0.004591
    39  C    0.130657
    40  C    0.049541
    41  C    0.191863
    42  C    0.028363
    43  C   -0.055956
    44  H    0.134239
    45  H    0.009538
    46  H    0.035356
    47  H    0.013557
    48  H    0.030663
    49  H    0.017736
    50  H   -0.018258
    51  H    0.002808
    52  H    0.139718
    53  H    0.011586
    54  H    0.059557
    55  H    0.039689
    56  H    0.153116
    57  H    0.065895
    58  H    0.061139
    59  H    0.072232
    60  H    0.069067
    61  H    0.049248
    62  H    0.009739
    63  H    0.063817
    64  H   -0.007674
    65  H    0.045406
    66  H    0.056402
    67  H   -0.000243
    68  H   -0.000672
    69  H    0.095816
    70  H    0.015302
    71  H    0.024171
    72  H    0.005096
    73  H    0.035252
    74  H    0.023519
    75  H    0.031035
    76  H    0.049159
    77  H   -0.000093
    78  H    0.040245
    79  H    0.053683
    80  H    0.214823
    81  H    0.126465
 Sum of Mulliken charges =  -0.00000

 Dipole moment (field-independent basis, Debye):
    X=             -4.5359    Y=              0.2160    Z=             -0.6715  Tot=              4.5904
 Quadrupole moment (field-independent basis, Debye-Ang):
   XX=           -261.9896   YY=           -238.6106   ZZ=           -256.2735
   XY=             21.1212   XZ=             13.5779   YZ=            -15.2633

 Normal termination of Gaussian 16 at Tue Jul  2 17:46:41 2019.
