 Gaussian 16, Revision A.03,
 Gaussian 16:  ES64L-G16RevA.03 25-Dec-2016

 --------------------------
 # td=(NStates=1) B3LYP/SVP
 --------------------------

 --
 TD
 --
 Symbolic Z-matrix:
 Charge =  0 Multiplicity = 1

                         Standard orientation:
 ---------------------------------------------------------------------
 Center     Atomic      Atomic             Coordinates (Angstroms)
 Number     Number       Type             X           Y           Z
 ---------------------------------------------------------------------
      1          8           0        4.387864   -4.916173   -1.854049
      2          8           0       -3.078199   -4.801383   -1.206646
      3          8           0       -7.070538   -1.396686   -1.871384
      4          8           0       -3.804134   -3.141795    0.055362
      5          8           0       -7.688983   -0.488206    0.054729
      6          8           0        3.006144    2.381410    0.478946
      7          7           0        0.210752   -0.516151    0.613840
      8          7           0       -1.537454    1.717260    0.401205
      9          7           0        3.301629   -3.039181   -0.819882
     10          7           0        0.811798    2.997959    0.185945
     11          6           0       -0.608020   -2.524414    1.330888
     12          6           0       -0.963114   -1.192883    0.915735
     13          6           0        0.753990   -2.575903    1.076458
     14          6           0        1.278030   -1.378513    0.621473
     15          6           0       -3.781688    1.476951    0.346081
     16          6           0       -2.531956    0.790094    0.670227
     17          6           0       -2.245089   -0.500622    1.065172
     18          6           0       -3.474132    2.784425   -0.137756
     19          6           0       -1.580365   -3.539022    1.972701
     20          6           0        5.569519   -2.704346   -1.237075
     21          6           0        3.614980   -1.843377   -0.275138
     22          6           0       -2.068924    2.960336    0.009523
     23          6           0        5.010900   -1.604723   -0.465201
     24          6           0       -5.218575    0.890897    0.349900
     25          6           0        2.633839   -0.936224    0.332414
     26          6           0        1.669060   -3.752886    1.634897
     27          6           0        4.399643   -3.753795   -1.356622
     28          6           0       -2.149977   -4.527530    1.073361
     29          6           0       -5.496010   -0.024197   -0.894439
     30          6           0       -4.513162    3.901616   -0.308962
     31          6           0       -1.289532    4.115384   -0.192900
     32          6           0        6.783974   -3.516445   -0.705015
     33          6           0        5.825276   -0.543039   -0.058141
     34          6           0        0.227080    4.011340   -0.227728
     35          6           0        1.160759    5.188379   -0.571161
     36          6           0        2.308303    4.651165   -0.291491
     37          6           0       -3.054033   -4.027148   -0.043343
     38          6           0        5.372468    0.669601    0.586286
     39          6           0       -6.835617   -0.639612   -0.815466
     40          6           0        3.643397    5.198624   -0.335083
     41          6           0        2.109152    3.216836    0.128844
     42          6           0        0.768759    6.492393   -0.955526
     43          6           0        4.382708    5.477234    1.079237
     44          1           0        0.153640    0.443409    0.206015
     45          1           0       -2.978820   -1.110705    1.326714
     46          1           0       -2.372962   -3.050775    2.562548
     47          1           0       -0.974491   -4.080437    2.808960
     48          1           0        5.766045   -2.297279   -2.124409
     49          1           0       -5.339072    0.185119    1.253129
     50          1           0       -5.773717    1.585595    0.489473
     51          1           0        3.004805    0.011199    0.553092
     52          1           0       -0.651951    1.607317    0.768281
     53          1           0        1.652778   -4.620689    0.932756
     54          1           0        2.729103   -3.452607    1.783014
     55          1           0        1.215278   -4.044451    2.550824
     56          1           0        2.338209   -3.304171   -0.769784
     57          1           0       -1.285773   -5.295742    0.495605
     58          1           0       -2.742850   -5.287978    1.711657
     59          1           0       -4.841331   -0.802991   -0.906648
     60          1           0       -5.391261    0.435831   -1.804567
     61          1           0       -4.379966    4.763027    0.457148
     62          1           0       -5.694303    3.628978   -0.410809
     63          1           0       -4.202896    4.279332   -1.336705
     64          1           0       -1.649362    4.785824   -0.762074
     65          1           0        7.662845   -2.865406   -0.649872
     66          1           0        7.076480   -4.466903   -1.126738
     67          1           0        6.507595   -3.686751    0.366945
     68          1           0        6.911709   -0.722172   -0.362515
     69          1           0        4.744462    1.239261   -0.151331
     70          1           0        6.169509    1.172662    1.243643
     71          1           0        4.612829    0.539315    1.474517
     72          1           0        3.562032    6.224519   -0.802050
     73          1           0        4.372789    4.557631   -1.002300
     74          1           0        0.243324    6.575096   -2.012725
     75          1           0        1.730322    7.083746   -1.215175
     76          1           0        0.086990    7.009926   -0.247974
     77          1           0        3.910961    6.257173    1.605604
     78          1           0        5.291186    5.800645    1.034579
     79          1           0        4.543458    4.548029    1.703709
     80          1           0       -3.903690   -4.422685   -1.613466
     81          1           0       -7.838071   -1.882023   -1.885382
 ---------------------------------------------------------------------

 SCF Done:  E(RB3LYP) =  -1949.08213772     A.U. after   16 cycles

 Excitation energies and oscillator strengths:

 Excited State   1:      Singlet-A      1.5879 eV  780.80 nm  f=0.2514  <S**2>=0.000
     156 ->157         0.70638
     156 <-157        -0.11052
 This state for optimization and/or second-order correction.
 Total Energy, E(TD-HF/TD-DFT) =  -1949.02378301
 Copying the excited state density for this state as the 1-particle RhoCI density.

 The electronic state is 1-A.
 Alpha  occ. eigenvalues --  -19.18384 -19.17929 -19.14966 -19.11846 -19.11816
 Alpha  occ. eigenvalues --  -19.10545 -14.37606 -14.37548 -14.36099 -14.28861
 Alpha  occ. eigenvalues --  -10.33311 -10.31877 -10.30289 -10.26598 -10.24556
 Alpha  occ. eigenvalues --  -10.24413 -10.23844 -10.23501 -10.23474 -10.23296
 Alpha  occ. eigenvalues --  -10.23251 -10.22381 -10.22052 -10.21417 -10.20743
 Alpha  occ. eigenvalues --  -10.20642 -10.20637 -10.20467 -10.20324 -10.19797
 Alpha  occ. eigenvalues --  -10.19721 -10.19572 -10.19484 -10.19433 -10.19362
 Alpha  occ. eigenvalues --  -10.19337 -10.19224 -10.18863 -10.18754 -10.18382
 Alpha  occ. eigenvalues --  -10.18155 -10.17646 -10.16591  -1.11878  -1.10920
 Alpha  occ. eigenvalues --   -1.01971  -1.01576  -1.00976  -0.99839  -0.98631
 Alpha  occ. eigenvalues --   -0.97244  -0.95972  -0.94676  -0.82697  -0.82511
 Alpha  occ. eigenvalues --   -0.82077  -0.81783  -0.81130  -0.78726  -0.78342
 Alpha  occ. eigenvalues --   -0.77358  -0.76243  -0.75079  -0.73849  -0.71959
 Alpha  occ. eigenvalues --   -0.71175  -0.70110  -0.69782  -0.69437  -0.68118
 Alpha  occ. eigenvalues --   -0.67517  -0.65760  -0.64304  -0.63761  -0.63024
 Alpha  occ. eigenvalues --   -0.62190  -0.60605  -0.59683  -0.58900  -0.57613
 Alpha  occ. eigenvalues --   -0.56295  -0.55934  -0.54569  -0.54078  -0.53539
 Alpha  occ. eigenvalues --   -0.52895  -0.51812  -0.50864  -0.50616  -0.50400
 Alpha  occ. eigenvalues --   -0.49932  -0.49168  -0.48987  -0.48590  -0.47745
 Alpha  occ. eigenvalues --   -0.47415  -0.46980  -0.46643  -0.45683  -0.45336
 Alpha  occ. eigenvalues --   -0.44860  -0.44659  -0.44319  -0.44056  -0.43793
 Alpha  occ. eigenvalues --   -0.43591  -0.43150  -0.42892  -0.42464  -0.42195
 Alpha  occ. eigenvalues --   -0.41911  -0.41872  -0.41610  -0.41466  -0.41345
 Alpha  occ. eigenvalues --   -0.41085  -0.40916  -0.40487  -0.40341  -0.39995
 Alpha  occ. eigenvalues --   -0.39948  -0.39469  -0.39125  -0.38758  -0.38516
 Alpha  occ. eigenvalues --   -0.38174  -0.38036  -0.37110  -0.36947  -0.36906
 Alpha  occ. eigenvalues --   -0.36285  -0.35937  -0.35409  -0.35250  -0.35037
 Alpha  occ. eigenvalues --   -0.34681  -0.34569  -0.34220  -0.33789  -0.33193
 Alpha  occ. eigenvalues --   -0.32610  -0.32315  -0.32083  -0.30150  -0.29824
 Alpha  occ. eigenvalues --   -0.27703  -0.27414  -0.26383  -0.26222  -0.25917
 Alpha  occ. eigenvalues --   -0.25357  -0.25047  -0.24778  -0.24341  -0.21232
 Alpha  occ. eigenvalues --   -0.17288
 Alpha virt. eigenvalues --   -0.10621  -0.06418  -0.04917  -0.01542  -0.00872
 Alpha virt. eigenvalues --    0.00766   0.01889   0.02707   0.03674   0.04385
 Alpha virt. eigenvalues --    0.04668   0.05185   0.05396   0.06221   0.06485

 Mulliken charges:
               1
     1  O   -0.246388
     2  O   -0.223673
     3  O   -0.131879
     4  O   -0.178623
     5  O   -0.247114
     6  O   -0.254160
     7  N   -0.091914
     8  N   -0.102942
     9  N   -0.073004
    10  N   -0.106254
    11  C   -0.088276
    12  C   -0.013684
    13  C   -0.215711
    14  C    0.103160
    15  C   -0.123951
    16  C    0.103196
    17  C    0.041158
    18  C   -0.111252
    19  C    0.115052
    20  C   -0.016944
    21  C   -0.003605
    22  C    0.091297
    23  C   -0.066712
    24  C    0.247073
    25  C   -0.017004
    26  C    0.079571
    27  C    0.183554
    28  C   -0.055630
    29  C    0.106655
    30  C   -0.010028
    31  C    0.035022
    32  C    0.052379
    33  C   -0.113118
    34  C   -0.072507
    35  C   -0.047281
    36  C   -0.140551
    37  C    0.141368
    38  C    0.023863
    39  C    0.105722
    40  C    0.001887
    41  C    0.130487
    42  C    0.034628
    43  C    0.071075
    44  H    0.138389
    45  H   -0.086712
    46  H    0.023317
    47  H    0.020141
    48  H    0.007257
    49  H    0.020518
    50  H   -0.105159
    51  H   -0.043036
    52  H    0.107318
    53  H    0.022756
    54  H    0.039239
    55  H    0.005545
    56  H    0.122586
    57  H    0.060767
    58  H    0.063686
    59  H    0.000646
    60  H    0.003708
    61  H    0.058506
    62  H    0.055526
    63  H    0.031473
    64  H   -0.097424
    65  H    0.004839
    66  H    0.040526
    67  H    0.008946
    68  H    0.002535
    69  H    0.085132
    70  H    0.020107
    71  H    0.047499
    72  H   -0.009680
    73  H    0.034238
    74  H    0.031485
    75  H    0.018359
    76  H    0.044325
    77  H   -0.007220
    78  H   -0.046258
    79  H    0.028869
    80  H    0.183567
    81  H    0.148740
 Sum of Mulliken charges =  -0.00000

 Dipole moment (field-independent basis, Debye):
    X=             -2.3088    Y=              1.3587    Z=             -0.4181  Tot=              2.7114
 Quadrupole moment (field-independent basis, Debye-Ang):
   XX=           -251.5328   YY=           -243.0853   ZZ=           -252.6669
   XY=             20.5241   XZ=             15.8571   YZ=            -18.0597

 Normal termination of Gaussian 16 at Fri Jun 28 07:50:09 2019.
