 Gaussian 16, Revision A.03,
 Gaussian 16:  ES64L-G16RevA.03 25-Dec-2016

 --------------------------
 # td=(NStates=1) B3LYP/SVP
 --------------------------

 --
 TD
 --
 Symbolic Z-matrix:
 Charge =  0 Multiplicity = 1

                         Standard orientation:
 ---------------------------------------------------------------------
 Center     Atomic      Atomic             Coordinates (Angstroms)
 Number     Number       Type             X           Y           Z
 ---------------------------------------------------------------------
      1          8           0        4.442747   -4.983582   -1.809892
      2          8           0       -3.178756   -4.831668   -1.019649
      3          8           0       -6.989467   -1.654107   -1.756361
      4          8           0       -3.920556   -3.172411    0.217821
      5          8           0       -7.550676   -0.649244    0.233595
      6          8           0        2.964434    2.316687    0.371846
      7          7           0        0.268318   -0.554906    0.430765
      8          7           0       -1.573977    1.947940    0.269413
      9          7           0        3.335636   -3.176894   -0.750308
     10          7           0        0.806816    2.910759    0.099275
     11          6           0       -0.727233   -2.410745    1.395406
     12          6           0       -0.989233   -1.088875    0.895945
     13          6           0        0.687170   -2.608473    1.177826
     14          6           0        1.321618   -1.402576    0.558196
     15          6           0       -3.803977    1.623742    0.213593
     16          6           0       -2.532526    0.996409    0.554804
     17          6           0       -2.277760   -0.374485    0.887836
     18          6           0       -3.560490    2.869853   -0.215191
     19          6           0       -1.604891   -3.349372    1.960388
     20          6           0        5.572105   -2.813713   -1.386187
     21          6           0        3.586780   -1.793251   -0.303952
     22          6           0       -2.100950    3.140067   -0.104775
     23          6           0        5.032325   -1.571176   -0.577029
     24          6           0       -5.072660    0.753969    0.285601
     25          6           0        2.606843   -1.018709    0.282000
     26          6           0        1.519191   -3.673218    1.806302
     27          6           0        4.410882   -3.808916   -1.336943
     28          6           0       -2.057636   -4.420883    1.106758
     29          6           0       -5.435937   -0.035188   -0.927510
     30          6           0       -4.503324    3.886437   -0.699893
     31          6           0       -1.157340    4.108870   -0.384159
     32          6           0        6.905265   -3.480876   -0.792319
     33          6           0        5.842670   -0.555113   -0.011660
     34          6           0        0.216473    4.070667   -0.213312
     35          6           0        1.118433    5.122512   -0.391146
     36          6           0        2.314056    4.577783   -0.149335
     37          6           0       -3.107164   -4.014210    0.102488
     38          6           0        5.431029    0.620336    0.714819
     39          6           0       -6.822571   -0.760894   -0.755967
     40          6           0        3.666443    5.291931   -0.155732
     41          6           0        2.178470    3.165490    0.098051
     42          6           0        0.671650    6.512876   -0.851508
     43          6           0        4.297753    5.531135    1.291581
     44          1           0        0.539582    0.350999    0.013456
     45          1           0       -3.059073   -0.989791    1.390572
     46          1           0       -2.526492   -2.942668    2.501387
     47          1           0       -1.189892   -3.912272    2.870836
     48          1           0        5.791356   -2.565699   -2.458445
     49          1           0       -5.385030    0.261002    1.156202
     50          1           0       -5.914083    1.421410    0.458295
     51          1           0        2.842573    0.107239    0.264012
     52          1           0       -0.488720    2.015372    0.340180
     53          1           0        1.309758   -4.772708    1.165991
     54          1           0        2.587385   -3.425089    1.736750
     55          1           0        1.562708   -3.801766    3.002815
     56          1           0        2.493331   -3.796894   -0.875335
     57          1           0       -1.175206   -4.997616    0.646812
     58          1           0       -2.558678   -5.382487    1.710548
     59          1           0       -4.756512   -0.774141   -1.049237
     60          1           0       -5.311486    0.512760   -1.711700
     61          1           0       -4.661449    4.473036    0.196094
     62          1           0       -5.814470    3.710260   -1.035346
     63          1           0       -4.076153    4.490122   -1.631893
     64          1           0       -1.575605    4.986273   -0.592407
     65          1           0        7.730639   -2.760049   -0.819937
     66          1           0        7.128103   -4.413817   -1.526098
     67          1           0        6.639253   -3.652444    0.250395
     68          1           0        6.934599   -0.426483   -0.467593
     69          1           0        4.953431    1.334231    0.119306
     70          1           0        6.344467    0.907975    1.319975
     71          1           0        4.610934    0.271147    1.542643
     72          1           0        3.716115    6.424325   -0.808143
     73          1           0        4.586487    4.673716   -0.578501
     74          1           0        0.282208    6.428678   -2.149250
     75          1           0        1.671939    7.052009   -0.804443
     76          1           0       -0.398713    6.731895   -0.211396
     77          1           0        3.575877    6.158997    1.793662
     78          1           0        5.335538    5.772579    1.086244
     79          1           0        4.258371    4.559984    2.035594
     80          1           0       -3.913140   -4.637792   -1.735107
     81          1           0       -7.842073   -2.034405   -1.839691
 ---------------------------------------------------------------------

 SCF Done:  E(RB3LYP) =  -1949.00935821     A.U. after   19 cycles

 Excitation energies and oscillator strengths:

 Excited State   1:      Singlet-A      1.7036 eV  727.79 nm  f=0.3296  <S**2>=0.000
     156 ->157         0.71068
     156 <-157        -0.12882
 This state for optimization and/or second-order correction.
 Total Energy, E(TD-HF/TD-DFT) =  -1948.94675329
 Copying the excited state density for this state as the 1-particle RhoCI density.

 The electronic state is 1-A.
 Alpha  occ. eigenvalues --  -19.18629 -19.17041 -19.13495 -19.13172 -19.10838
 Alpha  occ. eigenvalues --  -19.10383 -14.38235 -14.37646 -14.35067 -14.28150
 Alpha  occ. eigenvalues --  -10.33000 -10.32571 -10.28808 -10.26312 -10.26272
 Alpha  occ. eigenvalues --  -10.24762 -10.24122 -10.23925 -10.23851 -10.23551
 Alpha  occ. eigenvalues --  -10.22991 -10.22688 -10.22306 -10.22099 -10.21637
 Alpha  occ. eigenvalues --  -10.21621 -10.21543 -10.21519 -10.21194 -10.20978
 Alpha  occ. eigenvalues --  -10.20840 -10.20668 -10.20473 -10.20415 -10.19910
 Alpha  occ. eigenvalues --  -10.19777 -10.19673 -10.19325 -10.19221 -10.18558
 Alpha  occ. eigenvalues --  -10.18448 -10.18152 -10.17773  -1.09439  -1.09402
 Alpha  occ. eigenvalues --   -1.03907  -1.00553  -1.00477  -0.99596  -0.98004
 Alpha  occ. eigenvalues --   -0.97171  -0.93533  -0.92989  -0.84319  -0.82473
 Alpha  occ. eigenvalues --   -0.80959  -0.80385  -0.79694  -0.79075  -0.78298
 Alpha  occ. eigenvalues --   -0.77738  -0.76218  -0.75367  -0.74221  -0.72402
 Alpha  occ. eigenvalues --   -0.70569  -0.69547  -0.68959  -0.67981  -0.67741
 Alpha  occ. eigenvalues --   -0.66336  -0.65235  -0.63572  -0.62596  -0.62228
 Alpha  occ. eigenvalues --   -0.60834  -0.60404  -0.59217  -0.56909  -0.56617
 Alpha  occ. eigenvalues --   -0.55908  -0.55575  -0.54889  -0.53760  -0.53162
 Alpha  occ. eigenvalues --   -0.52495  -0.51712  -0.51278  -0.50488  -0.49500
 Alpha  occ. eigenvalues --   -0.49016  -0.48788  -0.47904  -0.47648  -0.47230
 Alpha  occ. eigenvalues --   -0.46942  -0.46307  -0.46003  -0.45644  -0.45375
 Alpha  occ. eigenvalues --   -0.45031  -0.44742  -0.44216  -0.43797  -0.43580
 Alpha  occ. eigenvalues --   -0.43022  -0.42698  -0.42607  -0.42470  -0.42063
 Alpha  occ. eigenvalues --   -0.41813  -0.41512  -0.41377  -0.41125  -0.40934
 Alpha  occ. eigenvalues --   -0.40752  -0.40173  -0.39788  -0.39709  -0.39169
 Alpha  occ. eigenvalues --   -0.39045  -0.38970  -0.38529  -0.38361  -0.37669
 Alpha  occ. eigenvalues --   -0.37600  -0.37082  -0.36754  -0.35995  -0.35667
 Alpha  occ. eigenvalues --   -0.35296  -0.35235  -0.35084  -0.34492  -0.34143
 Alpha  occ. eigenvalues --   -0.33860  -0.33669  -0.33450  -0.32948  -0.32419
 Alpha  occ. eigenvalues --   -0.32319  -0.31861  -0.31508  -0.30045  -0.28747
 Alpha  occ. eigenvalues --   -0.28480  -0.28216  -0.26850  -0.25754  -0.25490
 Alpha  occ. eigenvalues --   -0.25237  -0.24931  -0.24506  -0.23628  -0.21852
 Alpha  occ. eigenvalues --   -0.17833
 Alpha virt. eigenvalues --   -0.11024  -0.06905  -0.05122  -0.01097  -0.00490
 Alpha virt. eigenvalues --   -0.00341   0.01580   0.02117   0.02362   0.02756
 Alpha virt. eigenvalues --    0.02796   0.03139   0.04095   0.05317   0.05380

 Mulliken charges:
               1
     1  O   -0.275998
     2  O   -0.277281
     3  O   -0.170177
     4  O   -0.177854
     5  O   -0.239662
     6  O   -0.171917
     7  N   -0.108799
     8  N   -0.124844
     9  N   -0.179940
    10  N   -0.319275
    11  C   -0.010409
    12  C    0.057002
    13  C   -0.146948
    14  C    0.116173
    15  C   -0.058873
    16  C    0.078435
    17  C   -0.016193
    18  C   -0.056024
    19  C    0.080317
    20  C   -0.086369
    21  C    0.142358
    22  C    0.063548
    23  C   -0.031084
    24  C    0.105898
    25  C   -0.172509
    26  C   -0.037533
    27  C    0.137953
    28  C   -0.058508
    29  C    0.146841
    30  C   -0.053450
    31  C   -0.066804
    32  C    0.022574
    33  C   -0.169668
    34  C    0.104499
    35  C   -0.060487
    36  C   -0.131511
    37  C    0.134226
    38  C    0.052144
    39  C    0.158865
    40  C   -0.078935
    41  C    0.145817
    42  C   -0.025726
    43  C   -0.023325
    44  H    0.143955
    45  H    0.028011
    46  H    0.020566
    47  H    0.011970
    48  H    0.050018
    49  H   -0.012420
    50  H   -0.025771
    51  H    0.061938
    52  H    0.160623
    53  H    0.039430
    54  H    0.023077
    55  H    0.047536
    56  H    0.155375
    57  H    0.041132
    58  H    0.066571
    59  H   -0.008556
    60  H   -0.035845
    61  H    0.041256
    62  H    0.046412
    63  H    0.052517
    64  H   -0.105534
    65  H    0.017869
    66  H    0.065341
    67  H    0.020347
    68  H    0.029550
    69  H    0.062966
    70  H    0.021922
    71  H    0.043533
    72  H    0.032562
    73  H    0.029885
    74  H    0.056999
    75  H    0.048348
    76  H    0.076049
    77  H    0.014776
    78  H    0.030788
    79  H    0.039300
    80  H    0.222371
    81  H    0.168583
 Sum of Mulliken charges =  -0.00000

 Dipole moment (field-independent basis, Debye):
    X=             -2.3882    Y=              1.9269    Z=             -0.8861  Tot=              3.1940
 Quadrupole moment (field-independent basis, Debye-Ang):
   XX=           -246.2222   YY=           -252.2171   ZZ=           -252.2410
   XY=             22.3388   XZ=             19.9690   YZ=            -12.6645

 Normal termination of Gaussian 16 at Wed Jul  3 13:17:34 2019.
