 Gaussian 16, Revision A.03,
 Gaussian 16:  ES64L-G16RevA.03 25-Dec-2016

 --------------------------
 # td=(NStates=1) B3LYP/SVP
 --------------------------

 --
 TD
 --
 Symbolic Z-matrix:
 Charge =  0 Multiplicity = 1

                         Standard orientation:
 ---------------------------------------------------------------------
 Center     Atomic      Atomic             Coordinates (Angstroms)
 Number     Number       Type             X           Y           Z
 ---------------------------------------------------------------------
      1          8           0        3.920273   -4.887038   -2.063352
      2          8           0       -3.376768   -4.635849   -1.176453
      3          8           0       -6.850028   -1.329925   -1.816660
      4          8           0       -3.932746   -2.732398   -0.049075
      5          8           0       -7.427400   -0.466627    0.240221
      6          8           0        3.086057    2.167246    0.548489
      7          7           0        0.209547   -0.549309    0.595359
      8          7           0       -1.490332    1.902045    0.347933
      9          7           0        3.228620   -3.269645   -0.689627
     10          7           0        0.966698    2.889487    0.129967
     11          6           0       -0.844757   -2.364357    1.347022
     12          6           0       -1.111120   -0.952774    1.008830
     13          6           0        0.550795   -2.657112    1.258886
     14          6           0        1.105734   -1.502807    0.697221
     15          6           0       -3.742330    1.803808    0.198365
     16          6           0       -2.468445    1.122439    0.631017
     17          6           0       -2.264473   -0.197933    0.952413
     18          6           0       -3.349581    3.018620   -0.200671
     19          6           0       -1.910630   -3.281996    1.980988
     20          6           0        5.325825   -2.976990   -1.299039
     21          6           0        3.540635   -1.979113   -0.160078
     22          6           0       -1.908852    3.155872   -0.158044
     23          6           0        4.921561   -1.853448   -0.545437
     24          6           0       -5.059654    1.044171    0.402150
     25          6           0        2.541547   -1.112725    0.394613
     26          6           0        1.172162   -3.896980    1.793883
     27          6           0        4.169581   -3.872130   -1.488224
     28          6           0       -2.470747   -4.347756    0.985815
     29          6           0       -5.320321    0.119909   -0.659048
     30          6           0       -4.301889    4.072143   -0.749343
     31          6           0       -0.993726    4.117362   -0.465828
     32          6           0        6.516943   -3.726248   -0.710528
     33          6           0        5.799173   -0.772811   -0.180278
     34          6           0        0.405473    3.973773   -0.329544
     35          6           0        1.434124    5.076202   -0.515758
     36          6           0        2.605054    4.450985   -0.206025
     37          6           0       -3.340339   -3.776005   -0.042118
     38          6           0        5.527571    0.276387    0.861544
     39          6           0       -6.660202   -0.550422   -0.654923
     40          6           0        4.035348    4.830053   -0.203976
     41          6           0        2.246959    2.932931    0.198201
     42          6           0        1.066245    6.422854   -0.946071
     43          6           0        4.612632    5.261073    1.198168
     44          1           0        0.254663    0.470274    0.318391
     45          1           0       -3.152247   -0.767346    1.252880
     46          1           0       -2.801857   -2.636009    2.125126
     47          1           0       -1.527441   -3.931220    2.828884
     48          1           0        5.897924   -2.708859   -2.394547
     49          1           0       -5.007131    0.732031    1.502803
     50          1           0       -5.997939    1.824978    0.491345
     51          1           0        2.828455    0.097940    0.260898
     52          1           0       -0.392073    1.942696    0.653280
     53          1           0        0.893595   -4.819983    1.321721
     54          1           0        2.295477   -3.755685    1.601854
     55          1           0        0.925134   -4.080361    2.842102
     56          1           0        2.387335   -3.681256   -0.763121
     57          1           0       -1.575149   -4.886734    0.665762
     58          1           0       -3.052539   -5.016462    1.670068
     59          1           0       -4.521329   -0.661654   -0.843086
     60          1           0       -5.058329    0.660557   -1.730581
     61          1           0       -4.138720    5.130382   -0.311302
     62          1           0       -5.363661    3.831705   -0.671233
     63          1           0       -4.185513    4.498343   -1.832751
     64          1           0       -1.179626    5.079961   -1.018791
     65          1           0        7.424050   -3.304214   -0.562564
     66          1           0        6.714683   -4.529297   -1.402311
     67          1           0        6.129057   -4.042056    0.361040
     68          1           0        6.844722   -0.777213   -0.791079
     69          1           0        5.065475    1.052756    0.248567
     70          1           0        6.390185    0.992989    1.412758
     71          1           0        4.868259   -0.235763    1.675898
     72          1           0        4.158435    5.746723   -0.691234
     73          1           0        4.720436    3.987850   -0.597538
     74          1           0        0.618369    6.477817   -1.962762
     75          1           0        2.112056    7.077350   -0.881916
     76          1           0        0.422838    6.801708   -0.225388
     77          1           0        4.000301    5.881827    1.611229
     78          1           0        5.548480    5.920635    1.143822
     79          1           0        4.520299    4.474318    1.918730
     80          1           0       -3.989566   -4.252036   -1.914219
     81          1           0       -7.815719   -1.469859   -1.828627
 ---------------------------------------------------------------------

 SCF Done:  E(RB3LYP) =  -1949.07767532     A.U. after   17 cycles

 Excitation energies and oscillator strengths:

 Excited State   1:      Singlet-A      1.7542 eV  706.80 nm  f=0.3416  <S**2>=0.000
     156 ->157         0.70842
     156 <-157        -0.12719
 This state for optimization and/or second-order correction.
 Total Energy, E(TD-HF/TD-DFT) =  -1949.01321093
 Copying the excited state density for this state as the 1-particle RhoCI density.

 The electronic state is 1-A.
 Alpha  occ. eigenvalues --  -19.17886 -19.17381 -19.15107 -19.13664 -19.11087
 Alpha  occ. eigenvalues --  -19.10555 -14.37841 -14.36075 -14.35571 -14.29078
 Alpha  occ. eigenvalues --  -10.33651 -10.32046 -10.28673 -10.26055 -10.25270
 Alpha  occ. eigenvalues --  -10.24559 -10.24201 -10.23330 -10.23051 -10.22669
 Alpha  occ. eigenvalues --  -10.22620 -10.21763 -10.21661 -10.21528 -10.21279
 Alpha  occ. eigenvalues --  -10.20940 -10.20805 -10.20786 -10.20761 -10.20693
 Alpha  occ. eigenvalues --  -10.20573 -10.20539 -10.20441 -10.20090 -10.20044
 Alpha  occ. eigenvalues --  -10.20028 -10.19790 -10.19233 -10.19207 -10.18861
 Alpha  occ. eigenvalues --  -10.18392 -10.18193 -10.16395  -1.09009  -1.08968
 Alpha  occ. eigenvalues --   -1.05140  -1.03602  -1.01174  -1.00180  -0.99396
 Alpha  occ. eigenvalues --   -0.98097  -0.95771  -0.94541  -0.82857  -0.82364
 Alpha  occ. eigenvalues --   -0.82203  -0.81957  -0.79667  -0.79087  -0.77940
 Alpha  occ. eigenvalues --   -0.77909  -0.77006  -0.75514  -0.73856  -0.72229
 Alpha  occ. eigenvalues --   -0.70869  -0.70269  -0.68852  -0.68715  -0.67874
 Alpha  occ. eigenvalues --   -0.66958  -0.66179  -0.64628  -0.62696  -0.62021
 Alpha  occ. eigenvalues --   -0.60108  -0.58931  -0.58488  -0.57646  -0.56987
 Alpha  occ. eigenvalues --   -0.56381  -0.55171  -0.53887  -0.53800  -0.53143
 Alpha  occ. eigenvalues --   -0.53010  -0.52814  -0.51664  -0.50898  -0.49747
 Alpha  occ. eigenvalues --   -0.49657  -0.48773  -0.48297  -0.48283  -0.47682
 Alpha  occ. eigenvalues --   -0.47439  -0.46433  -0.45747  -0.45597  -0.45044
 Alpha  occ. eigenvalues --   -0.44858  -0.44524  -0.44324  -0.43906  -0.43610
 Alpha  occ. eigenvalues --   -0.43302  -0.43152  -0.42962  -0.42635  -0.42354
 Alpha  occ. eigenvalues --   -0.41984  -0.41841  -0.41739  -0.41257  -0.41078
 Alpha  occ. eigenvalues --   -0.40743  -0.40531  -0.40407  -0.40210  -0.39841
 Alpha  occ. eigenvalues --   -0.39514  -0.39270  -0.39164  -0.38887  -0.38463
 Alpha  occ. eigenvalues --   -0.38287  -0.37768  -0.37360  -0.37043  -0.36679
 Alpha  occ. eigenvalues --   -0.36312  -0.35760  -0.35538  -0.34970  -0.34577
 Alpha  occ. eigenvalues --   -0.34149  -0.33923  -0.33431  -0.33332  -0.33078
 Alpha  occ. eigenvalues --   -0.32813  -0.32306  -0.31439  -0.30641  -0.29991
 Alpha  occ. eigenvalues --   -0.29038  -0.27915  -0.26630  -0.26487  -0.25922
 Alpha  occ. eigenvalues --   -0.25002  -0.24676  -0.23778  -0.23014  -0.21393
 Alpha  occ. eigenvalues --   -0.17365
 Alpha virt. eigenvalues --   -0.10449  -0.06247  -0.04310  -0.02232  -0.00985
 Alpha virt. eigenvalues --   -0.00128   0.01939   0.03467   0.03750   0.03830
 Alpha virt. eigenvalues --    0.04442   0.04646   0.04920   0.05689   0.05919

 Mulliken charges:
               1
     1  O   -0.179792
     2  O   -0.278291
     3  O   -0.238330
     4  O   -0.193664
     5  O   -0.180752
     6  O   -0.194777
     7  N   -0.079781
     8  N   -0.127562
     9  N   -0.117208
    10  N   -0.199027
    11  C   -0.098265
    12  C    0.036911
    13  C   -0.158155
    14  C    0.056050
    15  C   -0.099884
    16  C    0.010811
    17  C   -0.017076
    18  C   -0.065226
    19  C    0.070667
    20  C   -0.133208
    21  C    0.105806
    22  C    0.160913
    23  C   -0.027038
    24  C    0.079737
    25  C   -0.153399
    26  C    0.091240
    27  C    0.117594
    28  C    0.007031
    29  C   -0.062220
    30  C    0.032239
    31  C   -0.133815
    32  C    0.082427
    33  C   -0.126794
    34  C   -0.006282
    35  C   -0.094896
    36  C   -0.229593
    37  C    0.171388
    38  C   -0.010329
    39  C    0.168901
    40  C    0.095064
    41  C    0.100680
    42  C    0.098881
    43  C    0.061737
    44  H    0.135318
    45  H    0.004442
    46  H    0.014958
    47  H    0.017036
    48  H    0.054286
    49  H    0.044364
    50  H    0.026812
    51  H    0.100130
    52  H    0.201667
    53  H    0.013306
    54  H    0.036500
    55  H    0.023877
    56  H    0.079813
    57  H    0.038866
    58  H    0.054582
    59  H    0.064889
    60  H    0.049007
    61  H    0.014960
    62  H    0.016062
    63  H    0.021745
    64  H   -0.015913
    65  H   -0.010557
    66  H    0.017436
    67  H    0.016180
    68  H    0.028843
    69  H    0.073636
    70  H    0.042008
    71  H    0.065183
    72  H   -0.034838
    73  H    0.031125
    74  H    0.040170
    75  H    0.030219
    76  H    0.009375
    77  H   -0.059775
    78  H    0.016843
    79  H    0.005501
    80  H    0.213339
    81  H    0.175894
 Sum of Mulliken charges =  -0.00000

 Dipole moment (field-independent basis, Debye):
    X=             -1.7528    Y=              1.2399    Z=             -0.2131  Tot=              2.1575
 Quadrupole moment (field-independent basis, Debye-Ang):
   XX=           -243.9579   YY=           -245.8047   ZZ=           -255.4613
   XY=             10.3292   XZ=             12.4911   YZ=            -17.4074

 Normal termination of Gaussian 16 at Sat Jun 29 22:14:33 2019.
