 Gaussian 16, Revision A.03,
 Gaussian 16:  ES64L-G16RevA.03 25-Dec-2016

 --------------------------
 # td=(NStates=1) B3LYP/SVP
 --------------------------

 --
 TD
 --
 Symbolic Z-matrix:
 Charge =  0 Multiplicity = 1

                         Standard orientation:
 ---------------------------------------------------------------------
 Center     Atomic      Atomic             Coordinates (Angstroms)
 Number     Number       Type             X           Y           Z
 ---------------------------------------------------------------------
      1          8           0        4.609515   -4.724505   -1.878264
      2          8           0       -2.812735   -4.860072   -1.101207
      3          8           0       -6.786619   -1.826164   -1.958607
      4          8           0       -3.675378   -3.224307    0.117666
      5          8           0       -7.527487   -0.909586    0.010695
      6          8           0        2.896668    2.537830    0.490837
      7          7           0        0.234182   -0.460076    0.681715
      8          7           0       -1.700552    1.808828    0.427026
      9          7           0        3.412471   -3.050027   -0.693605
     10          7           0        0.694613    2.915952    0.075248
     11          6           0       -0.539634   -2.434148    1.338245
     12          6           0       -0.967187   -1.064354    0.934332
     13          6           0        0.775378   -2.582101    1.263880
     14          6           0        1.305165   -1.384970    0.621859
     15          6           0       -3.862920    1.412208    0.339877
     16          6           0       -2.587592    0.875999    0.625333
     17          6           0       -2.191038   -0.453443    0.903392
     18          6           0       -3.631127    2.610813   -0.175303
     19          6           0       -1.430391   -3.326109    2.093585
     20          6           0        5.693616   -2.634544   -1.243079
     21          6           0        3.642371   -1.743478   -0.299307
     22          6           0       -2.257055    2.967720   -0.036546
     23          6           0        5.083823   -1.508769   -0.482344
     24          6           0       -5.182512    0.622415    0.444724
     25          6           0        2.680649   -1.027689    0.349813
     26          6           0        1.745335   -3.698950    1.749696
     27          6           0        4.539425   -3.656772   -1.373328
     28          6           0       -1.834389   -4.498126    1.131681
     29          6           0       -5.389126   -0.294144   -0.897271
     30          6           0       -4.732800    3.593400   -0.489667
     31          6           0       -1.480632    4.082252   -0.391101
     32          6           0        6.992461   -3.243587   -0.763189
     33          6           0        5.867209   -0.453230   -0.153031
     34          6           0       -0.042793    4.062205   -0.316306
     35          6           0        0.863263    5.165674   -0.486031
     36          6           0        2.153438    4.714699   -0.358819
     37          6           0       -2.830193   -4.164253    0.021248
     38          6           0        5.417629    0.677672    0.656605
     39          6           0       -6.664519   -1.044270   -0.818760
     40          6           0        3.413918    5.514160   -0.209766
     41          6           0        2.023660    3.271732    0.109901
     42          6           0        0.374657    6.639427   -0.872121
     43          6           0        3.976148    5.894793    1.142078
     44          1           0        0.524530    0.319616   -0.084293
     45          1           0       -2.918306   -1.213378    0.980778
     46          1           0       -2.500885   -2.832324    2.251124
     47          1           0       -0.994953   -3.916996    3.007478
     48          1           0        5.635811   -2.427726   -2.405484
     49          1           0       -5.315426   -0.299650    1.306182
     50          1           0       -6.161039    1.031307    0.411413
     51          1           0        2.996402    0.034960    0.416807
     52          1           0       -0.537365    1.735667    0.494828
     53          1           0        1.749691   -4.732640    1.103653
     54          1           0        2.801620   -3.557106    2.004966
     55          1           0        1.093932   -4.084877    2.474859
     56          1           0        2.484453   -3.408029   -0.893060
     57          1           0       -0.935450   -5.145011    0.701513
     58          1           0       -2.285259   -5.219241    1.844992
     59          1           0       -4.728442   -1.004236   -1.080895
     60          1           0       -5.280527    0.230343   -1.695996
     61          1           0       -4.540270    4.614368    0.120031
     62          1           0       -5.823084    3.307420   -0.316775
     63          1           0       -4.771265    3.943458   -1.567050
     64          1           0       -2.137486    5.062223   -0.522756
     65          1           0        7.834244   -2.632991   -0.933448
     66          1           0        7.236122   -4.038960   -1.416989
     67          1           0        6.875388   -3.482645    0.241446
     68          1           0        6.868293   -0.449874   -0.458178
     69          1           0        4.775739    1.234446    0.151745
     70          1           0        6.307369    1.410687    0.961649
     71          1           0        4.818552    0.271940    1.610030
     72          1           0        3.277639    6.529892   -0.878579
     73          1           0        4.071762    4.812730   -0.748417
     74          1           0       -0.255915    6.559165   -1.718227
     75          1           0        1.151911    7.428958   -1.201018
     76          1           0       -0.011330    6.952620   -0.000864
     77          1           0        3.089309    6.555355    1.671966
     78          1           0        4.909273    6.293816    0.917276
     79          1           0        4.023958    5.070967    1.753274
     80          1           0       -3.353572   -4.327330   -1.708868
     81          1           0       -7.637549   -2.428630   -1.838430
 ---------------------------------------------------------------------

 SCF Done:  E(RB3LYP) =  -1949.06976177     A.U. after   23 cycles

 Excitation energies and oscillator strengths:

 Excited State   1:      Singlet-A      1.7308 eV  716.36 nm  f=0.3856  <S**2>=0.000
     156 ->157         0.71450
     156 <-157        -0.15274
 This state for optimization and/or second-order correction.
 Total Energy, E(TD-HF/TD-DFT) =  -1949.00615762
 Copying the excited state density for this state as the 1-particle RhoCI density.

 The electronic state is 1-A.
 Alpha  occ. eigenvalues --  -19.20888 -19.18076 -19.14041 -19.13086 -19.12627
 Alpha  occ. eigenvalues --  -19.09170 -14.38756 -14.37210 -14.35184 -14.28030
 Alpha  occ. eigenvalues --  -10.34581 -10.31757 -10.29962 -10.25130 -10.25085
 Alpha  occ. eigenvalues --  -10.24630 -10.23938 -10.23553 -10.23052 -10.22863
 Alpha  occ. eigenvalues --  -10.22654 -10.22307 -10.21466 -10.21362 -10.21164
 Alpha  occ. eigenvalues --  -10.20905 -10.20802 -10.20447 -10.20427 -10.20092
 Alpha  occ. eigenvalues --  -10.19899 -10.19661 -10.19629 -10.19483 -10.19166
 Alpha  occ. eigenvalues --  -10.19014 -10.18918 -10.18419 -10.18145 -10.17919
 Alpha  occ. eigenvalues --  -10.17875 -10.17733 -10.17503  -1.12546  -1.07967
 Alpha  occ. eigenvalues --   -1.05762  -1.01309  -0.99996  -0.99951  -0.99468
 Alpha  occ. eigenvalues --   -0.97951  -0.95872  -0.89624  -0.83430  -0.82637
 Alpha  occ. eigenvalues --   -0.81592  -0.81225  -0.79102  -0.78254  -0.78024
 Alpha  occ. eigenvalues --   -0.77523  -0.76762  -0.75213  -0.74237  -0.72209
 Alpha  occ. eigenvalues --   -0.70786  -0.70528  -0.68756  -0.68527  -0.68047
 Alpha  occ. eigenvalues --   -0.66791  -0.65892  -0.64875  -0.62906  -0.61963
 Alpha  occ. eigenvalues --   -0.60720  -0.59207  -0.58155  -0.57849  -0.57016
 Alpha  occ. eigenvalues --   -0.56033  -0.55490  -0.54873  -0.54286  -0.52769
 Alpha  occ. eigenvalues --   -0.51795  -0.51498  -0.50956  -0.50430  -0.50138
 Alpha  occ. eigenvalues --   -0.49329  -0.48786  -0.48658  -0.48266  -0.47698
 Alpha  occ. eigenvalues --   -0.47513  -0.47108  -0.46102  -0.45566  -0.45040
 Alpha  occ. eigenvalues --   -0.44956  -0.44906  -0.44615  -0.44196  -0.43961
 Alpha  occ. eigenvalues --   -0.43649  -0.43522  -0.42914  -0.42725  -0.42595
 Alpha  occ. eigenvalues --   -0.42227  -0.41645  -0.41179  -0.40856  -0.40373
 Alpha  occ. eigenvalues --   -0.40182  -0.40038  -0.39907  -0.39485  -0.39318
 Alpha  occ. eigenvalues --   -0.39103  -0.38834  -0.38719  -0.38527  -0.38318
 Alpha  occ. eigenvalues --   -0.37541  -0.37072  -0.36857  -0.36668  -0.36483
 Alpha  occ. eigenvalues --   -0.36369  -0.36164  -0.35823  -0.35620  -0.35508
 Alpha  occ. eigenvalues --   -0.35399  -0.34322  -0.34181  -0.33623  -0.33164
 Alpha  occ. eigenvalues --   -0.32505  -0.32223  -0.31884  -0.29872  -0.29530
 Alpha  occ. eigenvalues --   -0.28579  -0.27428  -0.26957  -0.26752  -0.26226
 Alpha  occ. eigenvalues --   -0.25147  -0.25107  -0.23319  -0.22553  -0.21491
 Alpha  occ. eigenvalues --   -0.17263
 Alpha virt. eigenvalues --   -0.10699  -0.05888  -0.04034  -0.03271  -0.00137
 Alpha virt. eigenvalues --    0.00527   0.01358   0.01590   0.03009   0.04240
 Alpha virt. eigenvalues --    0.04303   0.04757   0.05067   0.05535   0.05672

 Mulliken charges:
               1
     1  O   -0.160415
     2  O   -0.133790
     3  O   -0.264192
     4  O   -0.293787
     5  O   -0.217514
     6  O   -0.200135
     7  N   -0.140665
     8  N   -0.096054
     9  N   -0.159328
    10  N   -0.353532
    11  C   -0.024628
    12  C    0.043761
    13  C   -0.143475
    14  C    0.038322
    15  C    0.005870
    16  C    0.054041
    17  C   -0.020503
    18  C   -0.096652
    19  C    0.009297
    20  C   -0.111052
    21  C    0.089303
    22  C    0.056503
    23  C   -0.013984
    24  C    0.014232
    25  C   -0.127208
    26  C    0.100159
    27  C    0.100427
    28  C   -0.038846
    29  C    0.130597
    30  C   -0.001522
    31  C   -0.131348
    32  C    0.170381
    33  C   -0.112026
    34  C    0.114649
    35  C   -0.114532
    36  C   -0.188611
    37  C    0.153299
    38  C    0.075361
    39  C    0.153197
    40  C   -0.013516
    41  C    0.129523
    42  C    0.135350
    43  C    0.085111
    44  H    0.197237
    45  H   -0.030014
    46  H    0.054992
    47  H    0.050612
    48  H    0.051225
    49  H    0.053466
    50  H    0.011719
    51  H    0.025568
    52  H    0.206750
    53  H    0.023864
    54  H    0.055300
    55  H   -0.025226
    56  H    0.134910
    57  H    0.045350
    58  H    0.045636
    59  H   -0.031795
    60  H   -0.032763
    61  H    0.037782
    62  H    0.029883
    63  H    0.018589
    64  H    0.014218
    65  H   -0.005179
    66  H    0.004022
    67  H    0.007790
    68  H   -0.029649
    69  H    0.021400
    70  H    0.018916
    71  H    0.053462
    72  H    0.010060
    73  H    0.008413
    74  H    0.020741
    75  H    0.017988
    76  H   -0.000692
    77  H    0.018777
    78  H    0.012103
    79  H   -0.001158
    80  H    0.192890
    81  H    0.210744
 Sum of Mulliken charges =  -0.00000

 Dipole moment (field-independent basis, Debye):
    X=             -0.4141    Y=             -2.2926    Z=             -1.2615  Tot=              2.6493
 Quadrupole moment (field-independent basis, Debye-Ang):
   XX=           -252.1175   YY=           -242.1916   ZZ=           -254.1774
   XY=             10.8967   XZ=             12.4138   YZ=            -12.5113

 Normal termination of Gaussian 16 at Sun Jun 30 13:32:28 2019.
