 Gaussian 16, Revision A.03,
 Gaussian 16:  ES64L-G16RevA.03 25-Dec-2016

 --------------------------
 # td=(NStates=1) B3LYP/SVP
 --------------------------

 --
 TD
 --
 Symbolic Z-matrix:
 Charge =  0 Multiplicity = 1

                         Standard orientation:
 ---------------------------------------------------------------------
 Center     Atomic      Atomic             Coordinates (Angstroms)
 Number     Number       Type             X           Y           Z
 ---------------------------------------------------------------------
      1          8           0        3.950655   -5.070942   -1.817207
      2          8           0       -3.343770   -4.747130   -1.086039
      3          8           0       -6.733482   -1.488439   -1.791015
      4          8           0       -4.115105   -2.872362    0.011099
      5          8           0       -7.571602   -0.195826   -0.129306
      6          8           0        3.236880    2.286792    0.155463
      7          7           0        0.153798   -0.549630    0.585847
      8          7           0       -1.438443    1.951294    0.391020
      9          7           0        3.075124   -3.211132   -0.644052
     10          7           0        0.966607    2.837034    0.190828
     11          6           0       -0.792186   -2.355534    1.416322
     12          6           0       -1.025026   -1.018605    1.000822
     13          6           0        0.569244   -2.602943    1.221996
     14          6           0        1.289914   -1.369827    0.760590
     15          6           0       -3.727988    1.667006    0.287766
     16          6           0       -2.429184    0.986585    0.586567
     17          6           0       -2.368884   -0.320122    0.820328
     18          6           0       -3.429475    2.996069   -0.077494
     19          6           0       -1.878383   -3.272921    2.004103
     20          6           0        5.300115   -3.088622   -1.315662
     21          6           0        3.485202   -2.083944   -0.120978
     22          6           0       -1.902536    3.130699    0.031800
     23          6           0        4.854985   -1.931508   -0.453878
     24          6           0       -4.966479    1.026409    0.356116
     25          6           0        2.595724   -1.070608    0.416320
     26          6           0        1.306134   -3.818266    1.809585
     27          6           0        4.047509   -3.982634   -1.313508
     28          6           0       -2.368514   -4.414431    1.070274
     29          6           0       -5.259762    0.200754   -0.986984
     30          6           0       -4.319699    4.128006   -0.428323
     31          6           0       -1.013897    4.152365   -0.311970
     32          6           0        6.463912   -3.811598   -0.706895
     33          6           0        5.740552   -0.795481   -0.186104
     34          6           0        0.448879    4.092371   -0.134032
     35          6           0        1.355847    5.133061   -0.371874
     36          6           0        2.534772    4.573768   -0.276404
     37          6           0       -3.412927   -3.888831    0.001031
     38          6           0        5.518188    0.356921    0.576153
     39          6           0       -6.575699   -0.494685   -0.869280
     40          6           0        3.922313    5.099734   -0.388618
     41          6           0        2.366811    3.095235    0.025353
     42          6           0        1.004720    6.542896   -0.670038
     43          6           0        4.667057    5.205708    0.912180
     44          1           0        0.288586    0.312527    0.159933
     45          1           0       -3.162975   -0.780670    1.035501
     46          1           0       -2.663178   -2.648157    2.401032
     47          1           0       -1.489270   -3.870708    2.807920
     48          1           0        5.636867   -2.794324   -2.488339
     49          1           0       -4.828650    0.462688    1.262675
     50          1           0       -5.953180    1.827640    0.464836
     51          1           0        2.862871   -0.027578    0.462511
     52          1           0       -0.412663    1.902168    0.662172
     53          1           0        1.588256   -4.691736    0.967321
     54          1           0        2.370089   -3.515309    1.944142
     55          1           0        0.927052   -4.235435    2.681084
     56          1           0        2.128286   -3.567572   -0.725324
     57          1           0       -1.671179   -4.882728    0.462801
     58          1           0       -3.055664   -4.984437    1.810374
     59          1           0       -4.491527   -0.624159   -1.058451
     60          1           0       -5.376762    1.003489   -1.878701
     61          1           0       -4.025948    5.018760    0.448668
     62          1           0       -5.346678    3.824458   -0.581843
     63          1           0       -3.978736    4.470653   -1.387620
     64          1           0       -1.340028    5.089299   -0.367987
     65          1           0        7.558792   -3.333898   -0.676213
     66          1           0        6.521674   -4.868679   -1.175247
     67          1           0        6.099292   -4.278054    0.306973
     68          1           0        6.737281   -1.155378   -0.599364
     69          1           0        5.092790    1.116941    0.002799
     70          1           0        6.413489    0.925390    1.065242
     71          1           0        4.756591    0.305516    1.332470
     72          1           0        3.885304    5.968992   -0.900298
     73          1           0        4.404878    4.413601   -1.202056
     74          1           0        0.696165    6.809724   -1.747166
     75          1           0        1.876033    7.171813   -0.416846
     76          1           0        0.221930    6.920140    0.119454
     77          1           0        4.408111    5.985436    1.597702
     78          1           0        5.802599    5.586281    0.667869
     79          1           0        4.653032    4.232265    1.446858
     80          1           0       -4.108479   -4.245492   -1.640748
     81          1           0       -7.720680   -1.735346   -1.785160
 ---------------------------------------------------------------------

 SCF Done:  E(RB3LYP) =  -1949.07691083     A.U. after   16 cycles

 Excitation energies and oscillator strengths:

 Excited State   1:      Singlet-A      1.4977 eV  827.84 nm  f=0.2297  <S**2>=0.000
     156 ->157         0.70979
     156 <-157        -0.10902
 This state for optimization and/or second-order correction.
 Total Energy, E(TD-HF/TD-DFT) =  -1949.02187203
 Copying the excited state density for this state as the 1-particle RhoCI density.

 The electronic state is 1-A.
 Alpha  occ. eigenvalues --  -19.19889 -19.18415 -19.15050 -19.12451 -19.12143
 Alpha  occ. eigenvalues --  -19.11468 -14.37737 -14.36784 -14.36105 -14.29113
 Alpha  occ. eigenvalues --  -10.33633 -10.32357 -10.29931 -10.26770 -10.24438
 Alpha  occ. eigenvalues --  -10.24372 -10.23196 -10.23038 -10.22903 -10.22902
 Alpha  occ. eigenvalues --  -10.22649 -10.22153 -10.21610 -10.21206 -10.21127
 Alpha  occ. eigenvalues --  -10.21110 -10.21061 -10.20780 -10.20536 -10.20426
 Alpha  occ. eigenvalues --  -10.20166 -10.20018 -10.19870 -10.19606 -10.19473
 Alpha  occ. eigenvalues --  -10.19184 -10.19158 -10.19052 -10.18917 -10.18732
 Alpha  occ. eigenvalues --  -10.18608 -10.17966 -10.17268  -1.09065  -1.07746
 Alpha  occ. eigenvalues --   -1.04980  -1.03547  -1.00525  -0.98582  -0.98109
 Alpha  occ. eigenvalues --   -0.97400  -0.97065  -0.91719  -0.83612  -0.81499
 Alpha  occ. eigenvalues --   -0.81180  -0.80921  -0.80555  -0.78581  -0.77107
 Alpha  occ. eigenvalues --   -0.76822  -0.76710  -0.76133  -0.74682  -0.72689
 Alpha  occ. eigenvalues --   -0.71549  -0.69727  -0.69434  -0.67784  -0.67295
 Alpha  occ. eigenvalues --   -0.67059  -0.65955  -0.64161  -0.63451  -0.62273
 Alpha  occ. eigenvalues --   -0.59673  -0.59025  -0.58421  -0.57315  -0.56398
 Alpha  occ. eigenvalues --   -0.56069  -0.54795  -0.54662  -0.54086  -0.53589
 Alpha  occ. eigenvalues --   -0.51968  -0.51185  -0.50704  -0.50504  -0.49632
 Alpha  occ. eigenvalues --   -0.49091  -0.48807  -0.48441  -0.47522  -0.47253
 Alpha  occ. eigenvalues --   -0.47046  -0.46850  -0.46274  -0.45807  -0.45515
 Alpha  occ. eigenvalues --   -0.44827  -0.44645  -0.44164  -0.43868  -0.43753
 Alpha  occ. eigenvalues --   -0.43569  -0.43370  -0.42997  -0.42620  -0.42439
 Alpha  occ. eigenvalues --   -0.42201  -0.41981  -0.41878  -0.41792  -0.41527
 Alpha  occ. eigenvalues --   -0.40680  -0.40392  -0.40188  -0.40124  -0.39717
 Alpha  occ. eigenvalues --   -0.39516  -0.39269  -0.38682  -0.38585  -0.38421
 Alpha  occ. eigenvalues --   -0.38134  -0.38037  -0.37761  -0.37279  -0.36866
 Alpha  occ. eigenvalues --   -0.36844  -0.36160  -0.36064  -0.35367  -0.35136
 Alpha  occ. eigenvalues --   -0.34701  -0.33601  -0.33565  -0.33428  -0.33168
 Alpha  occ. eigenvalues --   -0.32374  -0.31938  -0.31008  -0.30337  -0.29566
 Alpha  occ. eigenvalues --   -0.29326  -0.27303  -0.26966  -0.26378  -0.24863
 Alpha  occ. eigenvalues --   -0.24619  -0.24368  -0.24116  -0.23689  -0.21144
 Alpha  occ. eigenvalues --   -0.16510
 Alpha virt. eigenvalues --   -0.10257  -0.06439  -0.04414  -0.02003  -0.01706
 Alpha virt. eigenvalues --   -0.01566   0.02472   0.02810   0.03177   0.03704
 Alpha virt. eigenvalues --    0.03998   0.04519   0.05080   0.05490   0.05983

 Mulliken charges:
               1
     1  O   -0.180642
     2  O   -0.238724
     3  O   -0.217833
     4  O   -0.248649
     5  O   -0.294246
     6  O   -0.176476
     7  N   -0.029302
     8  N   -0.078225
     9  N   -0.076191
    10  N   -0.363156
    11  C   -0.111047
    12  C    0.002431
    13  C   -0.181018
    14  C    0.064608
    15  C   -0.050136
    16  C    0.144520
    17  C    0.055222
    18  C   -0.140225
    19  C    0.140057
    20  C   -0.107019
    21  C    0.090603
    22  C    0.066626
    23  C   -0.120412
    24  C   -0.029052
    25  C   -0.079003
    26  C    0.049452
    27  C    0.127730
    28  C    0.041483
    29  C   -0.009826
    30  C    0.093687
    31  C   -0.024333
    32  C   -0.018941
    33  C   -0.069699
    34  C    0.030743
    35  C   -0.052089
    36  C   -0.216582
    37  C    0.145224
    38  C    0.130419
    39  C    0.170194
    40  C    0.154184
    41  C    0.162999
    42  C    0.054385
    43  C   -0.011389
    44  H    0.089120
    45  H   -0.131716
    46  H    0.008127
    47  H   -0.011045
    48  H    0.073140
    49  H    0.029891
    50  H    0.057789
    51  H   -0.005505
    52  H    0.166075
    53  H    0.007656
    54  H    0.016691
    55  H    0.010280
    56  H    0.139530
    57  H    0.028918
    58  H    0.058250
    59  H    0.069002
    60  H    0.077754
    61  H    0.058790
    62  H    0.009746
    63  H    0.018856
    64  H   -0.086155
    65  H    0.058504
    66  H    0.027155
    67  H    0.014375
    68  H   -0.003080
    69  H    0.031140
    70  H    0.017977
    71  H    0.020224
    72  H   -0.054990
    73  H    0.021914
    74  H    0.053293
    75  H    0.012679
    76  H    0.034361
    77  H    0.005456
    78  H    0.017042
    79  H    0.039551
    80  H    0.214096
    81  H    0.204755
 Sum of Mulliken charges =  -0.00000

 Dipole moment (field-independent basis, Debye):
    X=             -1.1891    Y=              2.6339    Z=             -0.7277  Tot=              2.9801
 Quadrupole moment (field-independent basis, Debye-Ang):
   XX=           -254.8709   YY=           -239.3898   ZZ=           -252.9453
   XY=             18.4141   XZ=             12.7580   YZ=            -12.8385

 Normal termination of Gaussian 16 at Wed Jul  3 09:30:19 2019.
