 Gaussian 16, Revision A.03,
 Gaussian 16:  ES64L-G16RevA.03 25-Dec-2016

 --------------------------
 # td=(NStates=1) B3LYP/SVP
 --------------------------

 --
 TD
 --
 Symbolic Z-matrix:
 Charge =  0 Multiplicity = 1

                         Standard orientation:
 ---------------------------------------------------------------------
 Center     Atomic      Atomic             Coordinates (Angstroms)
 Number     Number       Type             X           Y           Z
 ---------------------------------------------------------------------
      1          8           0       -4.151657   -4.771778    1.949322
      2          8           0        2.844576   -4.554615    1.228634
      3          8           0        6.868842   -1.625802    1.894394
      4          8           0        3.973389   -3.202222   -0.203450
      5          8           0        7.636577   -0.504490    0.133298
      6          8           0       -3.074932    2.413385   -0.474349
      7          7           0       -0.255034   -0.451659   -0.586676
      8          7           0        1.568279    1.876585   -0.647201
      9          7           0       -3.265235   -3.144607    0.629103
     10          7           0       -0.844149    2.816805   -0.191121
     11          6           0        0.603530   -2.331664   -1.481950
     12          6           0        0.941719   -1.028771   -1.012543
     13          6           0       -0.772670   -2.567526   -1.149985
     14          6           0       -1.328208   -1.364694   -0.701892
     15          6           0        3.881013    1.459444   -0.382059
     16          6           0        2.578513    0.844100   -0.761148
     17          6           0        2.293374   -0.471573   -0.943629
     18          6           0        3.456717    2.768876    0.074880
     19          6           0        1.606078   -3.344028   -2.011254
     20          6           0       -5.456364   -2.814699    1.297542
     21          6           0       -3.581188   -1.866231    0.079249
     22          6           0        2.024898    2.983911   -0.136837
     23          6           0       -5.073561   -1.630505    0.468186
     24          6           0        5.188273    0.892234   -0.285570
     25          6           0       -2.638259   -0.949537   -0.342242
     26          6           0       -1.480003   -3.712231   -1.741160
     27          6           0       -4.309084   -3.713499    1.339888
     28          6           0        2.062167   -4.417140   -1.039389
     29          6           0        5.288414   -0.195258    0.869358
     30          6           0        4.460619    3.815387    0.489819
     31          6           0        1.242942    4.008504    0.294107
     32          6           0       -6.843526   -3.366709    1.013346
     33          6           0       -5.814890   -0.599583   -0.001305
     34          6           0       -0.238933    3.988480    0.241604
     35          6           0       -1.184885    5.057870    0.527217
     36          6           0       -2.343177    4.543588    0.401472
     37          6           0        3.013660   -3.981324   -0.001410
     38          6           0       -5.362699    0.534519   -0.806300
     39          6           0        6.675503   -0.736558    0.925074
     40          6           0       -3.734692    5.190696    0.444530
     41          6           0       -2.124443    3.132972   -0.150758
     42          6           0       -0.605715    6.430406    0.969982
     43          6           0       -4.191184    5.527491   -0.967917
     44          1           0       -0.285774    0.467710    0.050379
     45          1           0        3.048963   -1.190559   -1.167759
     46          1           0        2.525254   -2.821701   -2.324460
     47          1           0        1.249998   -3.946756   -2.955239
     48          1           0       -5.475073   -2.722411    2.426303
     49          1           0        5.210191    0.457528   -1.357337
     50          1           0        6.408931    1.498281    0.054082
     51          1           0       -2.936763    0.008195   -0.532174
     52          1           0        0.594492    1.885594   -0.745932
     53          1           0       -1.258784   -4.518795   -1.260732
     54          1           0       -2.649482   -3.667209   -1.673273
     55          1           0       -1.257183   -3.990304   -2.811214
     56          1           0       -2.289644   -3.571455    0.800850
     57          1           0        1.354679   -4.810661   -0.664836
     58          1           0        2.714466   -5.012779   -1.746558
     59          1           0        4.619649   -1.098404    0.851646
     60          1           0        5.104413    0.297652    1.960562
     61          1           0        4.426624    4.675355   -0.289920
     62          1           0        5.373585    3.386797    0.572691
     63          1           0        3.897139    4.331931    1.367973
     64          1           0        1.592063    4.825906    0.876200
     65          1           0       -7.676053   -2.477986    0.845231
     66          1           0       -7.285747   -4.050838    1.964978
     67          1           0       -6.614538   -4.177466    0.039923
     68          1           0       -6.834496   -0.510372    0.280574
     69          1           0       -5.015195    1.503993   -0.131525
     70          1           0       -6.127572    0.858805   -1.583166
     71          1           0       -4.633149    0.080831   -1.438003
     72          1           0       -3.592919    6.093909    1.039991
     73          1           0       -4.518269    4.507033    0.710814
     74          1           0       -0.131788    6.390715    1.949591
     75          1           0       -1.328734    7.140024    1.128932
     76          1           0        0.437268    6.736851    0.307425
     77          1           0       -3.367093    6.358313   -1.353064
     78          1           0       -5.081944    6.001300   -1.190191
     79          1           0       -4.144486    4.612183   -1.721986
     80          1           0        3.408583   -3.924054    1.882086
     81          1           0        7.933372   -1.864532    2.072184
 ---------------------------------------------------------------------

 SCF Done:  E(RB3LYP) =  -1948.99462055     A.U. after   16 cycles

 Excitation energies and oscillator strengths:

 Excited State   1:      Singlet-A      1.7522 eV  707.60 nm  f=0.2506  <S**2>=0.000
     156 ->157         0.70649
 This state for optimization and/or second-order correction.
 Total Energy, E(TD-HF/TD-DFT) =  -1948.93022960
 Copying the excited state density for this state as the 1-particle RhoCI density.

 The electronic state is 1-A.
 Alpha  occ. eigenvalues --  -19.20194 -19.18995 -19.13996 -19.11882 -19.09953
 Alpha  occ. eigenvalues --  -19.09922 -14.37590 -14.36854 -14.36336 -14.29744
 Alpha  occ. eigenvalues --  -10.33632 -10.32257 -10.28449 -10.26186 -10.24826
 Alpha  occ. eigenvalues --  -10.24591 -10.24408 -10.24299 -10.23743 -10.23167
 Alpha  occ. eigenvalues --  -10.23056 -10.22920 -10.22898 -10.21938 -10.21785
 Alpha  occ. eigenvalues --  -10.21550 -10.21147 -10.20777 -10.20691 -10.20650
 Alpha  occ. eigenvalues --  -10.20346 -10.20009 -10.19986 -10.19735 -10.19491
 Alpha  occ. eigenvalues --  -10.19279 -10.19215 -10.19108 -10.18989 -10.18936
 Alpha  occ. eigenvalues --  -10.18197 -10.17987 -10.17832  -1.09162  -1.08229
 Alpha  occ. eigenvalues --   -1.02353  -1.01322  -0.99732  -0.99268  -0.97212
 Alpha  occ. eigenvalues --   -0.96117  -0.93398  -0.93200  -0.83397  -0.83016
 Alpha  occ. eigenvalues --   -0.81717  -0.81185  -0.81144  -0.79238  -0.78369
 Alpha  occ. eigenvalues --   -0.77531  -0.76849  -0.75819  -0.74741  -0.72639
 Alpha  occ. eigenvalues --   -0.71514  -0.70127  -0.69166  -0.68518  -0.67838
 Alpha  occ. eigenvalues --   -0.66915  -0.65353  -0.64644  -0.62285  -0.61093
 Alpha  occ. eigenvalues --   -0.59876  -0.59666  -0.58705  -0.56811  -0.56400
 Alpha  occ. eigenvalues --   -0.55496  -0.55297  -0.54816  -0.54058  -0.53544
 Alpha  occ. eigenvalues --   -0.53053  -0.52808  -0.51955  -0.50458  -0.50026
 Alpha  occ. eigenvalues --   -0.49487  -0.49104  -0.48611  -0.48030  -0.47441
 Alpha  occ. eigenvalues --   -0.47093  -0.46568  -0.46428  -0.45959  -0.45475
 Alpha  occ. eigenvalues --   -0.45005  -0.44384  -0.44343  -0.44168  -0.43868
 Alpha  occ. eigenvalues --   -0.43383  -0.43206  -0.42884  -0.42532  -0.42196
 Alpha  occ. eigenvalues --   -0.41931  -0.41392  -0.41348  -0.41001  -0.40764
 Alpha  occ. eigenvalues --   -0.40722  -0.40575  -0.40448  -0.39735  -0.39367
 Alpha  occ. eigenvalues --   -0.39282  -0.39031  -0.38813  -0.38550  -0.38303
 Alpha  occ. eigenvalues --   -0.38189  -0.37821  -0.37497  -0.37206  -0.36581
 Alpha  occ. eigenvalues --   -0.36207  -0.35741  -0.35168  -0.34854  -0.34140
 Alpha  occ. eigenvalues --   -0.33664  -0.33090  -0.32607  -0.32397  -0.32334
 Alpha  occ. eigenvalues --   -0.32033  -0.31865  -0.30890  -0.30464  -0.29412
 Alpha  occ. eigenvalues --   -0.29306  -0.27265  -0.26512  -0.26106  -0.25274
 Alpha  occ. eigenvalues --   -0.24790  -0.24761  -0.24384  -0.24318  -0.21939
 Alpha  occ. eigenvalues --   -0.18005
 Alpha virt. eigenvalues --   -0.10682  -0.06033  -0.03922  -0.03238  -0.01086
 Alpha virt. eigenvalues --   -0.00194   0.00408   0.01263   0.01962   0.02096
 Alpha virt. eigenvalues --    0.03275   0.03647   0.04240   0.04384   0.05562

 Mulliken charges:
               1
     1  O   -0.234088
     2  O   -0.229127
     3  O   -0.242761
     4  O   -0.274083
     5  O   -0.288508
     6  O   -0.232695
     7  N   -0.163299
     8  N   -0.026391
     9  N   -0.177372
    10  N   -0.256305
    11  C   -0.111072
    12  C    0.043443
    13  C   -0.170913
    14  C    0.108483
    15  C    0.014683
    16  C    0.138284
    17  C   -0.052178
    18  C   -0.216393
    19  C    0.018048
    20  C    0.007989
    21  C    0.071370
    22  C    0.138478
    23  C    0.041324
    24  C   -0.062263
    25  C   -0.010480
    26  C    0.126981
    27  C    0.077242
    28  C    0.262800
    29  C   -0.045023
    30  C    0.129950
    31  C   -0.104945
    32  C   -0.092466
    33  C   -0.170267
    34  C    0.012603
    35  C   -0.029798
    36  C   -0.225713
    37  C    0.105070
    38  C    0.051318
    39  C    0.159193
    40  C    0.162098
    41  C    0.119132
    42  C    0.101011
    43  C   -0.069566
    44  H    0.180244
    45  H   -0.004703
    46  H    0.014387
    47  H    0.021862
    48  H    0.053432
    49  H    0.057888
    50  H    0.096974
    51  H   -0.037934
    52  H    0.094993
    53  H   -0.052468
    54  H    0.037679
    55  H    0.024185
    56  H    0.164251
    57  H   -0.104205
    58  H    0.056872
    59  H    0.065714
    60  H    0.059732
    61  H    0.034782
    62  H   -0.014231
    63  H    0.026421
    64  H   -0.042413
    65  H    0.061093
    66  H    0.050675
    67  H    0.049293
    68  H   -0.027370
    69  H    0.107674
    70  H    0.003893
    71  H    0.016577
    72  H    0.000648
    73  H    0.004223
    74  H    0.016146
    75  H   -0.009646
    76  H    0.047786
    77  H    0.001683
    78  H    0.002281
    79  H    0.049962
    80  H    0.235485
    81  H    0.252340
 Sum of Mulliken charges =  -0.00000

 Dipole moment (field-independent basis, Debye):
    X=              2.1349    Y=              2.1677    Z=              2.1277  Tot=              3.7126
 Quadrupole moment (field-independent basis, Debye-Ang):
   XX=           -255.5028   YY=           -247.5736   ZZ=           -251.9659
   XY=            -17.0302   XZ=             18.5490   YZ=             17.9045

 Normal termination of Gaussian 16 at Wed Jul  3 05:38:29 2019.
