 Gaussian 16, Revision A.03,
 Gaussian 16:  ES64L-G16RevA.03 25-Dec-2016

 --------------------------
 # td=(NStates=1) B3LYP/SVP
 --------------------------

 --
 TD
 --
 Symbolic Z-matrix:
 Charge =  0 Multiplicity = 1

                         Standard orientation:
 ---------------------------------------------------------------------
 Center     Atomic      Atomic             Coordinates (Angstroms)
 Number     Number       Type             X           Y           Z
 ---------------------------------------------------------------------
      1          8           0        4.209573   -5.044978   -1.700717
      2          8           0       -3.269609   -4.813124   -1.054375
      3          8           0       -6.846930   -1.467128   -1.929348
      4          8           0       -4.042292   -3.034878    0.121324
      5          8           0       -7.387301   -0.555027    0.017402
      6          8           0        3.178751    2.520899    0.439863
      7          7           0        0.354168   -0.534887    0.598502
      8          7           0       -1.474827    1.872822    0.299267
      9          7           0        3.208535   -3.290588   -0.646169
     10          7           0        0.896525    2.931389    0.099978
     11          6           0       -0.657737   -2.328695    1.539917
     12          6           0       -0.845448   -1.052694    0.942903
     13          6           0        0.663941   -2.741143    1.326544
     14          6           0        1.231266   -1.546242    0.760602
     15          6           0       -3.700683    1.501994    0.313016
     16          6           0       -2.416726    0.934663    0.589635
     17          6           0       -2.059589   -0.361498    1.037686
     18          6           0       -3.419706    2.834223   -0.091098
     19          6           0       -1.771379   -3.207272    1.990032
     20          6           0        5.456592   -2.928266   -1.406583
     21          6           0        3.514161   -1.936949   -0.233337
     22          6           0       -2.018884    3.158480   -0.118921
     23          6           0        4.989895   -1.702129   -0.579981
     24          6           0       -5.067741    0.882976    0.338163
     25          6           0        2.601143   -1.135918    0.430850
     26          6           0        1.355268   -3.943561    1.745560
     27          6           0        4.269225   -3.959637   -1.295643
     28          6           0       -2.265140   -4.357135    0.983685
     29          6           0       -5.280169   -0.086297   -0.955282
     30          6           0       -4.455818    3.958817   -0.422396
     31          6           0       -1.185539    4.123737   -0.434002
     32          6           0        6.809876   -3.563304   -0.841737
     33          6           0        5.674813   -0.666971   -0.191067
     34          6           0        0.242422    4.108211   -0.269405
     35          6           0        1.085066    5.215114   -0.563518
     36          6           0        2.425372    4.740893   -0.216401
     37          6           0       -3.360146   -3.926821    0.002594
     38          6           0        5.352478    0.498579    0.534106
     39          6           0       -6.563399   -0.727684   -0.847380
     40          6           0        3.767158    5.271043   -0.161655
     41          6           0        2.163018    3.273094    0.106843
     42          6           0        0.688916    6.555735   -0.997402
     43          6           0        4.205017    5.607316    1.282452
     44          1           0        0.637904    0.370089    0.353795
     45          1           0       -3.139308   -0.855183    1.236899
     46          1           0       -2.596634   -2.650033    2.226976
     47          1           0       -1.160411   -3.793651    2.799668
     48          1           0        5.693513   -2.870256   -2.547468
     49          1           0       -5.241870    0.293139    1.272293
     50          1           0       -5.753335    1.613296    0.451509
     51          1           0        2.748327   -0.061685    0.306727
     52          1           0       -0.658176    1.896549    0.303730
     53          1           0        1.206311   -4.932475    0.991014
     54          1           0        2.554049   -3.766431    1.624664
     55          1           0        0.825835   -4.374688    2.705556
     56          1           0        2.370109   -3.701327   -0.987238
     57          1           0       -1.343294   -4.830036    0.629121
     58          1           0       -2.751287   -5.129694    1.665403
     59          1           0       -4.377780   -0.876043   -1.115561
     60          1           0       -5.128389    0.661335   -1.591158
     61          1           0       -4.338047    4.901206    0.248666
     62          1           0       -5.493381    3.373010   -0.328261
     63          1           0       -4.404351    4.182861   -1.342378
     64          1           0       -1.401822    5.209967   -0.752026
     65          1           0        7.723840   -2.958511   -1.370258
     66          1           0        6.859258   -4.678595   -1.224366
     67          1           0        7.150181   -3.593986    0.531411
     68          1           0        6.857153   -0.811971   -0.500178
     69          1           0        4.821242    1.269081   -0.355047
     70          1           0        6.111092    0.937598    1.188088
     71          1           0        4.619235    0.350126    1.362637
     72          1           0        3.991342    6.203271   -0.592123
     73          1           0        4.448562    4.400221   -0.630606
     74          1           0        0.350609    6.753623   -1.997582
     75          1           0        1.547345    7.328947   -0.694100
     76          1           0       -0.132884    6.974058   -0.454987
     77          1           0        3.443324    6.267597    1.733466
     78          1           0        5.142307    6.004130    1.089716
     79          1           0        4.370914    4.533698    1.741258
     80          1           0       -3.955742   -4.488086   -1.555296
     81          1           0       -7.789220   -1.804359   -1.830864
 ---------------------------------------------------------------------

 SCF Done:  E(RB3LYP) =  -1948.94227115     A.U. after   24 cycles

 Excitation energies and oscillator strengths:

 Excited State   1:      Singlet-A      1.6290 eV  761.12 nm  f=0.3073  <S**2>=0.000
     156 ->157         0.71018
     156 <-157        -0.15270
 This state for optimization and/or second-order correction.
 Total Energy, E(TD-HF/TD-DFT) =  -1948.88240778
 Copying the excited state density for this state as the 1-particle RhoCI density.

 The electronic state is 1-A.
 Alpha  occ. eigenvalues --  -19.18929 -19.18379 -19.16519 -19.12609 -19.12608
 Alpha  occ. eigenvalues --  -19.08152 -14.38476 -14.36641 -14.33649 -14.28029
 Alpha  occ. eigenvalues --  -10.33799 -10.31955 -10.29537 -10.25621 -10.24689
 Alpha  occ. eigenvalues --  -10.24555 -10.23551 -10.23515 -10.23393 -10.23188
 Alpha  occ. eigenvalues --  -10.22811 -10.22617 -10.22551 -10.22335 -10.21798
 Alpha  occ. eigenvalues --  -10.20978 -10.20874 -10.20783 -10.20447 -10.20374
 Alpha  occ. eigenvalues --  -10.20339 -10.20321 -10.20206 -10.20191 -10.19561
 Alpha  occ. eigenvalues --  -10.19540 -10.19499 -10.19408 -10.19355 -10.19194
 Alpha  occ. eigenvalues --  -10.18419 -10.18276 -10.17499  -1.14468  -1.10117
 Alpha  occ. eigenvalues --   -1.07285  -1.06252  -1.01023  -1.00495  -0.98011
 Alpha  occ. eigenvalues --   -0.96666  -0.94175  -0.90128  -0.83625  -0.82580
 Alpha  occ. eigenvalues --   -0.81795  -0.81383  -0.79443  -0.79254  -0.78146
 Alpha  occ. eigenvalues --   -0.77734  -0.76616  -0.75744  -0.74726  -0.72665
 Alpha  occ. eigenvalues --   -0.71402  -0.70111  -0.69499  -0.69165  -0.68326
 Alpha  occ. eigenvalues --   -0.67299  -0.65566  -0.63869  -0.62461  -0.61401
 Alpha  occ. eigenvalues --   -0.60990  -0.59927  -0.58777  -0.58074  -0.57034
 Alpha  occ. eigenvalues --   -0.56017  -0.55269  -0.55206  -0.53829  -0.53119
 Alpha  occ. eigenvalues --   -0.52856  -0.52392  -0.52161  -0.51723  -0.51099
 Alpha  occ. eigenvalues --   -0.50146  -0.49378  -0.49177  -0.48223  -0.47957
 Alpha  occ. eigenvalues --   -0.47891  -0.46736  -0.46524  -0.46029  -0.45133
 Alpha  occ. eigenvalues --   -0.45044  -0.44813  -0.44487  -0.44163  -0.43957
 Alpha  occ. eigenvalues --   -0.43735  -0.43419  -0.43078  -0.42813  -0.42560
 Alpha  occ. eigenvalues --   -0.42383  -0.41797  -0.41504  -0.41325  -0.41114
 Alpha  occ. eigenvalues --   -0.40713  -0.39843  -0.39520  -0.39270  -0.39096
 Alpha  occ. eigenvalues --   -0.38900  -0.38612  -0.38363  -0.38266  -0.37955
 Alpha  occ. eigenvalues --   -0.37543  -0.37414  -0.36666  -0.36551  -0.36440
 Alpha  occ. eigenvalues --   -0.36011  -0.35769  -0.35339  -0.35037  -0.34828
 Alpha  occ. eigenvalues --   -0.34604  -0.34311  -0.33426  -0.33054  -0.32525
 Alpha  occ. eigenvalues --   -0.32377  -0.31780  -0.31303  -0.31049  -0.29305
 Alpha  occ. eigenvalues --   -0.28593  -0.27394  -0.27160  -0.26556  -0.25848
 Alpha  occ. eigenvalues --   -0.25312  -0.24865  -0.22780  -0.22389  -0.21440
 Alpha  occ. eigenvalues --   -0.17450
 Alpha virt. eigenvalues --   -0.11161  -0.06247  -0.04049  -0.00955  -0.00415
 Alpha virt. eigenvalues --   -0.00005   0.01965   0.02287   0.03216   0.03894
 Alpha virt. eigenvalues --    0.03946   0.04182   0.04472   0.04975   0.05528

 Mulliken charges:
               1
     1  O   -0.143120
     2  O   -0.156380
     3  O   -0.201484
     4  O   -0.122346
     5  O   -0.229724
     6  O   -0.333460
     7  N    0.006118
     8  N    0.062621
     9  N   -0.176972
    10  N   -0.241414
    11  C   -0.121935
    12  C    0.105314
    13  C   -0.071466
    14  C    0.029861
    15  C   -0.082244
    16  C    0.016502
    17  C   -0.086072
    18  C   -0.171895
    19  C    0.098270
    20  C   -0.079059
    21  C    0.101793
    22  C    0.202052
    23  C    0.063934
    24  C    0.118726
    25  C   -0.114849
    26  C   -0.044665
    27  C    0.106758
    28  C   -0.007043
    29  C    0.007854
    30  C    0.146467
    31  C   -0.136442
    32  C   -0.118470
    33  C   -0.191243
    34  C    0.009863
    35  C   -0.096302
    36  C   -0.116349
    37  C    0.116463
    38  C    0.036860
    39  C    0.164607
    40  C    0.020098
    41  C    0.135079
    42  C    0.083410
    43  C    0.007004
    44  H    0.133708
    45  H    0.052835
    46  H   -0.009329
    47  H    0.014888
    48  H    0.062886
    49  H    0.017997
    50  H   -0.023798
    51  H    0.028051
    52  H   -0.101559
    53  H    0.036391
    54  H    0.079475
    55  H    0.042434
    56  H    0.129607
    57  H    0.026691
    58  H    0.048014
    59  H    0.080387
    60  H    0.006553
    61  H    0.049986
    62  H    0.008778
    63  H   -0.038794
    64  H   -0.017604
    65  H    0.045641
    66  H    0.058406
    67  H    0.049504
    68  H    0.014139
    69  H    0.114858
    70  H    0.010374
    71  H    0.034126
    72  H   -0.026336
    73  H    0.042449
    74  H    0.016669
    75  H    0.025112
    76  H    0.001624
    77  H    0.026209
    78  H   -0.006941
    79  H    0.047538
    80  H    0.127834
    81  H    0.194477
 Sum of Mulliken charges =  -0.00000

 Dipole moment (field-independent basis, Debye):
    X=             -2.7866    Y=             -0.4012    Z=             -1.7448  Tot=              3.3122
 Quadrupole moment (field-independent basis, Debye-Ang):
   XX=           -250.2528   YY=           -242.9430   ZZ=           -254.9558
   XY=             13.7116   XZ=             10.4379   YZ=            -10.6438

 Normal termination of Gaussian 16 at Fri Jun 28 14:41:14 2019.
