 Gaussian 16, Revision A.03,
 Gaussian 16:  ES64L-G16RevA.03 25-Dec-2016

 --------------------------
 # td=(NStates=1) B3LYP/SVP
 --------------------------

 --
 TD
 --
 Symbolic Z-matrix:
 Charge =  0 Multiplicity = 1

                         Standard orientation:
 ---------------------------------------------------------------------
 Center     Atomic      Atomic             Coordinates (Angstroms)
 Number     Number       Type             X           Y           Z
 ---------------------------------------------------------------------
      1          8           0        4.540151   -4.667110   -1.882915
      2          8           0       -2.960779   -4.947993   -0.943436
      3          8           0       -6.987128   -1.575941   -2.032359
      4          8           0       -3.685344   -3.247531    0.320649
      5          8           0       -7.762835   -0.479517   -0.234184
      6          8           0        2.896752    2.531269    0.493693
      7          7           0        0.306600   -0.652345    0.407659
      8          7           0       -1.590469    1.703891    0.222251
      9          7           0        3.492073   -3.024798   -0.615741
     10          7           0        0.763723    2.868931    0.021176
     11          6           0       -0.465132   -2.473170    1.414855
     12          6           0       -0.839312   -1.161474    0.927946
     13          6           0        0.870290   -2.667484    1.351328
     14          6           0        1.408903   -1.477198    0.672612
     15          6           0       -3.797541    1.263039    0.347068
     16          6           0       -2.484851    0.646974    0.393646
     17          6           0       -2.196875   -0.606218    0.795201
     18          6           0       -3.670107    2.633000    0.022370
     19          6           0       -1.407936   -3.418669    2.075241
     20          6           0        5.631041   -2.599061   -1.463197
     21          6           0        3.752337   -1.704356   -0.226121
     22          6           0       -2.209415    2.944455   -0.008582
     23          6           0        5.147416   -1.378051   -0.608854
     24          6           0       -5.178887    0.457553    0.386087
     25          6           0        2.706787   -1.038631    0.314246
     26          6           0        1.634847   -3.741572    1.966807
     27          6           0        4.567497   -3.566557   -1.379645
     28          6           0       -1.878108   -4.509745    1.137047
     29          6           0       -5.343705   -0.373841   -0.821789
     30          6           0       -4.833233    3.624643   -0.305426
     31          6           0       -1.491131    4.045753   -0.244113
     32          6           0        6.991013   -3.066521   -1.128800
     33          6           0        5.931089   -0.292287   -0.327786
     34          6           0       -0.047676    3.917053   -0.309170
     35          6           0        0.840368    5.115498   -0.543629
     36          6           0        2.110429    4.742071   -0.191881
     37          6           0       -2.931152   -4.190228    0.155582
     38          6           0        5.599626    0.774046    0.666189
     39          6           0       -6.807209   -0.764901   -0.950413
     40          6           0        3.360973    5.575970   -0.104058
     41          6           0        2.045403    3.273820    0.136185
     42          6           0        0.322575    6.478335   -0.994897
     43          6           0        3.877910    5.735130    1.346329
     44          1           0        0.443889    0.190493   -0.131727
     45          1           0       -3.055278   -1.409588    1.204449
     46          1           0       -2.271609   -2.836998    2.298484
     47          1           0       -0.869824   -4.042702    3.013014
     48          1           0        5.503007   -2.261959   -2.485926
     49          1           0       -5.262234   -0.008341    1.297946
     50          1           0       -6.000291    1.346068    0.330582
     51          1           0        3.092690    0.082013    0.665622
     52          1           0       -0.557059    1.739543    0.260464
     53          1           0        1.600962   -4.466659    1.177166
     54          1           0        2.724796   -3.412096    2.012536
     55          1           0        1.406539   -4.274296    2.907946
     56          1           0        2.670958   -3.492392   -0.603223
     57          1           0       -0.848611   -5.027272    0.656875
     58          1           0       -2.274504   -5.330027    1.707207
     59          1           0       -4.479804   -1.301364   -0.693072
     60          1           0       -5.093991    0.306333   -1.654070
     61          1           0       -4.873738    4.479050    0.553228
     62          1           0       -5.801235    3.229598   -0.420212
     63          1           0       -4.447595    4.198083   -1.276562
     64          1           0       -1.765775    4.872264   -0.666800
     65          1           0        7.692130   -2.197429   -1.188798
     66          1           0        7.266274   -4.032655   -1.627205
     67          1           0        6.948964   -3.361636    0.013103
     68          1           0        7.086275   -0.238757   -0.548945
     69          1           0        4.838606    1.498216    0.308449
     70          1           0        6.563026    1.411975    0.797686
     71          1           0        5.253393    0.475761    1.725675
     72          1           0        3.123198    6.606983   -0.403792
     73          1           0        4.258565    5.070633   -0.683094
     74          1           0        0.031661    6.720645   -1.958422
     75          1           0        1.155417    7.172626   -0.782927
     76          1           0       -0.620571    7.008072   -0.459917
     77          1           0        3.120740    6.235121    2.042949
     78          1           0        4.675439    6.594793    1.546122
     79          1           0        4.116027    4.631034    1.785401
     80          1           0       -3.642827   -4.907721   -1.696298
     81          1           0       -8.135028   -1.626837   -2.045194
 ---------------------------------------------------------------------

 SCF Done:  E(RB3LYP) =  -1949.09922816     A.U. after   16 cycles

 Excitation energies and oscillator strengths:

 Excited State   1:      Singlet-A      1.7911 eV  692.22 nm  f=0.3003  <S**2>=0.000
     156 ->157         0.70757
     156 <-157        -0.10912
 This state for optimization and/or second-order correction.
 Total Energy, E(TD-HF/TD-DFT) =  -1949.03340656
 Copying the excited state density for this state as the 1-particle RhoCI density.

 The electronic state is 1-A.
 Alpha  occ. eigenvalues --  -19.19578 -19.18589 -19.13893 -19.13029 -19.10627
 Alpha  occ. eigenvalues --  -19.10488 -14.38031 -14.35525 -14.35301 -14.28550
 Alpha  occ. eigenvalues --  -10.34040 -10.32123 -10.28456 -10.26192 -10.24441
 Alpha  occ. eigenvalues --  -10.24247 -10.23585 -10.23515 -10.23167 -10.23091
 Alpha  occ. eigenvalues --  -10.22350 -10.22172 -10.21610 -10.21495 -10.21274
 Alpha  occ. eigenvalues --  -10.21051 -10.21014 -10.20955 -10.20721 -10.20602
 Alpha  occ. eigenvalues --  -10.20153 -10.20119 -10.20064 -10.20028 -10.19784
 Alpha  occ. eigenvalues --  -10.19725 -10.19676 -10.19404 -10.19283 -10.19011
 Alpha  occ. eigenvalues --  -10.18801 -10.18382 -10.18011  -1.10267  -1.07871
 Alpha  occ. eigenvalues --   -1.03773  -1.03446  -1.01550  -0.98519  -0.98135
 Alpha  occ. eigenvalues --   -0.96297  -0.94805  -0.91656  -0.83152  -0.82276
 Alpha  occ. eigenvalues --   -0.81778  -0.80590  -0.79336  -0.79166  -0.78204
 Alpha  occ. eigenvalues --   -0.76800  -0.76689  -0.75063  -0.73957  -0.72764
 Alpha  occ. eigenvalues --   -0.70508  -0.69645  -0.69212  -0.68715  -0.67716
 Alpha  occ. eigenvalues --   -0.66284  -0.65196  -0.64623  -0.62868  -0.62174
 Alpha  occ. eigenvalues --   -0.60070  -0.59307  -0.57836  -0.56844  -0.56535
 Alpha  occ. eigenvalues --   -0.55807  -0.54972  -0.54689  -0.53864  -0.53738
 Alpha  occ. eigenvalues --   -0.52551  -0.52215  -0.51334  -0.50083  -0.49548
 Alpha  occ. eigenvalues --   -0.49179  -0.48907  -0.48402  -0.47909  -0.47713
 Alpha  occ. eigenvalues --   -0.46919  -0.46609  -0.46223  -0.45762  -0.45032
 Alpha  occ. eigenvalues --   -0.44875  -0.44734  -0.44082  -0.43865  -0.43444
 Alpha  occ. eigenvalues --   -0.43077  -0.42862  -0.42700  -0.42324  -0.41748
 Alpha  occ. eigenvalues --   -0.41622  -0.41444  -0.40729  -0.40650  -0.40414
 Alpha  occ. eigenvalues --   -0.40085  -0.39693  -0.39552  -0.39358  -0.39174
 Alpha  occ. eigenvalues --   -0.39082  -0.38971  -0.38748  -0.38555  -0.38223
 Alpha  occ. eigenvalues --   -0.38175  -0.37507  -0.36779  -0.36603  -0.36556
 Alpha  occ. eigenvalues --   -0.36131  -0.35795  -0.35188  -0.34689  -0.34419
 Alpha  occ. eigenvalues --   -0.33768  -0.33728  -0.33405  -0.33377  -0.32833
 Alpha  occ. eigenvalues --   -0.32483  -0.31843  -0.31669  -0.29752  -0.29306
 Alpha  occ. eigenvalues --   -0.28417  -0.26940  -0.26292  -0.25642  -0.25346
 Alpha  occ. eigenvalues --   -0.25208  -0.24759  -0.24459  -0.23310  -0.21889
 Alpha  occ. eigenvalues --   -0.17684
 Alpha virt. eigenvalues --   -0.10414  -0.05989  -0.04121  -0.01784  -0.00557
 Alpha virt. eigenvalues --    0.00636   0.01052   0.01759   0.01975   0.02591
 Alpha virt. eigenvalues --    0.03373   0.04245   0.04520   0.05175   0.05566

 Mulliken charges:
               1
     1  O   -0.207299
     2  O   -0.214273
     3  O   -0.271865
     4  O   -0.237805
     5  O   -0.247946
     6  O   -0.154592
     7  N   -0.047733
     8  N   -0.148999
     9  N   -0.124877
    10  N   -0.283085
    11  C   -0.128450
    12  C    0.026257
    13  C   -0.130430
    14  C    0.064552
    15  C   -0.137033
    16  C    0.144433
    17  C   -0.121081
    18  C   -0.112971
    19  C    0.101824
    20  C    0.033800
    21  C    0.097996
    22  C    0.188284
    23  C    0.003672
    24  C    0.083715
    25  C   -0.201388
    26  C    0.092001
    27  C    0.068747
    28  C   -0.023496
    29  C   -0.042466
    30  C    0.046631
    31  C   -0.034675
    32  C    0.030880
    33  C   -0.185482
    34  C    0.024100
    35  C   -0.065427
    36  C   -0.183712
    37  C    0.165606
    38  C   -0.023922
    39  C    0.174040
    40  C    0.085533
    41  C    0.125532
    42  C    0.054314
    43  C   -0.107596
    44  H    0.128109
    45  H    0.100559
    46  H   -0.008636
    47  H    0.032025
    48  H    0.039039
    49  H    0.003400
    50  H    0.028067
    51  H    0.077800
    52  H    0.128179
    53  H    0.006898
    54  H    0.032580
    55  H    0.031852
    56  H    0.086476
    57  H    0.051797
    58  H    0.034268
    59  H    0.112613
    60  H    0.039514
    61  H    0.045154
    62  H    0.017118
    63  H    0.037870
    64  H   -0.094813
    65  H    0.030273
    66  H    0.044938
    67  H    0.018081
    68  H    0.032554
    69  H    0.072010
    70  H    0.006354
    71  H    0.048167
    72  H   -0.004225
    73  H    0.040855
    74  H    0.009255
    75  H    0.002809
    76  H    0.029559
    77  H    0.008521
    78  H    0.024963
    79  H    0.062982
    80  H    0.230216
    81  H    0.237505
 Sum of Mulliken charges =  -0.00000

 Dipole moment (field-independent basis, Debye):
    X=             -2.1920    Y=              0.0302    Z=             -1.3218  Tot=              2.5599
 Quadrupole moment (field-independent basis, Debye-Ang):
   XX=           -254.1957   YY=           -233.5678   ZZ=           -253.7890
   XY=             17.2036   XZ=             16.8979   YZ=            -14.1811

 Normal termination of Gaussian 16 at Mon Jul  1 22:35:26 2019.
