 Gaussian 16, Revision A.03,
 Gaussian 16:  ES64L-G16RevA.03 25-Dec-2016

 --------------------------
 # td=(NStates=1) B3LYP/SVP
 --------------------------

 --
 TD
 --
 Symbolic Z-matrix:
 Charge =  0 Multiplicity = 1

                         Standard orientation:
 ---------------------------------------------------------------------
 Center     Atomic      Atomic             Coordinates (Angstroms)
 Number     Number       Type             X           Y           Z
 ---------------------------------------------------------------------
      1          8           0        4.449297   -4.783145   -1.853206
      2          8           0       -2.977218   -4.820836   -1.183266
      3          8           0       -6.946953   -1.705971   -1.834364
      4          8           0       -3.793106   -3.142853    0.071815
      5          8           0       -7.589878   -0.626208    0.094297
      6          8           0        3.008724    2.446906    0.186093
      7          7           0        0.279367   -0.413541    0.650526
      8          7           0       -1.590237    1.760883    0.269401
      9          7           0        3.358184   -3.012218   -0.707120
     10          7           0        0.798059    2.885171    0.022231
     11          6           0       -0.593894   -2.443347    1.424631
     12          6           0       -0.911380   -1.118243    1.005831
     13          6           0        0.831840   -2.520607    1.289506
     14          6           0        1.320330   -1.278121    0.672792
     15          6           0       -3.832474    1.440088    0.256808
     16          6           0       -2.471747    0.765982    0.444233
     17          6           0       -2.188736   -0.522785    0.831474
     18          6           0       -3.639388    2.753999   -0.063243
     19          6           0       -1.495333   -3.448577    1.932131
     20          6           0        5.686574   -2.740263   -1.257775
     21          6           0        3.634589   -1.785876   -0.274799
     22          6           0       -2.206946    2.929682   -0.115152
     23          6           0        5.139655   -1.556045   -0.466187
     24          6           0       -5.137312    0.614050    0.416925
     25          6           0        2.625210   -0.946455    0.360386
     26          6           0        1.555115   -3.709984    1.747789
     27          6           0        4.458818   -3.720774   -1.287750
     28          6           0       -1.949161   -4.531348    0.991041
     29          6           0       -5.479357   -0.199546   -0.755162
     30          6           0       -4.670284    3.847345   -0.374685
     31          6           0       -1.386089    4.063025   -0.222175
     32          6           0        6.930536   -3.357726   -0.822040
     33          6           0        5.815662   -0.501261    0.099008
     34          6           0        0.032756    3.937518   -0.257463
     35          6           0        1.002680    5.217626   -0.439145
     36          6           0        2.289418    4.697434   -0.341311
     37          6           0       -3.030813   -4.054936   -0.078653
     38          6           0        5.445609    0.713353    0.861654
     39          6           0       -6.822351   -0.795239   -0.783673
     40          6           0        3.559682    5.347927   -0.373410
     41          6           0        2.131242    3.275802   -0.084308
     42          6           0        0.504059    6.576337   -0.671245
     43          6           0        4.264599    5.456240    0.879506
     44          1           0        0.178955    0.437388    0.245704
     45          1           0       -3.058829   -1.102483    1.092141
     46          1           0       -2.398001   -3.059292    2.345717
     47          1           0       -0.894862   -4.167454    2.633147
     48          1           0        5.664837   -2.347653   -2.403546
     49          1           0       -5.087310    0.105608    1.224525
     50          1           0       -5.948283    1.372573    0.689021
     51          1           0        2.829115   -0.000018    0.566248
     52          1           0       -0.652765    1.505455    0.403993
     53          1           0        1.730599   -4.439595    0.928971
     54          1           0        2.767757   -3.356011    2.014572
     55          1           0        1.194997   -4.113643    2.768862
     56          1           0        2.481770   -3.352545   -0.911373
     57          1           0       -1.132737   -4.844084    0.317988
     58          1           0       -2.549589   -5.369389    1.522250
     59          1           0       -4.890273   -1.074390   -0.625605
     60          1           0       -5.446012    0.487974   -1.737573
     61          1           0       -4.650279    4.710790    0.543074
     62          1           0       -5.745834    3.590795   -0.448402
     63          1           0       -4.728020    4.463125   -1.335807
     64          1           0       -1.752866    4.998412   -0.345208
     65          1           0        7.787953   -2.737219   -0.820363
     66          1           0        7.070645   -4.363757   -1.420666
     67          1           0        6.745733   -3.608764    0.274097
     68          1           0        6.844381   -0.502409   -0.052552
     69          1           0        4.601841    1.393069    0.282458
     70          1           0        6.260396    1.335616    1.221853
     71          1           0        4.878512    0.323449    1.788521
     72          1           0        3.289686    6.416179   -0.730539
     73          1           0        4.066729    4.711506   -1.255855
     74          1           0       -0.202293    6.442209   -1.595972
     75          1           0        1.498117    7.318213   -0.877878
     76          1           0        0.189163    7.085840    0.411571
     77          1           0        3.670500    5.906052    1.871409
     78          1           0        5.206616    5.964702    0.919544
     79          1           0        4.295926    4.386140    1.324035
     80          1           0       -3.694435   -4.379205   -1.833447
     81          1           0       -8.025023   -2.054035   -1.764354
 ---------------------------------------------------------------------

 SCF Done:  E(RB3LYP) =  -1949.06524665     A.U. after   17 cycles

 Excitation energies and oscillator strengths:

 Excited State   1:      Singlet-A      1.7166 eV  722.27 nm  f=0.3381  <S**2>=0.000
     156 ->157         0.70959
     156 <-157        -0.12516
 This state for optimization and/or second-order correction.
 Total Energy, E(TD-HF/TD-DFT) =  -1949.00216313
 Copying the excited state density for this state as the 1-particle RhoCI density.

 The electronic state is 1-A.
 Alpha  occ. eigenvalues --  -19.20243 -19.18641 -19.14521 -19.12984 -19.12936
 Alpha  occ. eigenvalues --  -19.09714 -14.37739 -14.37453 -14.36480 -14.28203
 Alpha  occ. eigenvalues --  -10.33120 -10.31284 -10.30456 -10.25707 -10.25378
 Alpha  occ. eigenvalues --  -10.24494 -10.23687 -10.22953 -10.22741 -10.22705
 Alpha  occ. eigenvalues --  -10.22512 -10.22399 -10.22067 -10.21885 -10.21256
 Alpha  occ. eigenvalues --  -10.21251 -10.21111 -10.20884 -10.20564 -10.20469
 Alpha  occ. eigenvalues --  -10.20312 -10.19973 -10.19865 -10.19550 -10.19483
 Alpha  occ. eigenvalues --  -10.19438 -10.19346 -10.18699 -10.18403 -10.17960
 Alpha  occ. eigenvalues --  -10.17959 -10.17863 -10.17542  -1.10797  -1.08461
 Alpha  occ. eigenvalues --   -1.05128  -1.02086  -1.00579  -0.99966  -0.99608
 Alpha  occ. eigenvalues --   -0.97878  -0.97172  -0.90335  -0.83389  -0.82428
 Alpha  occ. eigenvalues --   -0.81789  -0.81553  -0.80695  -0.78947  -0.78065
 Alpha  occ. eigenvalues --   -0.77311  -0.76291  -0.75173  -0.74261  -0.71693
 Alpha  occ. eigenvalues --   -0.70769  -0.70029  -0.69156  -0.68528  -0.67832
 Alpha  occ. eigenvalues --   -0.67476  -0.65109  -0.64121  -0.62390  -0.60954
 Alpha  occ. eigenvalues --   -0.60169  -0.59095  -0.58484  -0.57815  -0.56815
 Alpha  occ. eigenvalues --   -0.56680  -0.55058  -0.54702  -0.54279  -0.53151
 Alpha  occ. eigenvalues --   -0.52601  -0.51304  -0.51208  -0.50771  -0.49649
 Alpha  occ. eigenvalues --   -0.49447  -0.49021  -0.48682  -0.47990  -0.47801
 Alpha  occ. eigenvalues --   -0.47487  -0.46572  -0.46408  -0.45564  -0.45304
 Alpha  occ. eigenvalues --   -0.44819  -0.44578  -0.44476  -0.44387  -0.44189
 Alpha  occ. eigenvalues --   -0.43896  -0.43513  -0.43215  -0.43191  -0.42387
 Alpha  occ. eigenvalues --   -0.42171  -0.42004  -0.41326  -0.41035  -0.40933
 Alpha  occ. eigenvalues --   -0.40770  -0.40242  -0.40067  -0.39944  -0.39663
 Alpha  occ. eigenvalues --   -0.39399  -0.39062  -0.38768  -0.38575  -0.38459
 Alpha  occ. eigenvalues --   -0.38143  -0.37971  -0.37089  -0.36751  -0.36557
 Alpha  occ. eigenvalues --   -0.36132  -0.35955  -0.35742  -0.35518  -0.34196
 Alpha  occ. eigenvalues --   -0.33936  -0.33771  -0.33163  -0.32807  -0.32533
 Alpha  occ. eigenvalues --   -0.32472  -0.31820  -0.30207  -0.29693  -0.29128
 Alpha  occ. eigenvalues --   -0.27858  -0.27535  -0.26535  -0.26103  -0.25645
 Alpha  occ. eigenvalues --   -0.25127  -0.24393  -0.23952  -0.22899  -0.21014
 Alpha  occ. eigenvalues --   -0.16748
 Alpha virt. eigenvalues --   -0.09891  -0.05550  -0.03888  -0.01060  -0.00433
 Alpha virt. eigenvalues --    0.00601   0.01068   0.01619   0.02322   0.03326
 Alpha virt. eigenvalues --    0.03455   0.03593   0.04381   0.04530   0.06544

 Mulliken charges:
               1
     1  O   -0.182133
     2  O   -0.216158
     3  O   -0.301660
     4  O   -0.210304
     5  O   -0.186981
     6  O   -0.226103
     7  N   -0.021651
     8  N   -0.010634
     9  N   -0.058929
    10  N   -0.263139
    11  C   -0.067325
    12  C    0.027905
    13  C   -0.150977
    14  C    0.116219
    15  C   -0.129673
    16  C   -0.011038
    17  C   -0.013812
    18  C   -0.052811
    19  C    0.138053
    20  C   -0.056223
    21  C    0.037206
    22  C    0.153903
    23  C   -0.036421
    24  C    0.196243
    25  C   -0.049406
    26  C   -0.023877
    27  C    0.117125
    28  C   -0.022308
    29  C    0.045196
    30  C   -0.016590
    31  C   -0.084947
    32  C    0.052660
    33  C   -0.124906
    34  C    0.058810
    35  C   -0.112307
    36  C   -0.151398
    37  C    0.108552
    38  C   -0.000887
    39  C    0.114595
    40  C    0.074955
    41  C    0.136139
    42  C   -0.034179
    43  C   -0.034924
    44  H    0.065773
    45  H   -0.014993
    46  H    0.004399
    47  H    0.015637
    48  H    0.064425
    49  H   -0.058958
    50  H    0.003891
    51  H   -0.075745
    52  H    0.093387
    53  H    0.029035
    54  H    0.035148
    55  H    0.054174
    56  H    0.110164
    57  H    0.034223
    58  H    0.060885
    59  H    0.030378
    60  H    0.053778
    61  H    0.043745
    62  H    0.014909
    63  H    0.037437
    64  H   -0.075555
    65  H    0.018788
    66  H    0.051994
    67  H    0.017189
    68  H   -0.038413
    69  H    0.130156
    70  H    0.008565
    71  H    0.033485
    72  H   -0.009784
    73  H    0.040601
    74  H    0.071863
    75  H    0.035175
    76  H    0.067977
    77  H    0.009364
    78  H    0.016551
    79  H    0.034189
    80  H    0.223154
    81  H    0.237149
 Sum of Mulliken charges =  -0.00000

 Dipole moment (field-independent basis, Debye):
    X=             -2.7694    Y=             -0.0520    Z=             -0.9516  Tot=              2.9288
 Quadrupole moment (field-independent basis, Debye-Ang):
   XX=           -243.6652   YY=           -241.7201   ZZ=           -254.6145
   XY=             11.7559   XZ=             15.9907   YZ=             -9.5571

 Normal termination of Gaussian 16 at Tue Jul  2 02:27:09 2019.
