 Gaussian 16, Revision A.03,
 Gaussian 16:  ES64L-G16RevA.03 25-Dec-2016

 --------------------------
 # td=(NStates=1) B3LYP/SVP
 --------------------------

 --
 TD
 --
 Symbolic Z-matrix:
 Charge =  0 Multiplicity = 1

                         Standard orientation:
 ---------------------------------------------------------------------
 Center     Atomic      Atomic             Coordinates (Angstroms)
 Number     Number       Type             X           Y           Z
 ---------------------------------------------------------------------
      1          8           0        4.348275   -4.839827   -1.856479
      2          8           0       -2.755135   -4.831074   -1.100399
      3          8           0       -6.847209   -1.561142   -2.003532
      4          8           0       -3.701314   -3.199340    0.158880
      5          8           0       -7.508199   -0.642379   -0.133177
      6          8           0        3.036456    2.467135    0.574759
      7          7           0        0.171404   -0.476035    0.557448
      8          7           0       -1.579476    1.827163    0.341246
      9          7           0        3.314420   -3.092683   -0.696688
     10          7           0        0.740939    2.826887    0.075759
     11          6           0       -0.605128   -2.384650    1.503989
     12          6           0       -0.996925   -1.151125    1.029970
     13          6           0        0.681378   -2.577736    1.304274
     14          6           0        1.241545   -1.384216    0.719461
     15          6           0       -3.767217    1.495828    0.255301
     16          6           0       -2.491161    0.834374    0.545240
     17          6           0       -2.329895   -0.408733    0.976867
     18          6           0       -3.526049    2.780507   -0.123740
     19          6           0       -1.551275   -3.473550    2.118280
     20          6           0        5.470234   -2.771920   -1.378169
     21          6           0        3.581126   -1.840428   -0.203083
     22          6           0       -2.107690    2.989346   -0.051177
     23          6           0        4.956603   -1.502465   -0.564286
     24          6           0       -5.095489    0.709091    0.416668
     25          6           0        2.597872   -1.044551    0.249152
     26          6           0        1.539867   -3.729796    1.909686
     27          6           0        4.247047   -3.749461   -1.413941
     28          6           0       -2.040765   -4.558673    1.110184
     29          6           0       -5.329130   -0.093479   -0.919160
     30          6           0       -4.492672    3.890817   -0.362509
     31          6           0       -1.308363    4.070685   -0.347471
     32          6           0        6.790837   -3.461789   -0.920871
     33          6           0        5.738974   -0.417733   -0.208800
     34          6           0        0.126531    4.013147   -0.331012
     35          6           0        1.078660    5.121971   -0.578629
     36          6           0        2.330621    4.605503   -0.260795
     37          6           0       -2.902993   -4.109571    0.005340
     38          6           0        5.359961    0.669030    0.726132
     39          6           0       -6.728046   -0.717016   -1.011782
     40          6           0        3.672763    5.227917   -0.248259
     41          6           0        2.085687    3.160659    0.184159
     42          6           0        0.687139    6.508171   -0.971261
     43          6           0        4.137462    5.690431    1.207413
     44          1           0        0.166636    0.476660    0.234032
     45          1           0       -3.272512   -0.885778    1.297793
     46          1           0       -2.462908   -2.913892    2.531935
     47          1           0       -1.140231   -3.780840    2.959639
     48          1           0        5.540665   -2.439409   -2.195211
     49          1           0       -5.079251    0.296607    1.374903
     50          1           0       -5.826117    1.428111    0.569698
     51          1           0        2.883711    0.134809    0.176736
     52          1           0       -0.450703    2.005014    0.647037
     53          1           0        1.594365   -4.526774    1.022435
     54          1           0        2.503188   -3.516175    1.870738
     55          1           0        1.408847   -4.133408    2.939196
     56          1           0        2.364479   -3.537980   -0.656412
     57          1           0       -1.025683   -5.253715    0.723918
     58          1           0       -2.661867   -5.471819    1.746211
     59          1           0       -4.724277   -0.984214   -0.862374
     60          1           0       -5.270061    0.703741   -1.670151
     61          1           0       -4.363384    4.580626    0.472177
     62          1           0       -5.480762    3.596599   -0.432270
     63          1           0       -4.448825    4.417733   -1.368954
     64          1           0       -2.002805    4.943051   -0.400868
     65          1           0        7.694407   -2.829946   -1.018103
     66          1           0        6.880446   -4.538386   -1.602885
     67          1           0        6.643637   -3.663244    0.098651
     68          1           0        6.735014   -0.536531   -0.851479
     69          1           0        4.653970    1.397100    0.151814
     70          1           0        6.114684    1.137746    1.028916
     71          1           0        4.277374    0.430251    1.449868
     72          1           0        3.741952    6.089986   -0.836634
     73          1           0        4.344258    4.453455   -0.802779
     74          1           0       -0.233585    6.756811   -1.736548
     75          1           0        1.529328    6.963186   -1.314647
     76          1           0        0.421065    7.122548    0.203170
     77          1           0        3.284393    6.276951    1.638532
     78          1           0        5.153655    6.140457    1.144467
     79          1           0        4.245314    4.763554    1.804842
     80          1           0       -3.464742   -4.356615   -1.750681
     81          1           0       -7.696705   -1.834096   -1.854513
 ---------------------------------------------------------------------

 SCF Done:  E(RB3LYP) =  -1948.99417452     A.U. after   16 cycles

 Excitation energies and oscillator strengths:

 Excited State   1:      Singlet-A      1.6323 eV  759.55 nm  f=0.2143  <S**2>=0.000
     156 ->157         0.70623
 This state for optimization and/or second-order correction.
 Total Energy, E(TD-HF/TD-DFT) =  -1948.93418687
 Copying the excited state density for this state as the 1-particle RhoCI density.

 The electronic state is 1-A.
 Alpha  occ. eigenvalues --  -19.20867 -19.18800 -19.13972 -19.12520 -19.10837
 Alpha  occ. eigenvalues --  -19.10822 -14.37387 -14.37124 -14.34765 -14.30826
 Alpha  occ. eigenvalues --  -10.33397 -10.31466 -10.28239 -10.27462 -10.24532
 Alpha  occ. eigenvalues --  -10.24303 -10.24144 -10.23574 -10.23266 -10.23205
 Alpha  occ. eigenvalues --  -10.22291 -10.22268 -10.21789 -10.20964 -10.20721
 Alpha  occ. eigenvalues --  -10.20645 -10.20497 -10.20264 -10.19852 -10.19847
 Alpha  occ. eigenvalues --  -10.19763 -10.19636 -10.19552 -10.19403 -10.19359
 Alpha  occ. eigenvalues --  -10.19305 -10.19204 -10.19046 -10.18975 -10.18931
 Alpha  occ. eigenvalues --  -10.18866 -10.17597 -10.17060  -1.13860  -1.11066
 Alpha  occ. eigenvalues --   -1.04716  -1.02877  -1.01650  -1.01116  -0.98529
 Alpha  occ. eigenvalues --   -0.96653  -0.96147  -0.91719  -0.82187  -0.82134
 Alpha  occ. eigenvalues --   -0.81063  -0.80139  -0.79952  -0.78546  -0.77351
 Alpha  occ. eigenvalues --   -0.77144  -0.76093  -0.74825  -0.74058  -0.72578
 Alpha  occ. eigenvalues --   -0.71590  -0.69462  -0.69022  -0.68601  -0.68085
 Alpha  occ. eigenvalues --   -0.67136  -0.65713  -0.63768  -0.62758  -0.61867
 Alpha  occ. eigenvalues --   -0.60730  -0.59845  -0.59041  -0.58895  -0.57865
 Alpha  occ. eigenvalues --   -0.56253  -0.55427  -0.54405  -0.53430  -0.52791
 Alpha  occ. eigenvalues --   -0.52042  -0.51198  -0.50998  -0.50292  -0.49929
 Alpha  occ. eigenvalues --   -0.49556  -0.49043  -0.48598  -0.48215  -0.47804
 Alpha  occ. eigenvalues --   -0.47545  -0.46999  -0.46294  -0.45753  -0.45154
 Alpha  occ. eigenvalues --   -0.44863  -0.44483  -0.44227  -0.43745  -0.43690
 Alpha  occ. eigenvalues --   -0.43534  -0.42935  -0.42649  -0.42263  -0.42217
 Alpha  occ. eigenvalues --   -0.42045  -0.41577  -0.41258  -0.40953  -0.40840
 Alpha  occ. eigenvalues --   -0.40655  -0.40179  -0.39750  -0.39660  -0.39576
 Alpha  occ. eigenvalues --   -0.39349  -0.38723  -0.38639  -0.38071  -0.37887
 Alpha  occ. eigenvalues --   -0.37405  -0.37311  -0.37115  -0.36863  -0.36689
 Alpha  occ. eigenvalues --   -0.36237  -0.36178  -0.35808  -0.35564  -0.35213
 Alpha  occ. eigenvalues --   -0.35161  -0.33998  -0.33652  -0.33473  -0.33251
 Alpha  occ. eigenvalues --   -0.33067  -0.32580  -0.31132  -0.29913  -0.29567
 Alpha  occ. eigenvalues --   -0.29034  -0.28075  -0.26755  -0.25771  -0.25449
 Alpha  occ. eigenvalues --   -0.25158  -0.24757  -0.23878  -0.23472  -0.21796
 Alpha  occ. eigenvalues --   -0.17742
 Alpha virt. eigenvalues --   -0.10740  -0.05860  -0.03707  -0.02143   0.01121
 Alpha virt. eigenvalues --    0.01678   0.01705   0.02166   0.02809   0.03240
 Alpha virt. eigenvalues --    0.04014   0.04958   0.05264   0.05711   0.06531

 Mulliken charges:
               1
     1  O   -0.175150
     2  O   -0.193137
     3  O   -0.096661
     4  O   -0.243265
     5  O   -0.205156
     6  O   -0.250605
     7  N   -0.114230
     8  N   -0.153585
     9  N   -0.113392
    10  N   -0.340634
    11  C   -0.132320
    12  C    0.045389
    13  C   -0.178376
    14  C    0.081419
    15  C   -0.161266
    16  C    0.110109
    17  C   -0.054889
    18  C   -0.107125
    19  C    0.225406
    20  C    0.062637
    21  C    0.117804
    22  C   -0.003562
    23  C   -0.103182
    24  C    0.184224
    25  C   -0.150063
    26  C    0.139515
    27  C    0.091655
    28  C   -0.115255
    29  C    0.054783
    30  C    0.117507
    31  C   -0.093622
    32  C    0.020425
    33  C   -0.130476
    34  C    0.129196
    35  C   -0.059828
    36  C   -0.183298
    37  C    0.168421
    38  C    0.067016
    39  C    0.069084
    40  C    0.067700
    41  C    0.196567
    42  C    0.032997
    43  C   -0.015628
    44  H    0.117552
    45  H    0.013482
    46  H    0.009008
    47  H   -0.048138
    48  H   -0.085361
    49  H   -0.004435
    50  H   -0.038221
    51  H    0.064665
    52  H    0.219972
    53  H    0.006946
    54  H   -0.039860
    55  H    0.044062
    56  H    0.134861
    57  H    0.061512
    58  H    0.078425
    59  H    0.050468
    60  H    0.035949
    61  H    0.034481
    62  H   -0.021292
    63  H    0.020244
    64  H   -0.018876
    65  H    0.018198
    66  H    0.058060
    67  H    0.004237
    68  H    0.015429
    69  H    0.088808
    70  H   -0.051142
    71  H    0.074354
    72  H   -0.023570
    73  H    0.030177
    74  H    0.059562
    75  H   -0.003608
    76  H    0.045375
    77  H    0.027813
    78  H    0.027995
    79  H    0.032476
    80  H    0.226610
    81  H    0.126633
 Sum of Mulliken charges =  -0.00000

 Dipole moment (field-independent basis, Debye):
    X=             -3.9727    Y=              2.3987    Z=             -0.5116  Tot=              4.6688
 Quadrupole moment (field-independent basis, Debye-Ang):
   XX=           -256.2466   YY=           -239.5886   ZZ=           -252.2865
   XY=             17.7354   XZ=             13.3662   YZ=            -14.2007

 Normal termination of Gaussian 16 at Sat Jun 29 13:20:49 2019.
