 Gaussian 16, Revision A.03,
 Gaussian 16:  ES64L-G16RevA.03 25-Dec-2016

 --------------------------
 # td=(NStates=1) B3LYP/SVP
 --------------------------

 --
 TD
 --
 Symbolic Z-matrix:
 Charge =  0 Multiplicity = 1

                         Standard orientation:
 ---------------------------------------------------------------------
 Center     Atomic      Atomic             Coordinates (Angstroms)
 Number     Number       Type             X           Y           Z
 ---------------------------------------------------------------------
      1          8           0        4.210716   -4.867118   -1.843103
      2          8           0       -3.138658   -4.671127   -1.138765
      3          8           0       -6.918936   -1.480384   -1.924168
      4          8           0       -3.928858   -2.967518    0.103994
      5          8           0       -7.542239   -0.598131    0.147232
      6          8           0        3.068692    2.317542    0.464317
      7          7           0        0.257473   -0.456158    0.650689
      8          7           0       -1.468212    1.829311    0.368602
      9          7           0        3.152232   -3.142685   -0.702982
     10          7           0        0.873929    2.857050   -0.038556
     11          6           0       -0.671248   -2.352119    1.428658
     12          6           0       -1.025726   -1.054334    0.948487
     13          6           0        0.736291   -2.642575    1.275477
     14          6           0        1.245110   -1.358854    0.614870
     15          6           0       -3.765263    1.537985    0.234093
     16          6           0       -2.429370    0.824359    0.532317
     17          6           0       -2.317796   -0.421334    0.929613
     18          6           0       -3.455136    2.877299   -0.110456
     19          6           0       -1.695181   -3.335810    1.980041
     20          6           0        5.451987   -2.887673   -1.373032
     21          6           0        3.531135   -1.900769   -0.125928
     22          6           0       -1.960000    3.009892   -0.090841
     23          6           0        4.972470   -1.783410   -0.486804
     24          6           0       -5.089087    0.875930    0.380087
     25          6           0        2.619786   -1.064894    0.340238
     26          6           0        1.453555   -3.812971    1.737160
     27          6           0        4.172407   -3.845822   -1.393584
     28          6           0       -2.160734   -4.392388    1.071310
     29          6           0       -5.312502   -0.023730   -0.780184
     30          6           0       -4.464298    3.949705   -0.477618
     31          6           0       -1.241130    4.211800   -0.319903
     32          6           0        6.762244   -3.535786   -0.894534
     33          6           0        5.843239   -0.725394   -0.140200
     34          6           0        0.211934    4.046789   -0.291416
     35          6           0        1.117793    5.117790   -0.480823
     36          6           0        2.399296    4.520496   -0.289716
     37          6           0       -3.046973   -3.914314   -0.062796
     38          6           0        5.503459    0.422593    0.744480
     39          6           0       -6.714785   -0.731813   -0.747837
     40          6           0        3.775904    5.167016   -0.269957
     41          6           0        2.191784    3.157736    0.130301
     42          6           0        0.878493    6.601863   -0.846439
     43          6           0        4.348870    5.583378    1.131869
     44          1           0        0.183615    0.296815   -0.237651
     45          1           0       -3.262882   -1.045112    1.055449
     46          1           0       -2.524041   -2.725144    2.492791
     47          1           0       -1.087267   -3.828652    2.834189
     48          1           0        5.681992   -2.335032   -2.317012
     49          1           0       -5.212597    0.432400    1.377007
     50          1           0       -6.114753    1.584026    0.292633
     51          1           0        2.882885   -0.064163    0.467930
     52          1           0       -0.398677    1.804394    0.480003
     53          1           0        1.238392   -4.897766    1.143681
     54          1           0        2.469218   -3.727575    1.764128
     55          1           0        1.116426   -4.001286    2.929713
     56          1           0        2.101701   -3.398067   -0.846860
     57          1           0       -1.247027   -4.973119    0.729617
     58          1           0       -2.568570   -5.256833    1.431640
     59          1           0       -4.625297   -0.871032   -0.855197
     60          1           0       -5.296419    0.343754   -1.870317
     61          1           0       -4.151224    4.989882   -0.083227
     62          1           0       -5.605412    3.524009   -0.372066
     63          1           0       -4.568809    4.220158   -1.594052
     64          1           0       -1.735824    5.033412   -0.559209
     65          1           0        7.507151   -2.695439   -1.040840
     66          1           0        7.058502   -4.517917   -1.486120
     67          1           0        6.468479   -3.748348    0.310285
     68          1           0        6.938619   -0.814902   -0.241814
     69          1           0        4.605356    1.204979    0.381504
     70          1           0        6.271707    1.026776    1.214636
     71          1           0        4.933565    0.021017    1.717588
     72          1           0        3.627340    6.049337   -0.738900
     73          1           0        4.473355    4.604826   -0.843092
     74          1           0        0.536891    6.666143   -1.885847
     75          1           0        1.671386    7.177042   -0.992867
     76          1           0       -0.032892    7.197929   -0.435018
     77          1           0        3.700288    6.207129    1.778183
     78          1           0        5.300256    5.960226    1.226393
     79          1           0        4.245327    4.659299    1.917202
     80          1           0       -3.743867   -4.385700   -1.670115
     81          1           0       -7.749760   -1.920038   -1.676297
 ---------------------------------------------------------------------

 SCF Done:  E(RB3LYP) =  -1949.03546805     A.U. after   19 cycles

 Excitation energies and oscillator strengths:

 Excited State   1:      Singlet-A      1.5642 eV  792.64 nm  f=0.2034  <S**2>=0.000
     156 ->157         0.70663
     156 <-157        -0.10718
 This state for optimization and/or second-order correction.
 Total Energy, E(TD-HF/TD-DFT) =  -1948.97798505
 Copying the excited state density for this state as the 1-particle RhoCI density.

 The electronic state is 1-A.
 Alpha  occ. eigenvalues --  -19.20819 -19.18470 -19.14117 -19.13824 -19.12096
 Alpha  occ. eigenvalues --  -19.09755 -14.38702 -14.36621 -14.36449 -14.28314
 Alpha  occ. eigenvalues --  -10.35234 -10.32611 -10.28948 -10.25579 -10.25029
 Alpha  occ. eigenvalues --  -10.24488 -10.24006 -10.23520 -10.23507 -10.23165
 Alpha  occ. eigenvalues --  -10.22428 -10.21979 -10.21684 -10.21608 -10.21592
 Alpha  occ. eigenvalues --  -10.21579 -10.21425 -10.21103 -10.21014 -10.20749
 Alpha  occ. eigenvalues --  -10.20682 -10.20575 -10.20510 -10.19925 -10.19764
 Alpha  occ. eigenvalues --  -10.19678 -10.19569 -10.19456 -10.19109 -10.17989
 Alpha  occ. eigenvalues --  -10.17891 -10.17592 -10.17473  -1.14342  -1.08936
 Alpha  occ. eigenvalues --   -1.08269  -1.00461  -0.99495  -0.99177  -0.97653
 Alpha  occ. eigenvalues --   -0.96552  -0.94074  -0.91333  -0.83162  -0.82400
 Alpha  occ. eigenvalues --   -0.81247  -0.80275  -0.78850  -0.78651  -0.78353
 Alpha  occ. eigenvalues --   -0.76966  -0.76403  -0.74554  -0.73456  -0.72705
 Alpha  occ. eigenvalues --   -0.70641  -0.69668  -0.69230  -0.68214  -0.66989
 Alpha  occ. eigenvalues --   -0.66649  -0.65526  -0.64079  -0.62898  -0.61953
 Alpha  occ. eigenvalues --   -0.61217  -0.59558  -0.58021  -0.56812  -0.56458
 Alpha  occ. eigenvalues --   -0.55532  -0.55418  -0.54082  -0.53458  -0.53056
 Alpha  occ. eigenvalues --   -0.52728  -0.52050  -0.51119  -0.50524  -0.49517
 Alpha  occ. eigenvalues --   -0.49155  -0.48966  -0.48690  -0.48407  -0.47921
 Alpha  occ. eigenvalues --   -0.46934  -0.46776  -0.46275  -0.45701  -0.45106
 Alpha  occ. eigenvalues --   -0.44992  -0.44539  -0.44216  -0.43827  -0.43611
 Alpha  occ. eigenvalues --   -0.43401  -0.43277  -0.42793  -0.42444  -0.42390
 Alpha  occ. eigenvalues --   -0.41990  -0.41759  -0.41497  -0.41284  -0.41175
 Alpha  occ. eigenvalues --   -0.40748  -0.40673  -0.40208  -0.39805  -0.39640
 Alpha  occ. eigenvalues --   -0.39396  -0.39075  -0.38957  -0.38197  -0.37999
 Alpha  occ. eigenvalues --   -0.37880  -0.37377  -0.37217  -0.36904  -0.36772
 Alpha  occ. eigenvalues --   -0.35997  -0.35491  -0.35404  -0.34386  -0.34306
 Alpha  occ. eigenvalues --   -0.33662  -0.33499  -0.33004  -0.32861  -0.32627
 Alpha  occ. eigenvalues --   -0.32052  -0.31773  -0.31282  -0.30231  -0.29315
 Alpha  occ. eigenvalues --   -0.28627  -0.27174  -0.26195  -0.25882  -0.25330
 Alpha  occ. eigenvalues --   -0.24922  -0.23956  -0.23563  -0.22451  -0.21616
 Alpha  occ. eigenvalues --   -0.17740
 Alpha virt. eigenvalues --   -0.11138  -0.06534  -0.04539  -0.03947  -0.00342
 Alpha virt. eigenvalues --    0.00103   0.01741   0.01996   0.02823   0.03184
 Alpha virt. eigenvalues --    0.03774   0.04740   0.05235   0.05606   0.06239

 Mulliken charges:
               1
     1  O   -0.083622
     2  O   -0.050124
     3  O   -0.221061
     4  O   -0.321655
     5  O   -0.235467
     6  O   -0.252278
     7  N   -0.128488
     8  N   -0.121884
     9  N   -0.241934
    10  N   -0.322538
    11  C   -0.146792
    12  C    0.051226
    13  C   -0.123816
    14  C    0.025895
    15  C   -0.063309
    16  C    0.133398
    17  C   -0.097899
    18  C   -0.098539
    19  C    0.090291
    20  C   -0.095581
    21  C    0.192337
    22  C    0.091636
    23  C   -0.057697
    24  C    0.044882
    25  C   -0.082961
    26  C    0.016393
    27  C    0.134446
    28  C    0.100763
    29  C   -0.033481
    30  C    0.003671
    31  C   -0.026539
    32  C   -0.034906
    33  C   -0.084789
    34  C    0.112723
    35  C   -0.090559
    36  C   -0.215655
    37  C    0.152278
    38  C   -0.082919
    39  C    0.159178
    40  C    0.209609
    41  C    0.172252
    42  C    0.156489
    43  C   -0.026178
    44  H    0.202296
    45  H    0.059161
    46  H    0.034702
    47  H    0.007694
    48  H    0.043823
    49  H    0.039718
    50  H    0.043428
    51  H   -0.035401
    52  H    0.169910
    53  H    0.043253
    54  H    0.003194
    55  H    0.043945
    56  H    0.159961
    57  H    0.012695
    58  H    0.013737
    59  H    0.040424
    60  H    0.044098
    61  H    0.039109
    62  H    0.040390
    63  H    0.026869
    64  H   -0.089540
    65  H    0.036626
    66  H    0.055074
    67  H    0.038400
    68  H    0.002854
    69  H    0.124936
    70  H    0.003425
    71  H    0.027416
    72  H   -0.051330
    73  H    0.004964
    74  H   -0.003286
    75  H   -0.035112
    76  H    0.027341
    77  H    0.000318
    78  H    0.002666
    79  H    0.020188
    80  H    0.122731
    81  H    0.172528
 Sum of Mulliken charges =  -0.00000

 Dipole moment (field-independent basis, Debye):
    X=             -3.0050    Y=             -0.1849    Z=             -1.9171  Tot=              3.5692
 Quadrupole moment (field-independent basis, Debye-Ang):
   XX=           -262.3998   YY=           -229.5529   ZZ=           -255.1688
   XY=             15.4198   XZ=             11.4894   YZ=            -13.2286

 Normal termination of Gaussian 16 at Tue Jul  2 03:49:58 2019.
