 Gaussian 16, Revision A.03,
 Gaussian 16:  ES64L-G16RevA.03 25-Dec-2016

 --------------------------
 # td=(NStates=1) B3LYP/SVP
 --------------------------

 --
 TD
 --
 Symbolic Z-matrix:
 Charge =  0 Multiplicity = 1

                         Standard orientation:
 ---------------------------------------------------------------------
 Center     Atomic      Atomic             Coordinates (Angstroms)
 Number     Number       Type             X           Y           Z
 ---------------------------------------------------------------------
      1          8           0        4.162918   -4.926327   -1.753076
      2          8           0       -3.237749   -4.690097   -1.072960
      3          8           0       -7.051419   -1.616452   -1.774116
      4          8           0       -3.875809   -2.946428    0.173882
      5          8           0       -7.649103   -0.335291   -0.031560
      6          8           0        3.132205    2.322481    0.356863
      7          7           0        0.285416   -0.480547    0.603872
      8          7           0       -1.483163    1.872388    0.253607
      9          7           0        3.243252   -3.099723   -0.854039
     10          7           0        0.920243    2.884625    0.068485
     11          6           0       -0.770044   -2.353567    1.439182
     12          6           0       -0.927638   -0.959374    1.020596
     13          6           0        0.635492   -2.638470    1.207425
     14          6           0        1.293096   -1.501658    0.722962
     15          6           0       -3.814565    1.542308    0.220573
     16          6           0       -2.479024    0.913469    0.535777
     17          6           0       -2.225198   -0.407585    0.847613
     18          6           0       -3.564124    2.845048   -0.213323
     19          6           0       -1.676271   -3.368141    2.056119
     20          6           0        5.516490   -2.913244   -1.387891
     21          6           0        3.591907   -1.898280   -0.287829
     22          6           0       -2.011077    3.101676   -0.152307
     23          6           0        5.047040   -1.677156   -0.507968
     24          6           0       -5.170019    0.869393    0.359033
     25          6           0        2.655278   -1.100687    0.312862
     26          6           0        1.405909   -3.905770    1.681302
     27          6           0        4.290323   -3.874849   -1.350498
     28          6           0       -2.169045   -4.468079    1.074794
     29          6           0       -5.313260   -0.177154   -0.796431
     30          6           0       -4.497212    4.014485   -0.518949
     31          6           0       -1.172289    4.178499   -0.389512
     32          6           0        6.742940   -3.665119   -0.875801
     33          6           0        5.938973   -0.738768   -0.073496
     34          6           0        0.327088    4.090506   -0.244999
     35          6           0        1.216468    5.202089   -0.502883
     36          6           0        2.468209    4.686606   -0.315507
     37          6           0       -3.208730   -4.025553    0.060292
     38          6           0        5.608773    0.494532    0.777913
     39          6           0       -6.772867   -0.743539   -0.800378
     40          6           0        3.822929    5.253360   -0.266349
     41          6           0        2.225463    3.122872    0.082406
     42          6           0        0.780480    6.656321   -0.815904
     43          6           0        4.283534    5.567647    1.301372
     44          1           0        0.561183    0.559309    0.356614
     45          1           0       -3.170486   -1.020943    1.095417
     46          1           0       -2.558801   -2.702443    2.499561
     47          1           0       -1.169641   -4.030659    2.863574
     48          1           0        5.511424   -2.617994   -2.363649
     49          1           0       -5.282391    0.357643    1.320450
     50          1           0       -6.012503    1.513457    0.349257
     51          1           0        2.958081    0.020549    0.734975
     52          1           0       -0.494598    1.954468    0.533017
     53          1           0        1.205354   -4.940493    1.087165
     54          1           0        2.466985   -3.609386    1.686244
     55          1           0        1.125074   -4.221777    2.697194
     56          1           0        2.345700   -3.661172   -0.642701
     57          1           0       -1.324096   -5.033363    0.540851
     58          1           0       -2.592775   -5.241626    1.720564
     59          1           0       -4.644784   -1.033793   -0.609176
     60          1           0       -5.096669    0.366017   -1.736915
     61          1           0       -4.451099    4.649268    0.270556
     62          1           0       -5.561817    3.605929   -0.508305
     63          1           0       -4.308746    4.521721   -1.710580
     64          1           0       -1.791898    5.078872   -0.630085
     65          1           0        7.617640   -3.130997   -1.245158
     66          1           0        6.548764   -4.837973   -1.440155
     67          1           0        6.673382   -3.899107    0.193623
     68          1           0        6.902714   -0.909091   -0.571074
     69          1           0        5.006163    1.193132    0.062179
     70          1           0        6.358694    1.049294    1.285253
     71          1           0        4.819506    0.237465    1.524395
     72          1           0        3.821153    6.140243   -0.788434
     73          1           0        4.391861    4.429062   -0.590990
     74          1           0        0.369243    6.522127   -1.850937
     75          1           0        1.634291    7.389856   -0.784088
     76          1           0        0.058236    6.826386   -0.061157
     77          1           0        3.538935    6.487070    1.574682
     78          1           0        5.281426    5.919950    1.288146
     79          1           0        4.204785    4.719252    2.080053
     80          1           0       -3.931589   -4.106536   -1.578307
     81          1           0       -8.091454   -1.974916   -1.548967
 ---------------------------------------------------------------------

 SCF Done:  E(RB3LYP) =  -1949.14345451     A.U. after   16 cycles

 Excitation energies and oscillator strengths:

 Excited State   1:      Singlet-A      1.7070 eV  726.34 nm  f=0.2524  <S**2>=0.000
     156 ->157         0.70477
     156 <-157        -0.10273
 This state for optimization and/or second-order correction.
 Total Energy, E(TD-HF/TD-DFT) =  -1949.08072452
 Copying the excited state density for this state as the 1-particle RhoCI density.

 The electronic state is 1-A.
 Alpha  occ. eigenvalues --  -19.21392 -19.19498 -19.14069 -19.12219 -19.11668
 Alpha  occ. eigenvalues --  -19.10515 -14.37272 -14.35718 -14.35653 -14.30092
 Alpha  occ. eigenvalues --  -10.34267 -10.32022 -10.27996 -10.26848 -10.25076
 Alpha  occ. eigenvalues --  -10.24689 -10.23586 -10.23462 -10.23096 -10.23055
 Alpha  occ. eigenvalues --  -10.22805 -10.22609 -10.21529 -10.21487 -10.21308
 Alpha  occ. eigenvalues --  -10.20944 -10.20782 -10.20676 -10.20331 -10.20108
 Alpha  occ. eigenvalues --  -10.20053 -10.19857 -10.19842 -10.19826 -10.19763
 Alpha  occ. eigenvalues --  -10.19734 -10.19693 -10.19551 -10.19371 -10.19215
 Alpha  occ. eigenvalues --  -10.18999 -10.18759 -10.17752  -1.12153  -1.08473
 Alpha  occ. eigenvalues --   -1.08047  -1.00825  -0.99658  -0.98716  -0.96185
 Alpha  occ. eigenvalues --   -0.95182  -0.94610  -0.92189  -0.81483  -0.81229
 Alpha  occ. eigenvalues --   -0.80118  -0.79965  -0.79849  -0.77577  -0.76621
 Alpha  occ. eigenvalues --   -0.76244  -0.75803  -0.74663  -0.73135  -0.71252
 Alpha  occ. eigenvalues --   -0.70154  -0.68513  -0.68196  -0.67553  -0.66539
 Alpha  occ. eigenvalues --   -0.66457  -0.65009  -0.63737  -0.62514  -0.61296
 Alpha  occ. eigenvalues --   -0.60558  -0.58187  -0.57788  -0.56632  -0.55956
 Alpha  occ. eigenvalues --   -0.54989  -0.54264  -0.54095  -0.52442  -0.52319
 Alpha  occ. eigenvalues --   -0.52123  -0.51450  -0.51044  -0.50593  -0.49061
 Alpha  occ. eigenvalues --   -0.48759  -0.48716  -0.48563  -0.47801  -0.47660
 Alpha  occ. eigenvalues --   -0.46633  -0.46011  -0.45293  -0.45034  -0.44782
 Alpha  occ. eigenvalues --   -0.44568  -0.44374  -0.43782  -0.43582  -0.43484
 Alpha  occ. eigenvalues --   -0.43123  -0.42342  -0.42197  -0.42052  -0.41877
 Alpha  occ. eigenvalues --   -0.41578  -0.41478  -0.41255  -0.40582  -0.40442
 Alpha  occ. eigenvalues --   -0.40102  -0.39800  -0.39675  -0.39494  -0.39421
 Alpha  occ. eigenvalues --   -0.38977  -0.38596  -0.38147  -0.38068  -0.38028
 Alpha  occ. eigenvalues --   -0.37637  -0.37472  -0.37377  -0.37150  -0.36741
 Alpha  occ. eigenvalues --   -0.36615  -0.36221  -0.35887  -0.35383  -0.35305
 Alpha  occ. eigenvalues --   -0.34480  -0.34195  -0.33991  -0.33169  -0.33091
 Alpha  occ. eigenvalues --   -0.32665  -0.31759  -0.30713  -0.29687  -0.29410
 Alpha  occ. eigenvalues --   -0.29010  -0.27705  -0.26339  -0.25794  -0.25343
 Alpha  occ. eigenvalues --   -0.24600  -0.24175  -0.24128  -0.23410  -0.21358
 Alpha  occ. eigenvalues --   -0.17325
 Alpha virt. eigenvalues --   -0.10292  -0.05568  -0.03312  -0.03003   0.00127
 Alpha virt. eigenvalues --    0.00663   0.01819   0.02160   0.03107   0.03416
 Alpha virt. eigenvalues --    0.03441   0.04581   0.04694   0.05141   0.06298

 Mulliken charges:
               1
     1  O   -0.117059
     2  O   -0.157100
     3  O   -0.242410
     4  O   -0.299594
     5  O   -0.267055
     6  O   -0.238153
     7  N   -0.164659
     8  N   -0.139502
     9  N   -0.155374
    10  N   -0.271829
    11  C   -0.102433
    12  C    0.097793
    13  C   -0.154704
    14  C    0.068194
    15  C   -0.079501
    16  C    0.088828
    17  C   -0.090961
    18  C   -0.122269
    19  C    0.043392
    20  C   -0.043995
    21  C    0.123492
    22  C    0.046470
    23  C   -0.054117
    24  C    0.127630
    25  C   -0.178400
    26  C    0.007116
    27  C    0.064345
    28  C    0.009198
    29  C   -0.034971
    30  C    0.053403
    31  C   -0.105207
    32  C    0.004221
    33  C   -0.103638
    34  C    0.090381
    35  C   -0.129857
    36  C   -0.227675
    37  C    0.160793
    38  C    0.039466
    39  C    0.155640
    40  C    0.145482
    41  C    0.150022
    42  C    0.132680
    43  C   -0.060117
    44  H    0.183771
    45  H    0.049513
    46  H    0.045461
    47  H    0.022004
    48  H    0.011090
    49  H    0.013697
    50  H   -0.002973
    51  H    0.088007
    52  H    0.150688
    53  H    0.034634
    54  H    0.040026
    55  H    0.018654
    56  H    0.152825
    57  H    0.051158
    58  H    0.037173
    59  H    0.060498
    60  H    0.044512
    61  H    0.018387
    62  H    0.020884
    63  H    0.056535
    64  H   -0.015505
    65  H    0.030922
    66  H    0.049614
    67  H    0.025957
    68  H   -0.016981
    69  H    0.083598
    70  H    0.006089
    71  H    0.027830
    72  H   -0.017958
    73  H    0.011932
    74  H    0.040628
    75  H    0.027837
    76  H    0.024645
    77  H    0.023913
    78  H    0.017351
    79  H    0.054589
    80  H    0.218439
    81  H    0.242586
 Sum of Mulliken charges =  -0.00000

 Dipole moment (field-independent basis, Debye):
    X=             -2.5547    Y=              0.7018    Z=              0.0673  Tot=              2.6502
 Quadrupole moment (field-independent basis, Debye-Ang):
   XX=           -252.4015   YY=           -230.7033   ZZ=           -254.9604
   XY=             23.2427   XZ=             11.5230   YZ=            -12.9189

 Normal termination of Gaussian 16 at Sun Jun 30 18:43:27 2019.
