 Gaussian 16, Revision A.03,
 Gaussian 16:  ES64L-G16RevA.03 25-Dec-2016

 --------------------------
 # td=(NStates=1) B3LYP/SVP
 --------------------------

 --
 TD
 --
 Symbolic Z-matrix:
 Charge =  0 Multiplicity = 1

                         Standard orientation:
 ---------------------------------------------------------------------
 Center     Atomic      Atomic             Coordinates (Angstroms)
 Number     Number       Type             X           Y           Z
 ---------------------------------------------------------------------
      1          8           0        4.375498   -4.818620   -1.932674
      2          8           0       -3.034011   -5.132826   -0.977140
      3          8           0       -6.928672   -1.543945   -1.928352
      4          8           0       -3.659292   -3.077566   -0.051856
      5          8           0       -7.632645   -0.350026   -0.114559
      6          8           0        3.015513    2.441769    0.469583
      7          7           0        0.250290   -0.488384    0.560591
      8          7           0       -1.591055    1.768137    0.448799
      9          7           0        3.434960   -3.274166   -0.551071
     10          7           0        0.816743    2.948464   -0.000761
     11          6           0       -0.680659   -2.322471    1.536422
     12          6           0       -0.938052   -1.025796    1.004668
     13          6           0        0.662527   -2.592820    1.238721
     14          6           0        1.186131   -1.498415    0.714799
     15          6           0       -3.839838    1.476382    0.352892
     16          6           0       -2.582809    0.836215    0.589115
     17          6           0       -2.172196   -0.503920    0.858827
     18          6           0       -3.437032    2.778915   -0.018807
     19          6           0       -1.734501   -3.262977    2.012937
     20          6           0        5.553108   -2.742928   -1.294979
     21          6           0        3.548752   -1.921593   -0.215598
     22          6           0       -2.064114    2.991472    0.022016
     23          6           0        4.983494   -1.637602   -0.496972
     24          6           0       -5.106184    0.846735    0.337729
     25          6           0        2.616933   -1.170503    0.355656
     26          6           0        1.453095   -3.790707    1.773407
     27          6           0        4.462243   -3.759593   -1.298549
     28          6           0       -2.053062   -4.440786    1.059880
     29          6           0       -5.367299   -0.206954   -0.795247
     30          6           0       -4.570567    3.838521   -0.433610
     31          6           0       -1.322096    4.091059   -0.312997
     32          6           0        6.859690   -3.394118   -0.839004
     33          6           0        5.725539   -0.564691   -0.177914
     34          6           0        0.155502    4.024854   -0.354866
     35          6           0        1.068144    5.145431   -0.581270
     36          6           0        2.288349    4.691643   -0.079689
     37          6           0       -3.020015   -4.103977   -0.044543
     38          6           0        5.426775    0.633217    0.647308
     39          6           0       -6.818482   -0.627472   -0.876410
     40          6           0        3.682698    5.456351   -0.281837
     41          6           0        2.121091    3.264750    0.224576
     42          6           0        0.786345    6.578796   -0.993068
     43          6           0        4.303876    5.649863    1.099031
     44          1           0        0.388806    0.343497    0.151926
     45          1           0       -3.045206   -1.240194    1.106132
     46          1           0       -2.693671   -2.747961    2.192162
     47          1           0       -1.242863   -3.787588    2.950922
     48          1           0        5.751948   -2.711460   -2.340693
     49          1           0       -5.146909    0.152804    1.192646
     50          1           0       -5.946944    1.502398    0.505714
     51          1           0        2.747911   -0.030548    0.543990
     52          1           0       -0.610973    2.167277    0.483805
     53          1           0        1.635857   -4.540980    0.871577
     54          1           0        2.483173   -3.572139    2.107550
     55          1           0        0.835093   -4.505417    2.481420
     56          1           0        2.521485   -3.700093   -0.544109
     57          1           0       -1.204497   -4.887562    0.451562
     58          1           0       -2.522562   -5.212711    1.532728
     59          1           0       -4.775881   -1.010638   -0.944544
     60          1           0       -5.172904    0.250116   -1.744267
     61          1           0       -4.306609    4.939831    0.085487
     62          1           0       -5.527258    3.458729    0.112940
     63          1           0       -4.702500    3.985808   -1.540333
     64          1           0       -1.935019    5.013017   -0.948829
     65          1           0        7.852394   -2.739576   -1.060312
     66          1           0        7.121728   -4.360227   -1.382117
     67          1           0        6.685310   -3.665621    0.223260
     68          1           0        6.764411   -0.628658   -0.434636
     69          1           0        4.909836    1.434622    0.088229
     70          1           0        6.462981    0.951625    0.924559
     71          1           0        4.699271    0.134012    1.553805
     72          1           0        3.707866    6.377707   -0.994361
     73          1           0        4.218014    4.635691   -0.794187
     74          1           0        0.119921    6.304664   -1.870274
     75          1           0        1.774006    7.063602   -1.031655
     76          1           0        0.114319    7.167316   -0.238018
     77          1           0        3.630013    6.511947    1.604937
     78          1           0        5.419031    5.879749    0.901224
     79          1           0        4.135986    4.549309    1.781645
     80          1           0       -3.832371   -4.889275   -1.510616
     81          1           0       -7.845213   -1.842993   -1.787972
 ---------------------------------------------------------------------

 SCF Done:  E(RB3LYP) =  -1949.08499755     A.U. after   17 cycles

 Excitation energies and oscillator strengths:

 Excited State   1:      Singlet-A      1.8132 eV  683.77 nm  f=0.3486  <S**2>=0.000
     156 ->157         0.70902
     156 <-157        -0.13895
 This state for optimization and/or second-order correction.
 Total Energy, E(TD-HF/TD-DFT) =  -1949.01836193
 Copying the excited state density for this state as the 1-particle RhoCI density.

 The electronic state is 1-A.
 Alpha  occ. eigenvalues --  -19.20660 -19.17879 -19.15785 -19.14323 -19.10288
 Alpha  occ. eigenvalues --  -19.10031 -14.37333 -14.36743 -14.34603 -14.29028
 Alpha  occ. eigenvalues --  -10.34211 -10.31995 -10.28390 -10.26555 -10.24288
 Alpha  occ. eigenvalues --  -10.23808 -10.23774 -10.23476 -10.22908 -10.22680
 Alpha  occ. eigenvalues --  -10.22424 -10.22145 -10.21681 -10.21635 -10.21461
 Alpha  occ. eigenvalues --  -10.20736 -10.20588 -10.20560 -10.20361 -10.20203
 Alpha  occ. eigenvalues --  -10.20141 -10.20008 -10.19966 -10.19747 -10.19626
 Alpha  occ. eigenvalues --  -10.19593 -10.19561 -10.19524 -10.19487 -10.19199
 Alpha  occ. eigenvalues --  -10.19094 -10.18798 -10.18700  -1.11160  -1.10891
 Alpha  occ. eigenvalues --   -1.03442  -1.02773  -1.02645  -1.01012  -0.99649
 Alpha  occ. eigenvalues --   -0.98205  -0.95159  -0.93267  -0.83672  -0.82975
 Alpha  occ. eigenvalues --   -0.82328  -0.81731  -0.79590  -0.78857  -0.78455
 Alpha  occ. eigenvalues --   -0.77150  -0.76918  -0.74829  -0.74225  -0.72362
 Alpha  occ. eigenvalues --   -0.70944  -0.70191  -0.69386  -0.68514  -0.68024
 Alpha  occ. eigenvalues --   -0.66821  -0.65605  -0.64447  -0.62449  -0.61031
 Alpha  occ. eigenvalues --   -0.59725  -0.59185  -0.58547  -0.58334  -0.57983
 Alpha  occ. eigenvalues --   -0.56939  -0.55740  -0.55119  -0.52928  -0.52558
 Alpha  occ. eigenvalues --   -0.52307  -0.52055  -0.51598  -0.51156  -0.50744
 Alpha  occ. eigenvalues --   -0.50350  -0.49348  -0.49246  -0.48661  -0.47964
 Alpha  occ. eigenvalues --   -0.47489  -0.47186  -0.46404  -0.45519  -0.44909
 Alpha  occ. eigenvalues --   -0.44724  -0.44580  -0.44444  -0.44225  -0.43828
 Alpha  occ. eigenvalues --   -0.43452  -0.43359  -0.42955  -0.42441  -0.42008
 Alpha  occ. eigenvalues --   -0.41757  -0.41425  -0.41341  -0.40907  -0.40705
 Alpha  occ. eigenvalues --   -0.40490  -0.40321  -0.40237  -0.39864  -0.39674
 Alpha  occ. eigenvalues --   -0.39438  -0.38974  -0.38896  -0.38536  -0.38269
 Alpha  occ. eigenvalues --   -0.37632  -0.37214  -0.36883  -0.36579  -0.36241
 Alpha  occ. eigenvalues --   -0.35808  -0.35753  -0.35441  -0.35269  -0.35095
 Alpha  occ. eigenvalues --   -0.35030  -0.34226  -0.33693  -0.33533  -0.33093
 Alpha  occ. eigenvalues --   -0.32443  -0.32245  -0.31765  -0.30524  -0.30252
 Alpha  occ. eigenvalues --   -0.29557  -0.27738  -0.26464  -0.26223  -0.25593
 Alpha  occ. eigenvalues --   -0.25024  -0.24674  -0.24311  -0.22944  -0.22359
 Alpha  occ. eigenvalues --   -0.18021
 Alpha virt. eigenvalues --   -0.11029  -0.06493  -0.03386  -0.01766  -0.00015
 Alpha virt. eigenvalues --    0.01268   0.01949   0.02589   0.03484   0.03597
 Alpha virt. eigenvalues --    0.04319   0.04621   0.04995   0.05552   0.05934

 Mulliken charges:
               1
     1  O   -0.238546
     2  O   -0.209024
     3  O   -0.225394
     4  O   -0.209934
     5  O   -0.150631
     6  O   -0.233794
     7  N   -0.002311
     8  N   -0.111787
     9  N   -0.086330
    10  N   -0.266925
    11  C   -0.106138
    12  C    0.125547
    13  C   -0.141991
    14  C    0.045270
    15  C   -0.008049
    16  C    0.055488
    17  C   -0.126909
    18  C   -0.138647
    19  C    0.095933
    20  C    0.012560
    21  C    0.171133
    22  C    0.055302
    23  C    0.034576
    24  C    0.134913
    25  C   -0.191749
    26  C    0.026364
    27  C    0.069571
    28  C    0.042001
    29  C    0.053772
    30  C   -0.010121
    31  C   -0.155376
    32  C   -0.033939
    33  C   -0.163780
    34  C    0.041316
    35  C   -0.137833
    36  C   -0.177362
    37  C    0.130740
    38  C    0.040316
    39  C    0.108636
    40  C    0.031589
    41  C    0.154327
    42  C    0.072302
    43  C   -0.097588
    44  H    0.080456
    45  H    0.041128
    46  H    0.018917
    47  H    0.028424
    48  H    0.020454
    49  H    0.002748
    50  H    0.001979
    51  H    0.061609
    52  H    0.153628
    53  H    0.016058
    54  H    0.050646
    55  H    0.031051
    56  H    0.121222
    57  H    0.049330
    58  H    0.012067
    59  H   -0.008049
    60  H    0.004461
    61  H    0.037409
    62  H    0.035691
    63  H    0.045555
    64  H    0.041616
    65  H    0.039622
    66  H    0.039163
    67  H    0.017819
    68  H   -0.021449
    69  H    0.079044
    70  H    0.013095
    71  H    0.057581
    72  H    0.033669
    73  H    0.020355
    74  H    0.037907
    75  H    0.023294
    76  H    0.045657
    77  H    0.033589
    78  H    0.034039
    79  H    0.067694
    80  H    0.190770
    81  H    0.164254
 Sum of Mulliken charges =  -0.00000

 Dipole moment (field-independent basis, Debye):
    X=             -3.3217    Y=             -0.8558    Z=             -0.0844  Tot=              3.4312
 Quadrupole moment (field-independent basis, Debye-Ang):
   XX=           -246.7135   YY=           -244.7519   ZZ=           -258.3241
   XY=             23.7190   XZ=              9.1143   YZ=            -18.6437

 Normal termination of Gaussian 16 at Tue Jul  2 02:21:52 2019.
