 Gaussian 16, Revision A.03,
 Gaussian 16:  ES64L-G16RevA.03 25-Dec-2016

 --------------------------
 # td=(NStates=1) B3LYP/SVP
 --------------------------

 --
 TD
 --
 Symbolic Z-matrix:
 Charge =  0 Multiplicity = 1

                         Standard orientation:
 ---------------------------------------------------------------------
 Center     Atomic      Atomic             Coordinates (Angstroms)
 Number     Number       Type             X           Y           Z
 ---------------------------------------------------------------------
      1          8           0        4.353571   -5.020946   -1.635725
      2          8           0       -3.058705   -4.893989   -1.173534
      3          8           0       -6.958536   -1.535229   -1.879176
      4          8           0       -3.857542   -3.105757    0.023463
      5          8           0       -7.548245   -0.510075    0.042229
      6          8           0        3.046033    2.450621    0.527577
      7          7           0        0.289642   -0.546038    0.703834
      8          7           0       -1.503677    1.912991    0.397103
      9          7           0        3.381652   -3.247732   -0.465452
     10          7           0        0.848765    2.946513    0.004953
     11          6           0       -0.723910   -2.397511    1.399255
     12          6           0       -0.942362   -1.058694    1.032515
     13          6           0        0.742421   -2.672722    1.264291
     14          6           0        1.293632   -1.541425    0.819193
     15          6           0       -3.692359    1.450013    0.374863
     16          6           0       -2.452086    0.904264    0.685064
     17          6           0       -2.163120   -0.427640    0.947811
     18          6           0       -3.488360    2.793778   -0.056890
     19          6           0       -1.656724   -3.322839    1.980559
     20          6           0        5.445091   -2.788442   -1.466946
     21          6           0        3.635839   -1.887738   -0.166988
     22          6           0       -2.032709    3.057575   -0.025034
     23          6           0        4.963248   -1.626048   -0.626130
     24          6           0       -5.095666    0.858970    0.365795
     25          6           0        2.619096   -1.168967    0.412430
     26          6           0        1.331869   -3.825061    1.851280
     27          6           0        4.312570   -3.904430   -1.242972
     28          6           0       -2.088319   -4.411444    0.964891
     29          6           0       -5.329836   -0.111010   -0.849173
     30          6           0       -4.465739    3.907561   -0.538433
     31          6           0       -1.278256    4.086824   -0.450970
     32          6           0        6.798268   -3.448523   -0.994776
     33          6           0        5.749829   -0.518786   -0.318439
     34          6           0        0.087225    4.018379   -0.313297
     35          6           0        1.077578    5.190892   -0.518545
     36          6           0        2.295732    4.666393   -0.202828
     37          6           0       -3.058925   -4.066726   -0.119944
     38          6           0        5.455845    0.538847    0.637217
     39          6           0       -6.688378   -0.754636   -0.901999
     40          6           0        3.657480    5.344089   -0.266619
     41          6           0        2.184756    3.304715    0.173561
     42          6           0        0.584508    6.545024   -0.984463
     43          6           0        4.262111    5.611972    1.219462
     44          1           0        0.584623    0.635667    0.364645
     45          1           0       -3.193049   -0.898578    0.952274
     46          1           0       -2.581177   -2.817332    2.278081
     47          1           0       -1.099448   -3.840724    2.881593
     48          1           0        5.511002   -2.384410   -2.619002
     49          1           0       -5.330903    0.606371    1.454828
     50          1           0       -5.845066    1.712899    0.298935
     51          1           0        2.941653   -0.106948    0.338760
     52          1           0       -0.421165    1.962319    0.424111
     53          1           0        1.134926   -4.730278    1.136176
     54          1           0        2.353266   -3.795160    2.001557
     55          1           0        1.022174   -4.019683    2.777761
     56          1           0        2.440166   -3.502790   -0.588820
     57          1           0       -1.260599   -5.012232    0.598889
     58          1           0       -2.798500   -5.130031    1.448903
     59          1           0       -4.691649   -1.188347   -0.857288
     60          1           0       -5.111884    0.334602   -1.847161
     61          1           0       -4.396146    4.631664    0.338954
     62          1           0       -5.480066    3.475499   -0.706594
     63          1           0       -4.162307    4.331847   -1.512444
     64          1           0       -1.831410    4.940658   -1.114599
     65          1           0        7.579853   -2.593123   -1.145351
     66          1           0        7.183542   -4.296868   -1.788133
     67          1           0        6.560520   -3.772313    0.138741
     68          1           0        6.648319   -0.430429   -0.822290
     69          1           0        4.796360    1.278403    0.052985
     70          1           0        6.412394    0.995058    0.784849
     71          1           0        4.733577    0.373645    1.626047
     72          1           0        3.608082    6.339998   -0.799545
     73          1           0        4.406649    4.753845   -0.827382
     74          1           0        0.128188    6.434467   -1.915576
     75          1           0        1.377065    7.176065   -0.997956
     76          1           0       -0.006943    7.035756   -0.120740
     77          1           0        3.708888    6.336937    1.792546
     78          1           0        5.244758    6.076506    1.243990
     79          1           0        4.483003    4.803321    1.730106
     80          1           0       -3.717956   -4.481055   -1.566238
     81          1           0       -7.900099   -1.852273   -1.659798
 ---------------------------------------------------------------------

 SCF Done:  E(RB3LYP) =  -1949.08864975     A.U. after   17 cycles

 Excitation energies and oscillator strengths:

 Excited State   1:      Singlet-A      1.7045 eV  727.40 nm  f=0.2462  <S**2>=0.000
     156 ->157         0.70459
 This state for optimization and/or second-order correction.
 Total Energy, E(TD-HF/TD-DFT) =  -1949.02601120
 Copying the excited state density for this state as the 1-particle RhoCI density.

 The electronic state is 1-A.
 Alpha  occ. eigenvalues --  -19.20998 -19.20566 -19.14737 -19.11373 -19.10664
 Alpha  occ. eigenvalues --  -19.10361 -14.37341 -14.35653 -14.34985 -14.29410
 Alpha  occ. eigenvalues --  -10.34677 -10.31937 -10.28778 -10.26537 -10.23711
 Alpha  occ. eigenvalues --  -10.23156 -10.23109 -10.23099 -10.23000 -10.22891
 Alpha  occ. eigenvalues --  -10.22420 -10.22148 -10.21600 -10.21463 -10.21419
 Alpha  occ. eigenvalues --  -10.21181 -10.20968 -10.20724 -10.20680 -10.20277
 Alpha  occ. eigenvalues --  -10.20243 -10.19893 -10.19673 -10.19619 -10.19558
 Alpha  occ. eigenvalues --  -10.19382 -10.19349 -10.18833 -10.18672 -10.18663
 Alpha  occ. eigenvalues --  -10.18332 -10.18191 -10.16440  -1.14883  -1.11999
 Alpha  occ. eigenvalues --   -1.04581  -1.01892  -0.99783  -0.97865  -0.96304
 Alpha  occ. eigenvalues --   -0.95957  -0.95336  -0.91569  -0.82838  -0.82643
 Alpha  occ. eigenvalues --   -0.81035  -0.80909  -0.79337  -0.78932  -0.77890
 Alpha  occ. eigenvalues --   -0.76532  -0.76226  -0.75007  -0.74457  -0.73551
 Alpha  occ. eigenvalues --   -0.71638  -0.70003  -0.69770  -0.68572  -0.67879
 Alpha  occ. eigenvalues --   -0.67103  -0.65335  -0.63244  -0.62936  -0.62049
 Alpha  occ. eigenvalues --   -0.61505  -0.60308  -0.58982  -0.57193  -0.56261
 Alpha  occ. eigenvalues --   -0.55937  -0.55340  -0.53987  -0.53699  -0.53426
 Alpha  occ. eigenvalues --   -0.52532  -0.52179  -0.51451  -0.51244  -0.49766
 Alpha  occ. eigenvalues --   -0.49399  -0.48897  -0.48624  -0.47988  -0.47271
 Alpha  occ. eigenvalues --   -0.46806  -0.46661  -0.45721  -0.45698  -0.45412
 Alpha  occ. eigenvalues --   -0.44895  -0.44794  -0.44642  -0.44205  -0.43984
 Alpha  occ. eigenvalues --   -0.43381  -0.43287  -0.43019  -0.42849  -0.42323
 Alpha  occ. eigenvalues --   -0.42116  -0.41545  -0.41455  -0.41231  -0.41132
 Alpha  occ. eigenvalues --   -0.40648  -0.40468  -0.40143  -0.39616  -0.39359
 Alpha  occ. eigenvalues --   -0.38953  -0.38923  -0.38677  -0.38419  -0.38165
 Alpha  occ. eigenvalues --   -0.38121  -0.37718  -0.36817  -0.36592  -0.36070
 Alpha  occ. eigenvalues --   -0.36016  -0.35459  -0.35373  -0.35279  -0.34924
 Alpha  occ. eigenvalues --   -0.34650  -0.34343  -0.34064  -0.33689  -0.33578
 Alpha  occ. eigenvalues --   -0.33098  -0.32698  -0.30347  -0.30244  -0.29850
 Alpha  occ. eigenvalues --   -0.27035  -0.26942  -0.26120  -0.25562  -0.25014
 Alpha  occ. eigenvalues --   -0.24588  -0.24251  -0.23794  -0.23519  -0.21548
 Alpha  occ. eigenvalues --   -0.17941
 Alpha virt. eigenvalues --   -0.10788  -0.06379  -0.04466  -0.02311   0.00273
 Alpha virt. eigenvalues --    0.00297   0.02470   0.03231   0.03667   0.03988
 Alpha virt. eigenvalues --    0.04028   0.04710   0.05455   0.05539   0.06069

 Mulliken charges:
               1
     1  O   -0.168943
     2  O   -0.071639
     3  O   -0.130230
     4  O   -0.282175
     5  O   -0.340997
     6  O   -0.253699
     7  N   -0.233087
     8  N   -0.131570
     9  N   -0.122709
    10  N   -0.336397
    11  C   -0.135892
    12  C    0.200057
    13  C   -0.185705
    14  C    0.174533
    15  C   -0.099622
    16  C    0.048604
    17  C   -0.109964
    18  C   -0.163676
    19  C    0.129504
    20  C   -0.158802
    21  C    0.035966
    22  C    0.090220
    23  C    0.006132
    24  C    0.102909
    25  C   -0.099125
    26  C    0.169915
    27  C    0.133984
    28  C    0.024731
    29  C   -0.052383
    30  C    0.080806
    31  C   -0.186304
    32  C   -0.024021
    33  C   -0.107590
    34  C    0.093755
    35  C   -0.143177
    36  C   -0.143060
    37  C    0.122429
    38  C    0.033218
    39  C    0.134890
    40  C    0.059641
    41  C    0.183603
    42  C    0.203049
    43  C    0.048902
    44  H    0.240797
    45  H    0.034814
    46  H    0.008757
    47  H    0.028038
    48  H    0.057175
    49  H    0.040215
    50  H    0.013570
    51  H   -0.000614
    52  H    0.157182
    53  H    0.021012
    54  H   -0.011333
    55  H   -0.020692
    56  H    0.116865
    57  H    0.022857
    58  H    0.045137
    59  H    0.091135
    60  H    0.040710
    61  H    0.050237
    62  H    0.019277
    63  H    0.030295
    64  H    0.029570
    65  H    0.024977
    66  H    0.057148
    67  H    0.052770
    68  H   -0.035711
    69  H    0.086041
    70  H    0.000818
    71  H    0.068557
    72  H   -0.001674
    73  H    0.016818
    74  H    0.025177
    75  H   -0.034899
    76  H    0.035764
    77  H    0.000341
    78  H   -0.016510
    79  H   -0.011061
    80  H    0.112643
    81  H    0.207714
 Sum of Mulliken charges =  -0.00000

 Dipole moment (field-independent basis, Debye):
    X=             -2.4551    Y=              1.4148    Z=             -1.6372  Tot=              3.2725
 Quadrupole moment (field-independent basis, Debye-Ang):
   XX=           -259.5454   YY=           -239.3639   ZZ=           -250.7959
   XY=             22.1140   XZ=             14.5634   YZ=            -14.0445

 Normal termination of Gaussian 16 at Thu Jun 27 05:16:56 2019.
