 Gaussian 16, Revision A.03,
 Gaussian 16:  ES64L-G16RevA.03 25-Dec-2016

 --------------------------
 # td=(NStates=1) B3LYP/SVP
 --------------------------

 --
 TD
 --
 Symbolic Z-matrix:
 Charge =  0 Multiplicity = 1

                         Standard orientation:
 ---------------------------------------------------------------------
 Center     Atomic      Atomic             Coordinates (Angstroms)
 Number     Number       Type             X           Y           Z
 ---------------------------------------------------------------------
      1          8           0        4.250408   -4.892164   -1.894592
      2          8           0       -2.849233   -4.972724   -0.936729
      3          8           0       -6.824165   -1.593961   -2.014979
      4          8           0       -3.775648   -3.252555    0.112952
      5          8           0       -7.424228   -0.591916   -0.095868
      6          8           0        3.090064    2.463808    0.553023
      7          7           0        0.244725   -0.461880    0.695232
      8          7           0       -1.580875    1.896298    0.328907
      9          7           0        3.232074   -3.151050   -0.815065
     10          7           0        0.732424    2.929340    0.182216
     11          6           0       -0.700821   -2.416633    1.422289
     12          6           0       -0.979066   -1.090900    0.958133
     13          6           0        0.715957   -2.646588    1.150480
     14          6           0        1.274107   -1.403521    0.667262
     15          6           0       -3.806797    1.514667    0.359363
     16          6           0       -2.490524    0.864485    0.608288
     17          6           0       -2.298351   -0.433591    0.882339
     18          6           0       -3.587769    2.865640   -0.103519
     19          6           0       -1.618877   -3.272025    2.114596
     20          6           0        5.500896   -2.848580   -1.370690
     21          6           0        3.484810   -1.920389   -0.282098
     22          6           0       -2.177180    3.060183   -0.037569
     23          6           0        4.923778   -1.659721   -0.508323
     24          6           0       -5.061694    0.774956    0.315308
     25          6           0        2.614222   -1.072666    0.316140
     26          6           0        1.555873   -3.795072    1.626595
     27          6           0        4.317484   -3.719115   -1.434641
     28          6           0       -1.978883   -4.557630    1.335894
     29          6           0       -5.257514   -0.141822   -0.971243
     30          6           0       -4.615498    3.899294   -0.530513
     31          6           0       -1.336449    4.139896   -0.180378
     32          6           0        6.747046   -3.465168   -0.825445
     33          6           0        5.723833   -0.587839   -0.227597
     34          6           0        0.130343    4.072818   -0.144040
     35          6           0        1.091110    5.270940   -0.454746
     36          6           0        2.260035    4.691145   -0.155599
     37          6           0       -2.951342   -4.180360    0.112164
     38          6           0        5.439364    0.523018    0.777776
     39          6           0       -6.651608   -0.795487   -0.926768
     40          6           0        3.693863    5.287800   -0.277146
     41          6           0        2.157616    3.243246    0.224118
     42          6           0        0.585315    6.595088   -0.970617
     43          6           0        4.229723    5.891400    1.042991
     44          1           0        0.343280    0.346906    0.401854
     45          1           0       -3.005278   -1.151837    0.901336
     46          1           0       -2.622228   -2.711676    2.527989
     47          1           0       -1.160043   -3.509210    3.066423
     48          1           0        5.757924   -2.395656   -2.346038
     49          1           0       -4.908759    0.117425    1.277382
     50          1           0       -6.107456    1.233086    0.350908
     51          1           0        2.927714    0.098445    0.371325
     52          1           0       -0.549756    1.795041    0.276573
     53          1           0        1.816002   -4.690173    0.930100
     54          1           0        2.624902   -3.380791    1.801981
     55          1           0        1.182880   -4.160466    2.691127
     56          1           0        2.205727   -3.511232   -0.773009
     57          1           0       -1.082443   -5.127744    0.911110
     58          1           0       -2.493489   -5.359517    2.023602
     59          1           0       -4.593935   -1.070980   -0.863619
     60          1           0       -5.115203    0.331126   -1.847129
     61          1           0       -4.425225    4.786210    0.040155
     62          1           0       -5.601340    3.617681   -0.349025
     63          1           0       -4.431966    4.017575   -1.633985
     64          1           0       -2.054605    5.091866   -0.458080
     65          1           0        7.417105   -2.714683   -0.799296
     66          1           0        7.144060   -4.292820   -1.513061
     67          1           0        6.718859   -3.768682    0.171124
     68          1           0        6.913519   -0.675632   -0.486359
     69          1           0        4.679508    1.269990    0.201355
     70          1           0        6.412712    1.155947    0.997348
     71          1           0        4.870274    0.079047    1.613513
     72          1           0        3.570729    6.068411   -0.965079
     73          1           0        4.376458    4.587751   -0.835921
     74          1           0        0.085241    6.573174   -2.089366
     75          1           0        1.578078    7.129178   -1.248524
     76          1           0       -0.129733    7.148707   -0.324177
     77          1           0        3.555278    6.782046    1.472703
     78          1           0        5.201890    6.265663    0.750905
     79          1           0        4.181835    4.882659    1.657929
     80          1           0       -3.418213   -4.664302   -1.745168
     81          1           0       -7.598311   -2.090212   -1.765222
 ---------------------------------------------------------------------

 SCF Done:  E(RB3LYP) =  -1949.11868455     A.U. after   16 cycles

 Excitation energies and oscillator strengths:

 Excited State   1:      Singlet-A      1.6629 eV  745.60 nm  f=0.2635  <S**2>=0.000
     156 ->157         0.70778
     156 <-157        -0.10506
 This state for optimization and/or second-order correction.
 Total Energy, E(TD-HF/TD-DFT) =  -1949.05757454
 Copying the excited state density for this state as the 1-particle RhoCI density.

 The electronic state is 1-A.
 Alpha  occ. eigenvalues --  -19.20414 -19.18116 -19.13728 -19.13549 -19.12206
 Alpha  occ. eigenvalues --  -19.09770 -14.37728 -14.36423 -14.34891 -14.30152
 Alpha  occ. eigenvalues --  -10.34057 -10.31635 -10.28790 -10.28279 -10.24270
 Alpha  occ. eigenvalues --  -10.24084 -10.23642 -10.23529 -10.23489 -10.23205
 Alpha  occ. eigenvalues --  -10.23156 -10.22290 -10.21550 -10.21347 -10.21197
 Alpha  occ. eigenvalues --  -10.21046 -10.20767 -10.20564 -10.20454 -10.20364
 Alpha  occ. eigenvalues --  -10.20320 -10.19943 -10.19932 -10.19930 -10.19915
 Alpha  occ. eigenvalues --  -10.19773 -10.19740 -10.19675 -10.19468 -10.19209
 Alpha  occ. eigenvalues --  -10.18843 -10.18640 -10.17512  -1.11564  -1.10839
 Alpha  occ. eigenvalues --   -1.03370  -1.01613  -1.00670  -1.00255  -0.98171
 Alpha  occ. eigenvalues --   -0.96925  -0.94630  -0.91494  -0.82794  -0.81825
 Alpha  occ. eigenvalues --   -0.81456  -0.80791  -0.79718  -0.79036  -0.76939
 Alpha  occ. eigenvalues --   -0.76731  -0.75700  -0.74827  -0.73880  -0.71951
 Alpha  occ. eigenvalues --   -0.71273  -0.69568  -0.69296  -0.68921  -0.67900
 Alpha  occ. eigenvalues --   -0.67426  -0.65012  -0.63697  -0.62164  -0.61650
 Alpha  occ. eigenvalues --   -0.60597  -0.59282  -0.58880  -0.58715  -0.57642
 Alpha  occ. eigenvalues --   -0.55720  -0.55418  -0.54284  -0.53826  -0.52571
 Alpha  occ. eigenvalues --   -0.51523  -0.50951  -0.50379  -0.50279  -0.49714
 Alpha  occ. eigenvalues --   -0.49390  -0.48947  -0.48630  -0.48492  -0.48111
 Alpha  occ. eigenvalues --   -0.47262  -0.46854  -0.45795  -0.45591  -0.45025
 Alpha  occ. eigenvalues --   -0.44574  -0.44534  -0.44277  -0.44237  -0.43734
 Alpha  occ. eigenvalues --   -0.43189  -0.42884  -0.42661  -0.42500  -0.41807
 Alpha  occ. eigenvalues --   -0.41460  -0.41236  -0.41197  -0.40930  -0.40885
 Alpha  occ. eigenvalues --   -0.40664  -0.40596  -0.40372  -0.40154  -0.39294
 Alpha  occ. eigenvalues --   -0.38985  -0.38879  -0.38563  -0.38122  -0.38041
 Alpha  occ. eigenvalues --   -0.37825  -0.37629  -0.37309  -0.36956  -0.36756
 Alpha  occ. eigenvalues --   -0.36414  -0.36408  -0.35926  -0.34757  -0.34114
 Alpha  occ. eigenvalues --   -0.33689  -0.33575  -0.33159  -0.32931  -0.32782
 Alpha  occ. eigenvalues --   -0.32381  -0.32295  -0.31556  -0.30287  -0.29174
 Alpha  occ. eigenvalues --   -0.28880  -0.28792  -0.26198  -0.25248  -0.25043
 Alpha  occ. eigenvalues --   -0.24930  -0.24751  -0.24534  -0.23817  -0.21473
 Alpha  occ. eigenvalues --   -0.17480
 Alpha virt. eigenvalues --   -0.10574  -0.06127  -0.04178  -0.01761  -0.00701
 Alpha virt. eigenvalues --    0.01508   0.02131   0.02191   0.03621   0.03751
 Alpha virt. eigenvalues --    0.03924   0.04074   0.05014   0.05342   0.05945

 Mulliken charges:
               1
     1  O   -0.259509
     2  O   -0.181404
     3  O   -0.183202
     4  O   -0.259298
     5  O   -0.162105
     6  O   -0.242158
     7  N    0.030995
     8  N   -0.121820
     9  N   -0.098390
    10  N   -0.332583
    11  C   -0.081655
    12  C   -0.008509
    13  C   -0.155314
    14  C    0.065152
    15  C   -0.067004
    16  C    0.202118
    17  C   -0.016717
    18  C   -0.150479
    19  C    0.055361
    20  C   -0.053264
    21  C    0.112792
    22  C    0.063583
    23  C   -0.050807
    24  C   -0.007469
    25  C   -0.167750
    26  C   -0.030823
    27  C    0.135031
    28  C   -0.032540
    29  C    0.007890
    30  C    0.158084
    31  C   -0.130490
    32  C    0.148019
    33  C   -0.198877
    34  C    0.060214
    35  C   -0.026361
    36  C   -0.225615
    37  C    0.148452
    38  C   -0.025732
    39  C    0.104690
    40  C    0.082951
    41  C    0.239118
    42  C    0.027969
    43  C   -0.034765
    44  H   -0.004930
    45  H   -0.052071
    46  H    0.043375
    47  H    0.008060
    48  H    0.045722
    49  H    0.035231
    50  H    0.039582
    51  H    0.071145
    52  H    0.151066
    53  H    0.043986
    54  H    0.039988
    55  H    0.038356
    56  H    0.170880
    57  H    0.049521
    58  H    0.059379
    59  H    0.063164
    60  H    0.001742
    61  H    0.022326
    62  H   -0.007914
    63  H    0.034329
    64  H    0.000080
    65  H   -0.039167
    66  H    0.038038
    67  H   -0.010274
    68  H    0.031356
    69  H    0.102614
    70  H    0.029085
    71  H    0.046303
    72  H   -0.041662
    73  H    0.021564
    74  H    0.048407
    75  H    0.030159
    76  H    0.054800
    77  H    0.036545
    78  H    0.022087
    79  H    0.054254
    80  H    0.226772
    81  H    0.158325
 Sum of Mulliken charges =  -0.00000

 Dipole moment (field-independent basis, Debye):
    X=             -2.8236    Y=              1.4985    Z=             -1.3164  Tot=              3.4571
 Quadrupole moment (field-independent basis, Debye-Ang):
   XX=           -250.5363   YY=           -239.7770   ZZ=           -255.0485
   XY=             19.3721   XZ=             11.2019   YZ=            -17.2709

 Normal termination of Gaussian 16 at Tue Jul  2 04:23:17 2019.
