 Gaussian 16, Revision A.03,
 Gaussian 16:  ES64L-G16RevA.03 25-Dec-2016

 --------------------------
 # td=(NStates=1) B3LYP/SVP
 --------------------------

 --
 TD
 --
 Symbolic Z-matrix:
 Charge =  0 Multiplicity = 1

                         Standard orientation:
 ---------------------------------------------------------------------
 Center     Atomic      Atomic             Coordinates (Angstroms)
 Number     Number       Type             X           Y           Z
 ---------------------------------------------------------------------
      1          8           0        4.336887   -4.705192   -2.067859
      2          8           0       -2.626265   -5.075766   -1.060517
      3          8           0       -6.718241   -1.845926   -1.871174
      4          8           0       -3.517938   -3.241461    0.055215
      5          8           0       -7.618382   -0.788453   -0.016488
      6          8           0        2.891463    2.514474    0.454935
      7          7           0        0.357281   -0.441820    0.514344
      8          7           0       -1.582667    1.808388    0.315715
      9          7           0        3.233147   -3.047547   -0.748988
     10          7           0        0.650829    2.939597    0.041066
     11          6           0       -0.485398   -2.412586    1.442684
     12          6           0       -0.884381   -1.070403    0.929130
     13          6           0        0.825046   -2.525576    1.275436
     14          6           0        1.424918   -1.328720    0.754564
     15          6           0       -3.855097    1.464363    0.369043
     16          6           0       -2.485481    0.907823    0.522217
     17          6           0       -2.160614   -0.410105    0.847219
     18          6           0       -3.616424    2.742698   -0.115049
     19          6           0       -1.441842   -3.384711    2.141076
     20          6           0        5.531789   -2.648432   -1.326794
     21          6           0        3.635873   -1.791181   -0.259085
     22          6           0       -2.220080    3.012112    0.004666
     23          6           0        5.034336   -1.428193   -0.591744
     24          6           0       -5.175333    0.683968    0.337216
     25          6           0        2.731443   -0.976968    0.419839
     26          6           0        1.576134   -3.808648    1.708850
     27          6           0        4.331333   -3.603987   -1.428584
     28          6           0       -1.774824   -4.651922    1.222029
     29          6           0       -5.444966   -0.231449   -0.937301
     30          6           0       -4.700151    3.658871   -0.385134
     31          6           0       -1.436927    4.097395   -0.340231
     32          6           0        6.792719   -3.428392   -0.763845
     33          6           0        5.695596   -0.431437   -0.083653
     34          6           0       -0.040519    4.064657   -0.287885
     35          6           0        0.876254    5.262765   -0.512417
     36          6           0        2.151803    4.748032   -0.299296
     37          6           0       -2.815640   -4.222058    0.048615
     38          6           0        5.508664    0.727303    0.745305
     39          6           0       -6.692579   -1.017025   -0.779607
     40          6           0        3.491927    5.362185   -0.290977
     41          6           0        1.982627    3.294364    0.140760
     42          6           0        0.482875    6.662688   -0.813619
     43          6           0        4.006993    5.761024    0.984286
     44          1           0        0.367631    0.499516    0.085062
     45          1           0       -3.139030   -0.934146    1.029856
     46          1           0       -2.346591   -2.813565    2.431694
     47          1           0       -0.721728   -3.625141    2.987034
     48          1           0        5.880837   -2.389534   -2.423233
     49          1           0       -5.396379    0.097357    1.314125
     50          1           0       -5.964350    1.467291    0.463716
     51          1           0        2.773342    0.037775    0.445845
     52          1           0       -0.643146    1.783812    0.585046
     53          1           0        1.383183   -4.727495    0.930799
     54          1           0        2.573785   -3.548721    1.841063
     55          1           0        1.118300   -4.292548    2.701898
     56          1           0        2.308655   -3.444767   -0.773134
     57          1           0       -0.875504   -5.358798    0.820603
     58          1           0       -2.410179   -5.461166    1.641840
     59          1           0       -4.500148   -1.010975   -0.829781
     60          1           0       -5.390110    0.577830   -1.772261
     61          1           0       -5.079053    4.572643    0.315631
     62          1           0       -5.704680    3.200116   -0.062539
     63          1           0       -4.507107    3.970624   -1.495403
     64          1           0       -2.084508    4.877637   -0.780995
     65          1           0        7.762896   -2.800255   -0.530399
     66          1           0        7.012891   -4.193076   -1.372412
     67          1           0        6.657851   -3.886956    0.445936
     68          1           0        6.851668   -0.440298   -0.186438
     69          1           0        4.873800    1.542435    0.461782
     70          1           0        6.371909    1.193950    1.229767
     71          1           0        4.958423    0.364539    1.705647
     72          1           0        3.580733    6.344186   -0.860733
     73          1           0        4.367124    4.528400   -0.670460
     74          1           0       -0.027360    6.718449   -1.863680
     75          1           0        1.266866    7.311791   -0.881974
     76          1           0       -0.185316    7.061871   -0.140820
     77          1           0        3.252100    6.414809    1.557194
     78          1           0        5.048609    6.192787    1.083231
     79          1           0        4.148931    4.775544    1.396934
     80          1           0       -3.406074   -4.887591   -1.513923
     81          1           0       -7.869032   -1.860803   -2.190671
 ---------------------------------------------------------------------

 SCF Done:  E(RB3LYP) =  -1949.04618459     A.U. after   17 cycles

 Excitation energies and oscillator strengths:

 Excited State   1:      Singlet-A      1.7388 eV  713.05 nm  f=0.3980  <S**2>=0.000
     156 ->157         0.71565
     156 <-157        -0.14755
 This state for optimization and/or second-order correction.
 Total Energy, E(TD-HF/TD-DFT) =  -1948.98228496
 Copying the excited state density for this state as the 1-particle RhoCI density.

 The electronic state is 1-A.
 Alpha  occ. eigenvalues --  -19.19354 -19.19127 -19.16137 -19.13984 -19.11252
 Alpha  occ. eigenvalues --  -19.09801 -14.38573 -14.38157 -14.35555 -14.28378
 Alpha  occ. eigenvalues --  -10.34682 -10.32731 -10.30254 -10.25902 -10.25525
 Alpha  occ. eigenvalues --  -10.24179 -10.24174 -10.24159 -10.23329 -10.22782
 Alpha  occ. eigenvalues --  -10.22644 -10.22624 -10.22619 -10.22538 -10.21702
 Alpha  occ. eigenvalues --  -10.21330 -10.21304 -10.21148 -10.20922 -10.20838
 Alpha  occ. eigenvalues --  -10.20535 -10.20408 -10.20390 -10.20099 -10.20013
 Alpha  occ. eigenvalues --  -10.19642 -10.19137 -10.18620 -10.18498 -10.18482
 Alpha  occ. eigenvalues --  -10.18116 -10.17811 -10.16882  -1.10686  -1.07800
 Alpha  occ. eigenvalues --   -1.03284  -1.01253  -1.00208  -0.99805  -0.99796
 Alpha  occ. eigenvalues --   -0.96163  -0.94794  -0.90574  -0.82792  -0.82695
 Alpha  occ. eigenvalues --   -0.82168  -0.81056  -0.79840  -0.79109  -0.76840
 Alpha  occ. eigenvalues --   -0.76703  -0.76280  -0.75995  -0.74771  -0.71904
 Alpha  occ. eigenvalues --   -0.70913  -0.70116  -0.69201  -0.68344  -0.67904
 Alpha  occ. eigenvalues --   -0.66990  -0.65922  -0.65034  -0.62251  -0.60294
 Alpha  occ. eigenvalues --   -0.59672  -0.58739  -0.58550  -0.58050  -0.56821
 Alpha  occ. eigenvalues --   -0.56324  -0.54887  -0.54767  -0.53435  -0.53379
 Alpha  occ. eigenvalues --   -0.52320  -0.51343  -0.50903  -0.50505  -0.49560
 Alpha  occ. eigenvalues --   -0.49427  -0.48786  -0.48315  -0.47736  -0.47392
 Alpha  occ. eigenvalues --   -0.47005  -0.46567  -0.46530  -0.46019  -0.45974
 Alpha  occ. eigenvalues --   -0.45183  -0.45066  -0.44819  -0.44386  -0.43898
 Alpha  occ. eigenvalues --   -0.43721  -0.43249  -0.42688  -0.42582  -0.42292
 Alpha  occ. eigenvalues --   -0.41944  -0.41630  -0.41597  -0.41098  -0.40865
 Alpha  occ. eigenvalues --   -0.40778  -0.40553  -0.40343  -0.40201  -0.39856
 Alpha  occ. eigenvalues --   -0.39020  -0.38844  -0.38532  -0.38148  -0.37984
 Alpha  occ. eigenvalues --   -0.37531  -0.37202  -0.37072  -0.36822  -0.36531
 Alpha  occ. eigenvalues --   -0.36434  -0.36182  -0.35053  -0.34520  -0.34334
 Alpha  occ. eigenvalues --   -0.34121  -0.33559  -0.33265  -0.32846  -0.32297
 Alpha  occ. eigenvalues --   -0.31620  -0.31241  -0.30707  -0.30369  -0.29320
 Alpha  occ. eigenvalues --   -0.28903  -0.27440  -0.26733  -0.26414  -0.26140
 Alpha  occ. eigenvalues --   -0.25812  -0.25339  -0.23788  -0.22837  -0.21716
 Alpha  occ. eigenvalues --   -0.17143
 Alpha virt. eigenvalues --   -0.10498  -0.05840  -0.04189  -0.03733  -0.02335
 Alpha virt. eigenvalues --   -0.01555   0.00010   0.01688   0.02252   0.03117
 Alpha virt. eigenvalues --    0.03934   0.04456   0.05107   0.05377   0.05547

 Mulliken charges:
               1
     1  O   -0.263985
     2  O   -0.181926
     3  O   -0.295817
     4  O   -0.195311
     5  O   -0.221379
     6  O   -0.234391
     7  N   -0.153033
     8  N    0.022807
     9  N   -0.113108
    10  N   -0.313112
    11  C   -0.073770
    12  C    0.077280
    13  C   -0.173286
    14  C    0.085608
    15  C   -0.055922
    16  C   -0.059788
    17  C   -0.034690
    18  C   -0.070445
    19  C    0.120127
    20  C   -0.075972
    21  C    0.072326
    22  C    0.061642
    23  C    0.136098
    24  C    0.016112
    25  C   -0.058235
    26  C    0.024140
    27  C    0.173982
    28  C   -0.047808
    29  C   -0.061911
    30  C   -0.026955
    31  C   -0.125690
    32  C    0.001726
    33  C   -0.203642
    34  C    0.123582
    35  C   -0.113709
    36  C   -0.149624
    37  C    0.148881
    38  C    0.063241
    39  C    0.200517
    40  C    0.018209
    41  C    0.164733
    42  C    0.183983
    43  C   -0.011350
    44  H    0.144830
    45  H    0.009411
    46  H    0.031630
    47  H    0.034919
    48  H    0.066680
    49  H    0.029491
    50  H    0.005041
    51  H   -0.037296
    52  H    0.109919
    53  H    0.046910
    54  H    0.023063
    55  H    0.031416
    56  H    0.142951
    57  H    0.064071
    58  H    0.040928
    59  H    0.092160
    60  H    0.075726
    61  H    0.042487
    62  H    0.013665
    63  H    0.050803
    64  H   -0.025948
    65  H    0.037040
    66  H    0.016316
    67  H    0.022885
    68  H    0.012144
    69  H    0.058271
    70  H    0.001637
    71  H    0.019302
    72  H   -0.002363
    73  H    0.027650
    74  H    0.021809
    75  H   -0.022709
    76  H    0.000363
    77  H    0.012867
    78  H    0.013196
    79  H    0.003911
    80  H    0.148618
    81  H    0.256075
 Sum of Mulliken charges =  -0.00000

 Dipole moment (field-independent basis, Debye):
    X=             -3.3752    Y=             -0.0236    Z=             -0.0238  Tot=              3.3754
 Quadrupole moment (field-independent basis, Debye-Ang):
   XX=           -239.5607   YY=           -245.3947   ZZ=           -256.2611
   XY=             10.3502   XZ=             20.4453   YZ=            -15.3332

 Normal termination of Gaussian 16 at Sun Jun 30 23:51:39 2019.
