 Gaussian 16, Revision A.03,
 Gaussian 16:  ES64L-G16RevA.03 25-Dec-2016

 --------------------------
 # td=(NStates=1) B3LYP/SVP
 --------------------------

 --
 TD
 --
 Symbolic Z-matrix:
 Charge =  0 Multiplicity = 1

                         Standard orientation:
 ---------------------------------------------------------------------
 Center     Atomic      Atomic             Coordinates (Angstroms)
 Number     Number       Type             X           Y           Z
 ---------------------------------------------------------------------
      1          8           0        4.132697   -4.934272   -1.791758
      2          8           0       -3.074093   -5.028833   -0.991073
      3          8           0       -6.930479   -1.539159   -1.716220
      4          8           0       -3.775428   -3.015501   -0.095433
      5          8           0       -7.448531   -0.578961    0.246467
      6          8           0        3.071576    2.462291    0.599393
      7          7           0        0.247821   -0.503847    0.705467
      8          7           0       -1.539225    1.920429    0.307539
      9          7           0        3.310492   -3.103125   -0.619335
     10          7           0        0.798212    2.923059    0.088674
     11          6           0       -0.736428   -2.328565    1.337204
     12          6           0       -0.969586   -0.944189    1.022610
     13          6           0        0.618219   -2.621307    1.195524
     14          6           0        1.280772   -1.418800    0.683440
     15          6           0       -3.866163    1.653941    0.187696
     16          6           0       -2.492473    1.043709    0.430040
     17          6           0       -2.206378   -0.306350    0.902780
     18          6           0       -3.535853    2.958668   -0.227255
     19          6           0       -1.700865   -3.283227    1.964546
     20          6           0        5.516022   -2.891877   -1.364305
     21          6           0        3.629257   -1.797320   -0.139319
     22          6           0       -2.022478    3.035425   -0.180871
     23          6           0        5.054223   -1.639113   -0.489702
     24          6           0       -5.123749    0.875212    0.310645
     25          6           0        2.604784   -1.046151    0.383777
     26          6           0        1.362776   -3.984288    1.583930
     27          6           0        4.327081   -3.865433   -1.311262
     28          6           0       -2.193905   -4.446188    1.116938
     29          6           0       -5.312770   -0.200339   -0.770839
     30          6           0       -4.424509    3.930561   -0.667939
     31          6           0       -1.197717    4.084315   -0.505902
     32          6           0        6.725915   -3.529363   -0.984351
     33          6           0        5.909288   -0.652316   -0.129606
     34          6           0        0.178316    3.992304   -0.282616
     35          6           0        1.143224    5.206274   -0.494958
     36          6           0        2.356894    4.546082   -0.230952
     37          6           0       -3.061250   -4.056805   -0.089467
     38          6           0        5.586340    0.557122    0.742361
     39          6           0       -6.596640   -0.724521   -0.713310
     40          6           0        3.777581    5.145464   -0.178037
     41          6           0        2.178316    3.244542    0.152992
     42          6           0        0.739300    6.483632   -0.979473
     43          6           0        4.020038    5.510468    1.226531
     44          1           0        0.490888    0.379071    0.357638
     45          1           0       -2.884858   -1.029864    1.356828
     46          1           0       -2.703876   -2.900003    2.319298
     47          1           0       -0.994804   -3.686515    2.708683
     48          1           0        5.406945   -2.498239   -2.386551
     49          1           0       -5.184258    0.260636    1.137422
     50          1           0       -5.990803    1.510246    0.109792
     51          1           0        2.781010    0.062891    0.580516
     52          1           0       -0.499679    2.080981    0.381704
     53          1           0        1.001687   -4.846650    0.999524
     54          1           0        2.492098   -3.787552    1.552884
     55          1           0        1.094447   -4.364187    2.616263
     56          1           0        2.337225   -3.410271   -0.610346
     57          1           0       -1.341883   -5.052351    0.500535
     58          1           0       -2.713829   -5.176420    1.792952
     59          1           0       -4.533987   -1.073043   -0.593520
     60          1           0       -4.948712    0.294720   -1.821016
     61          1           0       -4.723712    4.577085    0.296888
     62          1           0       -5.542641    3.441613   -0.994750
     63          1           0       -4.282224    4.545445   -1.557585
     64          1           0       -1.799011    5.126327   -0.687175
     65          1           0        7.526825   -2.780039   -0.929676
     66          1           0        6.911929   -4.462466   -1.442595
     67          1           0        6.772731   -3.617182    0.114706
     68          1           0        6.906829   -0.497682   -0.459923
     69          1           0        4.757830    1.306319    0.106328
     70          1           0        6.364704    1.166930    1.123345
     71          1           0        4.860023    0.394368    1.627840
     72          1           0        3.861947    5.998838   -0.827255
     73          1           0        4.723221    4.481082   -0.412459
     74          1           0        0.200815    6.341714   -1.794794
     75          1           0        1.606252    7.127906   -1.095526
     76          1           0        0.141336    7.063600   -0.252320
     77          1           0        3.410649    6.295500    1.694250
     78          1           0        5.038606    5.963635    1.243218
     79          1           0        4.103696    4.595335    1.948477
     80          1           0       -3.731417   -4.738095   -1.591108
     81          1           0       -7.848546   -1.863230   -1.504990
 ---------------------------------------------------------------------

 SCF Done:  E(RB3LYP) =  -1949.10607627     A.U. after   19 cycles

 Excitation energies and oscillator strengths:

 Excited State   1:      Singlet-A      1.6014 eV  774.22 nm  f=0.2950  <S**2>=0.000
     156 ->157         0.71277
     156 <-157        -0.14222
 This state for optimization and/or second-order correction.
 Total Energy, E(TD-HF/TD-DFT) =  -1949.04722597
 Copying the excited state density for this state as the 1-particle RhoCI density.

 The electronic state is 1-A.
 Alpha  occ. eigenvalues --  -19.21647 -19.18204 -19.14838 -19.12201 -19.11195
 Alpha  occ. eigenvalues --  -19.10056 -14.37270 -14.35858 -14.35645 -14.29251
 Alpha  occ. eigenvalues --  -10.34621 -10.31409 -10.29569 -10.26044 -10.25052
 Alpha  occ. eigenvalues --  -10.24016 -10.23882 -10.23049 -10.22888 -10.22748
 Alpha  occ. eigenvalues --  -10.22494 -10.21223 -10.21201 -10.21199 -10.21058
 Alpha  occ. eigenvalues --  -10.21034 -10.20844 -10.20840 -10.20793 -10.20761
 Alpha  occ. eigenvalues --  -10.20456 -10.20339 -10.20253 -10.19797 -10.19455
 Alpha  occ. eigenvalues --  -10.19202 -10.19147 -10.18786 -10.18755 -10.18608
 Alpha  occ. eigenvalues --  -10.18385 -10.18042 -10.17308  -1.13311  -1.08892
 Alpha  occ. eigenvalues --   -1.05003  -1.01398  -1.01096  -0.99521  -0.99277
 Alpha  occ. eigenvalues --   -0.96309  -0.93676  -0.92724  -0.82838  -0.82579
 Alpha  occ. eigenvalues --   -0.81920  -0.81201  -0.80458  -0.79341  -0.78668
 Alpha  occ. eigenvalues --   -0.77555  -0.77362  -0.76576  -0.74554  -0.72268
 Alpha  occ. eigenvalues --   -0.71138  -0.70586  -0.69713  -0.69228  -0.68514
 Alpha  occ. eigenvalues --   -0.67790  -0.66063  -0.64105  -0.62282  -0.61964
 Alpha  occ. eigenvalues --   -0.60867  -0.59893  -0.58901  -0.57319  -0.56855
 Alpha  occ. eigenvalues --   -0.56117  -0.55527  -0.55145  -0.53938  -0.53424
 Alpha  occ. eigenvalues --   -0.52815  -0.51995  -0.51670  -0.50695  -0.50168
 Alpha  occ. eigenvalues --   -0.49868  -0.49612  -0.48992  -0.48458  -0.47321
 Alpha  occ. eigenvalues --   -0.47277  -0.47124  -0.46556  -0.46015  -0.45705
 Alpha  occ. eigenvalues --   -0.45398  -0.45051  -0.44774  -0.44594  -0.44050
 Alpha  occ. eigenvalues --   -0.43839  -0.43759  -0.43342  -0.42930  -0.42704
 Alpha  occ. eigenvalues --   -0.42223  -0.41965  -0.41629  -0.41447  -0.41210
 Alpha  occ. eigenvalues --   -0.40801  -0.40562  -0.40397  -0.39713  -0.39534
 Alpha  occ. eigenvalues --   -0.39422  -0.38990  -0.38790  -0.38473  -0.38107
 Alpha  occ. eigenvalues --   -0.37734  -0.37446  -0.37079  -0.36736  -0.36322
 Alpha  occ. eigenvalues --   -0.35993  -0.35646  -0.35173  -0.34707  -0.34510
 Alpha  occ. eigenvalues --   -0.34305  -0.34097  -0.33574  -0.33191  -0.32377
 Alpha  occ. eigenvalues --   -0.32245  -0.31680  -0.30191  -0.29912  -0.29304
 Alpha  occ. eigenvalues --   -0.28033  -0.26834  -0.26743  -0.26077  -0.25248
 Alpha  occ. eigenvalues --   -0.24994  -0.24718  -0.24512  -0.23414  -0.21771
 Alpha  occ. eigenvalues --   -0.16882
 Alpha virt. eigenvalues --   -0.10518  -0.06258  -0.04225  -0.03072  -0.01286
 Alpha virt. eigenvalues --    0.00795   0.02432   0.02885   0.03418   0.03906
 Alpha virt. eigenvalues --    0.04484   0.04783   0.05249   0.05861   0.06489

 Mulliken charges:
               1
     1  O   -0.169438
     2  O   -0.106524
     3  O   -0.175068
     4  O   -0.274155
     5  O   -0.324964
     6  O   -0.272870
     7  N   -0.005181
     8  N    0.039834
     9  N   -0.216881
    10  N   -0.288564
    11  C   -0.103043
    12  C   -0.037848
    13  C   -0.154893
    14  C    0.036543
    15  C   -0.058977
    16  C    0.059648
    17  C    0.003239
    18  C   -0.067120
    19  C    0.115896
    20  C   -0.034802
    21  C    0.161189
    22  C   -0.007423
    23  C   -0.005647
    24  C    0.212513
    25  C   -0.153612
    26  C    0.031868
    27  C    0.129672
    28  C   -0.078266
    29  C   -0.135859
    30  C   -0.050915
    31  C   -0.157533
    32  C    0.125817
    33  C   -0.127788
    34  C    0.042930
    35  C   -0.120555
    36  C   -0.143179
    37  C    0.160168
    38  C   -0.060688
    39  C    0.169314
    40  C    0.095558
    41  C    0.175218
    42  C    0.205810
    43  C   -0.030246
    44  H    0.102572
    45  H   -0.017341
    46  H    0.034823
    47  H    0.016091
    48  H    0.040667
    49  H   -0.008566
    50  H    0.005758
    51  H    0.040493
    52  H    0.146088
    53  H    0.029042
    54  H    0.060897
    55  H    0.021882
    56  H    0.129346
    57  H    0.050437
    58  H    0.062072
    59  H    0.110658
    60  H    0.057876
    61  H    0.051249
    62  H    0.026838
    63  H    0.033835
    64  H    0.015770
    65  H   -0.004037
    66  H    0.033506
    67  H   -0.007179
    68  H   -0.010643
    69  H    0.105826
    70  H    0.007832
    71  H    0.041137
    72  H   -0.019619
    73  H    0.024295
    74  H   -0.001316
    75  H    0.004860
    76  H    0.018527
    77  H    0.000709
    78  H   -0.008322
    79  H    0.043334
    80  H    0.164820
    81  H    0.192602
 Sum of Mulliken charges =  -0.00000

 Dipole moment (field-independent basis, Debye):
    X=             -1.2641    Y=              0.2283    Z=             -1.4364  Tot=              1.9270
 Quadrupole moment (field-independent basis, Debye-Ang):
   XX=           -255.9322   YY=           -232.3546   ZZ=           -255.6526
   XY=             15.3857   XZ=             13.6313   YZ=            -13.9261

 Normal termination of Gaussian 16 at Fri Jun 28 08:35:45 2019.
