 Gaussian 16, Revision A.03,
 Gaussian 16:  ES64L-G16RevA.03 25-Dec-2016

 --------------------------
 # td=(NStates=1) B3LYP/SVP
 --------------------------

 --
 TD
 --
 Symbolic Z-matrix:
 Charge =  0 Multiplicity = 1

                         Standard orientation:
 ---------------------------------------------------------------------
 Center     Atomic      Atomic             Coordinates (Angstroms)
 Number     Number       Type             X           Y           Z
 ---------------------------------------------------------------------
      1          8           0        4.197163   -4.878098   -1.853283
      2          8           0       -3.152764   -4.892561   -0.983090
      3          8           0       -7.116045   -1.613443   -1.777169
      4          8           0       -3.877539   -3.116795    0.175553
      5          8           0       -7.637678   -0.370756    0.044942
      6          8           0        3.077198    2.397907    0.153133
      7          7           0        0.289929   -0.533975    0.551651
      8          7           0       -1.574620    1.814494    0.268242
      9          7           0        3.269794   -3.105027   -0.739606
     10          7           0        0.829792    2.905291    0.005647
     11          6           0       -0.561943   -2.354689    1.468026
     12          6           0       -0.869999   -1.088098    0.893069
     13          6           0        0.884363   -2.534678    1.358699
     14          6           0        1.367878   -1.421850    0.640344
     15          6           0       -3.791887    1.524173    0.203002
     16          6           0       -2.469956    0.758142    0.471719
     17          6           0       -2.196579   -0.398682    0.817504
     18          6           0       -3.471330    2.792724   -0.114995
     19          6           0       -1.514652   -3.331573    2.060913
     20          6           0        5.429086   -2.754802   -1.438909
     21          6           0        3.590322   -1.859998   -0.202463
     22          6           0       -2.141520    2.966715   -0.086866
     23          6           0        4.992098   -1.601238   -0.521223
     24          6           0       -5.036768    0.817044    0.270948
     25          6           0        2.683591   -1.074989    0.300173
     26          6           0        1.646462   -3.669572    1.927809
     27          6           0        4.238262   -3.785178   -1.456989
     28          6           0       -2.055291   -4.490320    1.078228
     29          6           0       -5.452809   -0.046262   -0.848792
     30          6           0       -4.627486    3.738851   -0.535807
     31          6           0       -1.212384    4.067671   -0.278353
     32          6           0        6.657168   -3.530648   -0.993266
     33          6           0        5.757335   -0.558538   -0.127153
     34          6           0        0.258065    4.038168   -0.248492
     35          6           0        1.073216    5.140602   -0.337626
     36          6           0        2.408153    4.673195   -0.288723
     37          6           0       -3.111489   -3.968373    0.060449
     38          6           0        5.485595    0.529111    0.846592
     39          6           0       -6.791228   -0.617880   -0.863792
     40          6           0        3.688375    5.289365   -0.258768
     41          6           0        2.256191    3.254366   -0.025952
     42          6           0        0.657255    6.626270   -0.548705
     43          6           0        4.353540    5.349864    1.135563
     44          1           0        0.636202    0.397805    0.232773
     45          1           0       -3.052527   -0.864105    1.291623
     46          1           0       -2.464347   -2.641766    2.365437
     47          1           0       -0.966779   -3.908108    2.896912
     48          1           0        5.447139   -2.400954   -2.398223
     49          1           0       -5.219127    0.260126    1.281609
     50          1           0       -5.914553    1.514722    0.453772
     51          1           0        2.845900   -0.054917    0.223852
     52          1           0       -0.449808    1.918039    0.326507
     53          1           0        1.626670   -4.516245    1.336744
     54          1           0        2.714822   -3.274043    2.092413
     55          1           0        1.303980   -3.964532    3.004569
     56          1           0        2.465139   -3.637837   -0.681387
     57          1           0       -1.336204   -5.012023    0.637190
     58          1           0       -2.765621   -5.116394    1.731382
     59          1           0       -4.816544   -0.923056   -0.892476
     60          1           0       -5.316057    0.383172   -1.883328
     61          1           0       -4.494101    4.600754   -0.053591
     62          1           0       -5.607407    3.355594   -0.270252
     63          1           0       -4.533278    3.974288   -1.476611
     64          1           0       -1.570744    5.014656   -0.727269
     65          1           0        7.568896   -3.087392   -1.116686
     66          1           0        7.027573   -4.522741   -1.571999
     67          1           0        6.476265   -3.962065    0.201255
     68          1           0        6.838701   -0.683137   -0.576226
     69          1           0        5.157571    1.531938    0.376059
     70          1           0        6.299631    0.641621    1.563803
     71          1           0        4.759281    0.283552    1.635159
     72          1           0        3.498990    6.373730   -0.826266
     73          1           0        4.324961    4.769716   -1.250561
     74          1           0       -0.101441    6.675332   -1.448372
     75          1           0        1.416854    7.255808   -0.613509
     76          1           0        0.057266    7.309337    0.274941
     77          1           0        3.798014    6.010412    1.730194
     78          1           0        5.455638    5.742207    0.933287
     79          1           0        4.318004    4.328450    1.466786
     80          1           0       -3.832769   -4.551645   -1.586735
     81          1           0       -7.952923   -1.869164   -1.501971
 ---------------------------------------------------------------------

 SCF Done:  E(RB3LYP) =  -1949.04465049     A.U. after   16 cycles

 Excitation energies and oscillator strengths:

 Excited State   1:      Singlet-A      1.6538 eV  749.70 nm  f=0.2373  <S**2>=0.000
     156 ->157         0.70813
     156 <-157        -0.10138
 This state for optimization and/or second-order correction.
 Total Energy, E(TD-HF/TD-DFT) =  -1948.98387535
 Copying the excited state density for this state as the 1-particle RhoCI density.

 The electronic state is 1-A.
 Alpha  occ. eigenvalues --  -19.18257 -19.17678 -19.14907 -19.12580 -19.11882
 Alpha  occ. eigenvalues --  -19.11467 -14.37251 -14.35478 -14.34915 -14.29176
 Alpha  occ. eigenvalues --  -10.32803 -10.32732 -10.28353 -10.27097 -10.23977
 Alpha  occ. eigenvalues --  -10.23353 -10.23147 -10.22487 -10.22387 -10.22069
 Alpha  occ. eigenvalues --  -10.21975 -10.21917 -10.21436 -10.21390 -10.21206
 Alpha  occ. eigenvalues --  -10.21201 -10.21047 -10.20927 -10.20254 -10.20217
 Alpha  occ. eigenvalues --  -10.19960 -10.19861 -10.19854 -10.19742 -10.19579
 Alpha  occ. eigenvalues --  -10.19523 -10.19479 -10.19437 -10.19109 -10.18692
 Alpha  occ. eigenvalues --  -10.17901 -10.17896 -10.16865  -1.11562  -1.09274
 Alpha  occ. eigenvalues --   -1.06073  -1.03849  -1.02489  -0.98740  -0.98579
 Alpha  occ. eigenvalues --   -0.97840  -0.95574  -0.93678  -0.83665  -0.82748
 Alpha  occ. eigenvalues --   -0.81351  -0.81122  -0.80708  -0.80022  -0.79014
 Alpha  occ. eigenvalues --   -0.76781  -0.76029  -0.75310  -0.74329  -0.72746
 Alpha  occ. eigenvalues --   -0.72406  -0.70304  -0.69741  -0.69328  -0.67696
 Alpha  occ. eigenvalues --   -0.67350  -0.66381  -0.64528  -0.63566  -0.62285
 Alpha  occ. eigenvalues --   -0.60339  -0.59604  -0.59127  -0.57729  -0.56649
 Alpha  occ. eigenvalues --   -0.56102  -0.55821  -0.54421  -0.53681  -0.53212
 Alpha  occ. eigenvalues --   -0.52603  -0.51959  -0.51508  -0.51017  -0.49947
 Alpha  occ. eigenvalues --   -0.49123  -0.48911  -0.48649  -0.48483  -0.48163
 Alpha  occ. eigenvalues --   -0.47599  -0.47243  -0.46210  -0.45901  -0.45757
 Alpha  occ. eigenvalues --   -0.45139  -0.44959  -0.44819  -0.44576  -0.44192
 Alpha  occ. eigenvalues --   -0.43667  -0.43485  -0.42939  -0.42924  -0.42480
 Alpha  occ. eigenvalues --   -0.42205  -0.41969  -0.41805  -0.41697  -0.41366
 Alpha  occ. eigenvalues --   -0.41063  -0.40890  -0.40808  -0.40466  -0.40233
 Alpha  occ. eigenvalues --   -0.39929  -0.39224  -0.39041  -0.38917  -0.38342
 Alpha  occ. eigenvalues --   -0.37969  -0.37862  -0.37703  -0.37608  -0.36728
 Alpha  occ. eigenvalues --   -0.36568  -0.36340  -0.35977  -0.35629  -0.35460
 Alpha  occ. eigenvalues --   -0.34349  -0.33921  -0.33555  -0.32804  -0.32599
 Alpha  occ. eigenvalues --   -0.32413  -0.31885  -0.31759  -0.31172  -0.29788
 Alpha  occ. eigenvalues --   -0.29455  -0.27862  -0.26585  -0.26273  -0.26109
 Alpha  occ. eigenvalues --   -0.25276  -0.24916  -0.23828  -0.23544  -0.20956
 Alpha  occ. eigenvalues --   -0.17830
 Alpha virt. eigenvalues --   -0.10952  -0.06515  -0.03897  -0.01578   0.00105
 Alpha virt. eigenvalues --    0.01909   0.02474   0.03586   0.04219   0.04704
 Alpha virt. eigenvalues --    0.04997   0.05373   0.05601   0.05805   0.06287

 Mulliken charges:
               1
     1  O   -0.146824
     2  O   -0.221326
     3  O   -0.171144
     4  O   -0.151437
     5  O   -0.287822
     6  O   -0.167169
     7  N   -0.070958
     8  N   -0.156434
     9  N   -0.109069
    10  N   -0.319697
    11  C   -0.108476
    12  C    0.072491
    13  C   -0.153210
    14  C    0.033390
    15  C   -0.013250
    16  C    0.105177
    17  C   -0.056421
    18  C   -0.152549
    19  C    0.017914
    20  C    0.000672
    21  C    0.160802
    22  C    0.074864
    23  C   -0.015973
    24  C    0.015791
    25  C   -0.107246
    26  C    0.067066
    27  C    0.075599
    28  C    0.077230
    29  C    0.070520
    30  C    0.282352
    31  C   -0.100534
    32  C    0.002543
    33  C   -0.156674
    34  C    0.055273
    35  C   -0.071131
    36  C   -0.145319
    37  C    0.097071
    38  C    0.060470
    39  C    0.133018
    40  C   -0.078348
    41  C    0.145336
    42  C    0.070512
    43  C    0.058887
    44  H    0.155098
    45  H   -0.009269
    46  H    0.037992
    47  H    0.019146
    48  H    0.006717
    49  H    0.036858
    50  H    0.012425
    51  H   -0.026831
    52  H    0.187265
    53  H    0.011048
    54  H    0.035412
    55  H    0.029576
    56  H    0.093588
    57  H   -0.010790
    58  H    0.055928
    59  H    0.035535
    60  H    0.036278
    61  H   -0.033058
    62  H    0.006654
    63  H   -0.031303
    64  H   -0.034142
    65  H   -0.012505
    66  H    0.031897
    67  H    0.034315
    68  H    0.008019
    69  H    0.081979
    70  H    0.000578
    71  H    0.009238
    72  H    0.013317
    73  H    0.041347
    74  H    0.044605
    75  H   -0.030417
    76  H    0.035059
    77  H    0.013121
    78  H    0.039839
    79  H    0.035846
    80  H    0.170060
    81  H    0.153608
 Sum of Mulliken charges =  -0.00000

 Dipole moment (field-independent basis, Debye):
    X=             -1.5571    Y=              2.8469    Z=             -0.3258  Tot=              3.2612
 Quadrupole moment (field-independent basis, Debye-Ang):
   XX=           -257.0753   YY=           -240.1613   ZZ=           -253.1808
   XY=             15.4163   XZ=             13.6822   YZ=            -12.3249

 Normal termination of Gaussian 16 at Sun Jun 30 02:49:28 2019.
