 Gaussian 16, Revision A.03,
 Gaussian 16:  ES64L-G16RevA.03 25-Dec-2016

 --------------------------
 # td=(NStates=1) B3LYP/SVP
 --------------------------

 --
 TD
 --
 Symbolic Z-matrix:
 Charge =  0 Multiplicity = 1

                         Standard orientation:
 ---------------------------------------------------------------------
 Center     Atomic      Atomic             Coordinates (Angstroms)
 Number     Number       Type             X           Y           Z
 ---------------------------------------------------------------------
      1          8           0        4.636882   -4.895608   -1.621794
      2          8           0       -2.797001   -5.081713   -1.092050
      3          8           0       -6.811648   -1.915827   -1.912755
      4          8           0       -3.650145   -3.328002    0.132452
      5          8           0       -7.582377   -0.919936   -0.004518
      6          8           0        2.944601    2.653904    0.322129
      7          7           0        0.312061   -0.503322    0.482867
      8          7           0       -1.694227    1.803611    0.360197
      9          7           0        3.425511   -3.137178   -0.584099
     10          7           0        0.679045    2.982422    0.115221
     11          6           0       -0.484627   -2.352959    1.386687
     12          6           0       -0.885401   -1.088474    0.886507
     13          6           0        0.899324   -2.530715    1.214731
     14          6           0        1.386314   -1.298547    0.714065
     15          6           0       -3.868827    1.362682    0.263609
     16          6           0       -2.536793    0.784352    0.516431
     17          6           0       -2.200416   -0.484237    0.790893
     18          6           0       -3.723008    2.677701    0.065479
     19          6           0       -1.462483   -3.404476    1.986745
     20          6           0        5.660813   -2.621637   -1.251801
     21          6           0        3.631706   -1.758472   -0.234795
     22          6           0       -2.211489    2.992707   -0.096265
     23          6           0        5.073275   -1.471688   -0.580083
     24          6           0       -5.149431    0.633050    0.243128
     25          6           0        2.653973   -0.924950    0.251486
     26          6           0        1.664968   -3.740412    1.782703
     27          6           0        4.574077   -3.765992   -1.240621
     28          6           0       -1.701357   -4.568422    1.092617
     29          6           0       -5.355446   -0.317041   -0.849736
     30          6           0       -4.736347    3.748597   -0.320191
     31          6           0       -1.554432    4.162800   -0.209817
     32          6           0        6.953245   -3.204258   -0.825801
     33          6           0        5.723506   -0.397837   -0.144617
     34          6           0       -0.043987    4.046315   -0.111503
     35          6           0        0.758501    5.247647   -0.414855
     36          6           0        2.056358    4.767705   -0.369406
     37          6           0       -2.872437   -4.237786    0.014124
     38          6           0        5.357675    0.779758    0.559733
     39          6           0       -6.706902   -1.002221   -0.896655
     40          6           0        3.496373    5.437483   -0.407638
     41          6           0        1.998788    3.390184    0.064530
     42          6           0        0.316626    6.670508   -0.735957
     43          6           0        4.016235    5.758996    0.981028
     44          1           0        0.332285    0.442446    0.163767
     45          1           0       -2.965413   -1.229887    0.903635
     46          1           0       -2.293188   -2.925862    2.333469
     47          1           0       -1.049136   -3.789398    2.977619
     48          1           0        5.359213   -2.360233   -2.353468
     49          1           0       -5.066142    0.020078    1.189722
     50          1           0       -6.057552    1.360517    0.397070
     51          1           0        2.924014    0.223786    0.283593
     52          1           0       -0.680074    1.804512    0.627505
     53          1           0        1.816553   -4.632654    1.097641
     54          1           0        2.628365   -3.201805    2.177867
     55          1           0        1.163497   -3.953995    2.690273
     56          1           0        2.583863   -3.614165   -0.342694
     57          1           0       -0.686701   -4.881910    0.630084
     58          1           0       -2.235057   -5.483207    1.588474
     59          1           0       -4.606889   -0.992215   -1.028199
     60          1           0       -5.157507    0.352760   -1.951749
     61          1           0       -4.349719    4.911414    0.243633
     62          1           0       -5.790172    3.638280    0.210285
     63          1           0       -4.952428    3.806691   -1.504800
     64          1           0       -1.902610    5.185181   -0.501485
     65          1           0        7.779996   -2.540555   -1.135373
     66          1           0        7.081376   -4.112743   -1.403756
     67          1           0        6.893446   -3.358755    0.432765
     68          1           0        6.850238   -0.371047   -0.333873
     69          1           0        4.860533    1.662526    0.018371
     70          1           0        6.203619    1.128126    0.994948
     71          1           0        4.667577    0.477844    1.572602
     72          1           0        3.533326    6.349105   -1.013380
     73          1           0        4.301450    4.768877   -0.920061
     74          1           0       -0.245924    6.526277   -1.659538
     75          1           0        1.068594    7.446290   -0.719084
     76          1           0       -0.193852    6.950769    0.145606
     77          1           0        3.266288    6.496564    1.415907
     78          1           0        4.945910    6.232173    0.815327
     79          1           0        3.990293    4.906419    1.484075
     80          1           0       -3.659906   -4.802046   -1.570422
     81          1           0       -7.707658   -2.303607   -1.911906
 ---------------------------------------------------------------------

 SCF Done:  E(RB3LYP) =  -1949.11948115     A.U. after   16 cycles

 Excitation energies and oscillator strengths:

 Excited State   1:      Singlet-A      1.6189 eV  765.85 nm  f=0.2226  <S**2>=0.000
     156 ->157         0.70757
     156 <-157        -0.10759
 This state for optimization and/or second-order correction.
 Total Energy, E(TD-HF/TD-DFT) =  -1949.05998735
 Copying the excited state density for this state as the 1-particle RhoCI density.

 The electronic state is 1-A.
 Alpha  occ. eigenvalues --  -19.19682 -19.18583 -19.15336 -19.12863 -19.12248
 Alpha  occ. eigenvalues --  -19.11491 -14.36904 -14.36460 -14.35725 -14.29816
 Alpha  occ. eigenvalues --  -10.33858 -10.32937 -10.29706 -10.26815 -10.24773
 Alpha  occ. eigenvalues --  -10.24373 -10.23966 -10.23467 -10.23077 -10.22917
 Alpha  occ. eigenvalues --  -10.22519 -10.22469 -10.21862 -10.20880 -10.20842
 Alpha  occ. eigenvalues --  -10.20652 -10.20571 -10.20500 -10.20394 -10.20252
 Alpha  occ. eigenvalues --  -10.20235 -10.20145 -10.20043 -10.19876 -10.19594
 Alpha  occ. eigenvalues --  -10.19230 -10.19226 -10.19176 -10.18842 -10.18724
 Alpha  occ. eigenvalues --  -10.18442 -10.17403 -10.16745  -1.09864  -1.08452
 Alpha  occ. eigenvalues --   -1.04426  -1.02567  -1.01934  -0.99198  -0.98965
 Alpha  occ. eigenvalues --   -0.97798  -0.93843  -0.92859  -0.83089  -0.82087
 Alpha  occ. eigenvalues --   -0.81569  -0.81318  -0.79764  -0.78818  -0.77680
 Alpha  occ. eigenvalues --   -0.77043  -0.76748  -0.76029  -0.74620  -0.71887
 Alpha  occ. eigenvalues --   -0.70572  -0.70128  -0.69751  -0.68140  -0.67116
 Alpha  occ. eigenvalues --   -0.66600  -0.65717  -0.64312  -0.62198  -0.61106
 Alpha  occ. eigenvalues --   -0.59940  -0.59219  -0.58430  -0.56893  -0.56583
 Alpha  occ. eigenvalues --   -0.55947  -0.55291  -0.54546  -0.53834  -0.53480
 Alpha  occ. eigenvalues --   -0.51995  -0.51706  -0.50767  -0.50359  -0.50242
 Alpha  occ. eigenvalues --   -0.49429  -0.48306  -0.48203  -0.47775  -0.47655
 Alpha  occ. eigenvalues --   -0.47405  -0.46923  -0.46397  -0.46120  -0.45766
 Alpha  occ. eigenvalues --   -0.45131  -0.44904  -0.44420  -0.44276  -0.43947
 Alpha  occ. eigenvalues --   -0.43118  -0.43039  -0.42863  -0.42720  -0.42336
 Alpha  occ. eigenvalues --   -0.42155  -0.41945  -0.41375  -0.41159  -0.41003
 Alpha  occ. eigenvalues --   -0.40942  -0.40693  -0.40279  -0.40174  -0.40124
 Alpha  occ. eigenvalues --   -0.39882  -0.39377  -0.39084  -0.38224  -0.38062
 Alpha  occ. eigenvalues --   -0.37617  -0.37260  -0.37057  -0.36673  -0.36459
 Alpha  occ. eigenvalues --   -0.36080  -0.35215  -0.34935  -0.34642  -0.34449
 Alpha  occ. eigenvalues --   -0.34353  -0.33968  -0.33741  -0.33619  -0.32954
 Alpha  occ. eigenvalues --   -0.32697  -0.31898  -0.31032  -0.30344  -0.29669
 Alpha  occ. eigenvalues --   -0.28663  -0.28094  -0.26813  -0.26343  -0.25829
 Alpha  occ. eigenvalues --   -0.25246  -0.24891  -0.24636  -0.24085  -0.21911
 Alpha  occ. eigenvalues --   -0.17396
 Alpha virt. eigenvalues --   -0.10734  -0.05917  -0.03116  -0.01917  -0.01153
 Alpha virt. eigenvalues --    0.01477   0.02407   0.02664   0.03281   0.03622
 Alpha virt. eigenvalues --    0.04141   0.04464   0.04721   0.05448   0.06274

 Mulliken charges:
               1
     1  O   -0.174656
     2  O   -0.224989
     3  O   -0.200520
     4  O   -0.208445
     5  O   -0.260031
     6  O   -0.200025
     7  N   -0.046298
     8  N   -0.083426
     9  N   -0.192498
    10  N   -0.244937
    11  C   -0.119039
    12  C    0.002414
    13  C   -0.216366
    14  C    0.087922
    15  C   -0.064481
    16  C    0.111875
    17  C   -0.066885
    18  C   -0.117579
    19  C    0.158278
    20  C   -0.042938
    21  C    0.079409
    22  C    0.169882
    23  C    0.013143
    24  C    0.118569
    25  C   -0.133044
    26  C    0.068530
    27  C    0.126688
    28  C   -0.021422
    29  C   -0.024370
    30  C   -0.069911
    31  C   -0.129880
    32  C    0.068988
    33  C   -0.219169
    34  C    0.005550
    35  C   -0.171838
    36  C   -0.155619
    37  C    0.147513
    38  C    0.063775
    39  C    0.183275
    40  C    0.021307
    41  C    0.142931
    42  C    0.159020
    43  C    0.089465
    44  H    0.103160
    45  H   -0.008388
    46  H   -0.029838
    47  H    0.004911
    48  H    0.051431
    49  H    0.021952
    50  H    0.034148
    51  H    0.060261
    52  H    0.150132
    53  H    0.055718
    54  H    0.045228
    55  H    0.001234
    56  H    0.106783
    57  H    0.056576
    58  H    0.051794
    59  H    0.013433
    60  H    0.039653
    61  H    0.043331
    62  H    0.044957
    63  H    0.067856
    64  H    0.005379
    65  H    0.021075
    66  H    0.030317
    67  H    0.052401
    68  H   -0.007088
    69  H    0.088450
    70  H   -0.029837
    71  H    0.034957
    72  H   -0.013997
    73  H    0.017096
    74  H    0.047543
    75  H    0.009259
    76  H    0.012343
    77  H    0.000439
    78  H    0.006969
    79  H   -0.007630
    80  H    0.199633
    81  H    0.188191
 Sum of Mulliken charges =  -0.00000

 Dipole moment (field-independent basis, Debye):
    X=             -2.0921    Y=              2.1578    Z=             -0.7803  Tot=              3.1051
 Quadrupole moment (field-independent basis, Debye-Ang):
   XX=           -255.5870   YY=           -235.5956   ZZ=           -253.6435
   XY=             17.4197   XZ=             15.8121   YZ=            -11.2049

 Normal termination of Gaussian 16 at Sat Jun 29 17:17:06 2019.
