 Gaussian 16, Revision A.03,
 Gaussian 16:  ES64L-G16RevA.03 25-Dec-2016

 --------------------------
 # td=(NStates=1) B3LYP/SVP
 --------------------------

 --
 TD
 --
 Symbolic Z-matrix:
 Charge =  0 Multiplicity = 1

                         Standard orientation:
 ---------------------------------------------------------------------
 Center     Atomic      Atomic             Coordinates (Angstroms)
 Number     Number       Type             X           Y           Z
 ---------------------------------------------------------------------
      1          8           0        4.183605   -5.017651   -1.809563
      2          8           0       -3.179563   -4.728254   -1.213954
      3          8           0       -7.007468   -1.521849   -1.799356
      4          8           0       -3.992998   -3.089214    0.145017
      5          8           0       -7.478063   -0.464526    0.113226
      6          8           0        3.117677    2.354931    0.439827
      7          7           0        0.195147   -0.496191    0.647947
      8          7           0       -1.482502    1.949782    0.441284
      9          7           0        3.174151   -3.266544   -0.581370
     10          7           0        0.915672    2.907131    0.156588
     11          6           0       -0.707062   -2.349544    1.404438
     12          6           0       -1.077530   -1.023549    1.025495
     13          6           0        0.661775   -2.634926    1.249894
     14          6           0        1.259826   -1.452293    0.795771
     15          6           0       -3.762369    1.649917    0.175827
     16          6           0       -2.532149    0.944073    0.535772
     17          6           0       -2.317089   -0.384326    0.920320
     18          6           0       -3.411711    2.960042   -0.103965
     19          6           0       -1.697841   -3.403825    1.945481
     20          6           0        5.407605   -2.941831   -1.342165
     21          6           0        3.571818   -1.968810   -0.212806
     22          6           0       -2.020665    3.254265   -0.001081
     23          6           0        4.919912   -1.697013   -0.583891
     24          6           0       -5.093534    1.011984    0.335617
     25          6           0        2.662546   -1.083927    0.363204
     26          6           0        1.303316   -3.823122    1.859400
     27          6           0        4.173526   -3.916729   -1.279552
     28          6           0       -2.073098   -4.569886    0.909555
     29          6           0       -5.428744    0.083682   -0.954671
     30          6           0       -4.390011    4.001799   -0.448318
     31          6           0       -1.108510    4.206719   -0.341780
     32          6           0        6.728039   -3.632888   -0.929744
     33          6           0        5.778489   -0.734054   -0.100738
     34          6           0        0.367078    4.093751   -0.191994
     35          6           0        1.254332    5.147724   -0.524176
     36          6           0        2.426615    4.600256   -0.320144
     37          6           0       -3.212927   -4.022546   -0.077718
     38          6           0        5.548824    0.431980    0.775967
     39          6           0       -6.762926   -0.584109   -0.837866
     40          6           0        3.894078    5.124832   -0.392645
     41          6           0        2.245622    3.152746    0.152246
     42          6           0        0.889731    6.518630   -0.845533
     43          6           0        4.431345    5.491075    1.032949
     44          1           0        0.398071    0.354114    0.198782
     45          1           0       -3.190386   -1.118597    1.026442
     46          1           0       -2.576192   -2.936981    2.289534
     47          1           0       -1.259942   -3.957105    2.728187
     48          1           0        5.072301   -2.557514   -2.533746
     49          1           0       -5.123410    0.331256    1.263509
     50          1           0       -5.887063    1.785526    0.554429
     51          1           0        3.047744   -0.319215    0.328429
     52          1           0       -0.523035    1.755378    0.588864
     53          1           0        1.222581   -4.491974    1.154196
     54          1           0        2.412535   -3.652936    1.987313
     55          1           0        0.798393   -4.081308    2.731474
     56          1           0        2.211426   -3.484459   -0.578979
     57          1           0       -1.294475   -5.149372    0.523769
     58          1           0       -2.839802   -5.363064    1.462263
     59          1           0       -4.579505   -0.829215   -1.126303
     60          1           0       -5.534395    0.890842   -1.785422
     61          1           0       -4.203425    4.900763    0.006047
     62          1           0       -5.468895    3.901826   -0.126169
     63          1           0       -4.312247    4.003031   -1.647742
     64          1           0       -1.603455    5.018110   -0.649499
     65          1           0        7.657407   -3.163334   -1.413354
     66          1           0        6.752607   -4.710208   -1.168171
     67          1           0        6.647657   -3.644833    0.207468
     68          1           0        6.680369   -0.779751   -0.550574
     69          1           0        4.947210    1.317989    0.313440
     70          1           0        6.467879    0.909347    1.012870
     71          1           0        4.893498    0.352200    1.649816
     72          1           0        3.937844    6.219863   -0.898268
     73          1           0        4.617613    4.262744   -0.852593
     74          1           0        0.040463    6.624256   -1.691707
     75          1           0        1.718134    7.085048   -1.273954
     76          1           0        0.367311    7.264023    0.016171
     77          1           0        3.839294    6.223562    1.634089
     78          1           0        5.293787    5.957840    0.949338
     79          1           0        4.460626    4.465063    1.565342
     80          1           0       -3.687236   -4.148679   -1.769882
     81          1           0       -7.733954   -1.861564   -1.737025
 ---------------------------------------------------------------------

 SCF Done:  E(RB3LYP) =  -1949.01171759     A.U. after   17 cycles

 Excitation energies and oscillator strengths:

 Excited State   1:      Singlet-A      1.6461 eV  753.19 nm  f=0.2903  <S**2>=0.000
     156 ->157         0.70796
     156 <-157        -0.13198
 This state for optimization and/or second-order correction.
 Total Energy, E(TD-HF/TD-DFT) =  -1948.95122350
 Copying the excited state density for this state as the 1-particle RhoCI density.

 The electronic state is 1-A.
 Alpha  occ. eigenvalues --  -19.20431 -19.16549 -19.15185 -19.12660 -19.10917
 Alpha  occ. eigenvalues --  -19.10811 -14.37180 -14.36904 -14.34643 -14.28911
 Alpha  occ. eigenvalues --  -10.34555 -10.32130 -10.29332 -10.26402 -10.24552
 Alpha  occ. eigenvalues --  -10.24333 -10.24045 -10.23934 -10.23646 -10.23527
 Alpha  occ. eigenvalues --  -10.23318 -10.22997 -10.22331 -10.21730 -10.21589
 Alpha  occ. eigenvalues --  -10.21441 -10.21386 -10.20671 -10.20504 -10.20440
 Alpha  occ. eigenvalues --  -10.20239 -10.20054 -10.20044 -10.19891 -10.19434
 Alpha  occ. eigenvalues --  -10.19401 -10.19307 -10.19290 -10.18723 -10.18330
 Alpha  occ. eigenvalues --  -10.17638 -10.17524 -10.17359  -1.12358  -1.11728
 Alpha  occ. eigenvalues --   -1.02787  -1.02428  -1.02341  -1.02170  -0.96169
 Alpha  occ. eigenvalues --   -0.95533  -0.94271  -0.92940  -0.82134  -0.81750
 Alpha  occ. eigenvalues --   -0.81473  -0.81069  -0.80294  -0.79002  -0.77275
 Alpha  occ. eigenvalues --   -0.76863  -0.76381  -0.74941  -0.74596  -0.72741
 Alpha  occ. eigenvalues --   -0.72102  -0.70200  -0.69391  -0.68912  -0.68420
 Alpha  occ. eigenvalues --   -0.67512  -0.65750  -0.65186  -0.62933  -0.62222
 Alpha  occ. eigenvalues --   -0.61064  -0.60425  -0.59897  -0.58105  -0.56906
 Alpha  occ. eigenvalues --   -0.56261  -0.54949  -0.54785  -0.54034  -0.53418
 Alpha  occ. eigenvalues --   -0.52381  -0.51673  -0.51240  -0.50991  -0.49639
 Alpha  occ. eigenvalues --   -0.49282  -0.48694  -0.48127  -0.48019  -0.47533
 Alpha  occ. eigenvalues --   -0.47320  -0.46940  -0.46574  -0.46397  -0.45484
 Alpha  occ. eigenvalues --   -0.45052  -0.44953  -0.44708  -0.44592  -0.44033
 Alpha  occ. eigenvalues --   -0.43417  -0.43227  -0.42541  -0.42216  -0.42001
 Alpha  occ. eigenvalues --   -0.41888  -0.41519  -0.41460  -0.41286  -0.40916
 Alpha  occ. eigenvalues --   -0.40518  -0.40448  -0.40219  -0.39905  -0.39612
 Alpha  occ. eigenvalues --   -0.39293  -0.38912  -0.38462  -0.38386  -0.37962
 Alpha  occ. eigenvalues --   -0.37595  -0.37492  -0.37425  -0.37021  -0.36947
 Alpha  occ. eigenvalues --   -0.36332  -0.36140  -0.36022  -0.35836  -0.35066
 Alpha  occ. eigenvalues --   -0.34802  -0.34523  -0.34093  -0.33700  -0.33100
 Alpha  occ. eigenvalues --   -0.32931  -0.32634  -0.32350  -0.30294  -0.30036
 Alpha  occ. eigenvalues --   -0.28621  -0.28088  -0.26609  -0.26010  -0.25083
 Alpha  occ. eigenvalues --   -0.25037  -0.24572  -0.24418  -0.23711  -0.21701
 Alpha  occ. eigenvalues --   -0.17677
 Alpha virt. eigenvalues --   -0.11136  -0.06374  -0.04551  -0.01973  -0.00162
 Alpha virt. eigenvalues --    0.00585   0.01443   0.03081   0.03363   0.04230
 Alpha virt. eigenvalues --    0.04475   0.04788   0.05273   0.05826   0.06456

 Mulliken charges:
               1
     1  O   -0.219639
     2  O   -0.134731
     3  O   -0.093885
     4  O   -0.251207
     5  O   -0.206027
     6  O   -0.196223
     7  N   -0.144103
     8  N   -0.196314
     9  N   -0.090293
    10  N   -0.244752
    11  C   -0.121866
    12  C    0.098452
    13  C   -0.228538
    14  C    0.101334
    15  C   -0.026851
    16  C    0.096361
    17  C   -0.071789
    18  C   -0.122585
    19  C    0.170774
    20  C   -0.120414
    21  C   -0.038212
    22  C    0.149980
    23  C   -0.004582
    24  C    0.049376
    25  C    0.289256
    26  C    0.232361
    27  C    0.113043
    28  C   -0.032019
    29  C   -0.084816
    30  C    0.056980
    31  C   -0.055497
    32  C    0.049600
    33  C   -0.066164
    34  C    0.092464
    35  C   -0.024087
    36  C   -0.160122
    37  C    0.142807
    38  C    0.065630
    39  C    0.130561
    40  C   -0.023179
    41  C    0.141475
    42  C    0.001431
    43  C    0.020315
    44  H    0.111369
    45  H    0.045206
    46  H   -0.003204
    47  H   -0.018912
    48  H    0.066903
    49  H    0.040335
    50  H    0.024491
    51  H   -0.329354
    52  H    0.102144
    53  H   -0.042110
    54  H    0.031378
    55  H    0.011463
    56  H    0.117917
    57  H    0.019047
    58  H    0.057308
    59  H    0.097045
    60  H    0.053850
    61  H    0.003401
    62  H    0.018553
    63  H    0.048400
    64  H   -0.098876
    65  H    0.044435
    66  H    0.037821
    67  H    0.031066
    68  H   -0.045240
    69  H    0.076480
    70  H   -0.007902
    71  H    0.025711
    72  H    0.013737
    73  H    0.053330
    74  H    0.029312
    75  H    0.015216
    76  H    0.051708
    77  H    0.010234
    78  H   -0.020554
    79  H    0.041718
    80  H    0.165477
    81  H    0.076793
 Sum of Mulliken charges =  -0.00000

 Dipole moment (field-independent basis, Debye):
    X=             -2.2168    Y=              1.6694    Z=             -1.0011  Tot=              2.9501
 Quadrupole moment (field-independent basis, Debye-Ang):
   XX=           -251.0935   YY=           -238.7187   ZZ=           -256.3682
   XY=             12.7430   XZ=             15.0970   YZ=            -14.1096

 Normal termination of Gaussian 16 at Sun Jun 30 10:18:52 2019.
