 Gaussian 16, Revision A.03,
 Gaussian 16:  ES64L-G16RevA.03 25-Dec-2016

 --------------------------
 # td=(NStates=1) B3LYP/SVP
 --------------------------

 --
 TD
 --
 Symbolic Z-matrix:
 Charge =  0 Multiplicity = 1

                         Standard orientation:
 ---------------------------------------------------------------------
 Center     Atomic      Atomic             Coordinates (Angstroms)
 Number     Number       Type             X           Y           Z
 ---------------------------------------------------------------------
      1          8           0        4.327819   -4.925159   -1.714043
      2          8           0       -3.232467   -5.090102   -1.014763
      3          8           0       -6.924096   -1.511298   -2.015761
      4          8           0       -3.869762   -3.143117    0.261811
      5          8           0       -7.544524   -0.674043   -0.043878
      6          8           0        3.000447    2.364388    0.343563
      7          7           0        0.270087   -0.479505    0.612381
      8          7           0       -1.573309    1.961820    0.426144
      9          7           0        3.319897   -3.106340   -0.683251
     10          7           0        0.744456    2.872222   -0.011654
     11          6           0       -0.610859   -2.361216    1.470648
     12          6           0       -0.948304   -1.001151    1.017689
     13          6           0        0.755705   -2.529033    1.277957
     14          6           0        1.332481   -1.382670    0.639595
     15          6           0       -3.800626    1.554280    0.288658
     16          6           0       -2.514060    0.908683    0.628103
     17          6           0       -2.257694   -0.347203    0.945914
     18          6           0       -3.542197    2.923380   -0.105124
     19          6           0       -1.588277   -3.357521    1.968554
     20          6           0        5.507648   -2.809740   -1.444073
     21          6           0        3.596342   -1.831538   -0.205731
     22          6           0       -2.152941    3.075747   -0.002470
     23          6           0        4.988079   -1.593908   -0.621374
     24          6           0       -5.118375    0.886563    0.337121
     25          6           0        2.647353   -1.041832    0.271371
     26          6           0        1.475282   -3.732975    1.937768
     27          6           0        4.346524   -3.828057   -1.298098
     28          6           0       -1.919675   -4.494805    0.914278
     29          6           0       -5.212027   -0.217534   -0.786316
     30          6           0       -4.538309    3.903078   -0.443829
     31          6           0       -1.307771    4.099622   -0.460962
     32          6           0        6.760971   -3.571795   -0.827443
     33          6           0        5.835351   -0.605156   -0.208295
     34          6           0        0.118090    4.016629   -0.308733
     35          6           0        1.080357    5.184723   -0.409224
     36          6           0        2.317539    4.647467   -0.157191
     37          6           0       -3.088269   -4.137719   -0.012440
     38          6           0        5.502737    0.597926    0.598324
     39          6           0       -6.717082   -0.725657   -0.879918
     40          6           0        3.686963    5.292813   -0.290367
     41          6           0        2.130947    3.232665    0.086672
     42          6           0        0.656309    6.557083   -0.810092
     43          6           0        4.255010    5.559263    1.107399
     44          1           0        0.139397    0.527989   -0.010055
     45          1           0       -3.039257   -1.001964    1.181995
     46          1           0       -2.554422   -3.054091    2.249036
     47          1           0       -1.383764   -3.916740    3.056281
     48          1           0        5.655522   -2.594768   -2.551450
     49          1           0       -4.842928    0.188063    1.258383
     50          1           0       -6.012050    1.503529    0.294024
     51          1           0        2.959872    0.087297    0.107157
     52          1           0       -0.430608    2.099740    0.339950
     53          1           0        1.550090   -4.745657    1.321109
     54          1           0        2.626659   -3.546272    2.012692
     55          1           0        1.008244   -4.073838    2.981090
     56          1           0        2.363621   -3.488880   -0.775529
     57          1           0       -1.052706   -4.805339    0.274383
     58          1           0       -2.223881   -5.479775    1.382273
     59          1           0       -4.717564   -1.126466   -0.465406
     60          1           0       -4.642402    0.179240   -1.746929
     61          1           0       -4.671084    4.914275    0.445415
     62          1           0       -5.552935    3.304159   -0.582610
     63          1           0       -4.253801    4.292555   -1.415687
     64          1           0       -1.646245    5.120765   -0.995637
     65          1           0        7.658187   -3.106287   -1.196248
     66          1           0        6.870589   -4.658441   -1.044291
     67          1           0        6.694611   -3.519774    0.354487
     68          1           0        6.875666   -0.653313   -0.511752
     69          1           0        4.740058    1.495180    0.250739
     70          1           0        6.493353    1.339633    1.018872
     71          1           0        4.968821    0.296584    1.506336
     72          1           0        3.442836    6.322893   -0.577835
     73          1           0        4.516896    4.826597   -0.745079
     74          1           0        0.182384    6.585077   -1.787257
     75          1           0        1.435424    7.318712   -0.803752
     76          1           0        0.044731    7.043070    0.137816
     77          1           0        3.715376    6.169152    1.635497
     78          1           0        5.242486    5.915905    0.887005
     79          1           0        4.300209    4.674790    1.693197
     80          1           0       -4.100182   -4.747696   -1.655970
     81          1           0       -7.811794   -1.811119   -1.773241
 ---------------------------------------------------------------------

 SCF Done:  E(RB3LYP) =  -1949.07927098     A.U. after   16 cycles

 Excitation energies and oscillator strengths:

 Excited State   1:      Singlet-A      1.6711 eV  741.92 nm  f=0.2672  <S**2>=0.000
     156 ->157         0.70856
     156 <-157        -0.10762
 This state for optimization and/or second-order correction.
 Total Energy, E(TD-HF/TD-DFT) =  -1949.01785851
 Copying the excited state density for this state as the 1-particle RhoCI density.

 The electronic state is 1-A.
 Alpha  occ. eigenvalues --  -19.21828 -19.17446 -19.15058 -19.14102 -19.11379
 Alpha  occ. eigenvalues --  -19.11148 -14.38362 -14.36337 -14.34207 -14.30525
 Alpha  occ. eigenvalues --  -10.34982 -10.32527 -10.28646 -10.27732 -10.24098
 Alpha  occ. eigenvalues --  -10.23911 -10.23519 -10.23438 -10.23253 -10.23217
 Alpha  occ. eigenvalues --  -10.22650 -10.21864 -10.21645 -10.21591 -10.21497
 Alpha  occ. eigenvalues --  -10.21484 -10.21350 -10.21255 -10.21144 -10.21115
 Alpha  occ. eigenvalues --  -10.20894 -10.20077 -10.20067 -10.20015 -10.19951
 Alpha  occ. eigenvalues --  -10.19920 -10.19850 -10.19479 -10.19249 -10.19027
 Alpha  occ. eigenvalues --  -10.18982 -10.18609 -10.15828  -1.10476  -1.07440
 Alpha  occ. eigenvalues --   -1.05373  -1.01285  -1.00802  -0.99309  -0.97480
 Alpha  occ. eigenvalues --   -0.96503  -0.95244  -0.92330  -0.82641  -0.81214
 Alpha  occ. eigenvalues --   -0.81031  -0.80828  -0.80302  -0.79041  -0.76860
 Alpha  occ. eigenvalues --   -0.76592  -0.76408  -0.75402  -0.73920  -0.71962
 Alpha  occ. eigenvalues --   -0.70424  -0.69944  -0.68507  -0.66974  -0.66870
 Alpha  occ. eigenvalues --   -0.66377  -0.65152  -0.63172  -0.62509  -0.61455
 Alpha  occ. eigenvalues --   -0.59384  -0.58529  -0.57935  -0.57413  -0.56657
 Alpha  occ. eigenvalues --   -0.55593  -0.54971  -0.54528  -0.53461  -0.53007
 Alpha  occ. eigenvalues --   -0.52599  -0.51236  -0.50556  -0.50154  -0.49536
 Alpha  occ. eigenvalues --   -0.48892  -0.48768  -0.48403  -0.47984  -0.47579
 Alpha  occ. eigenvalues --   -0.47262  -0.46949  -0.46266  -0.45405  -0.45289
 Alpha  occ. eigenvalues --   -0.44857  -0.44416  -0.44247  -0.44019  -0.43736
 Alpha  occ. eigenvalues --   -0.43474  -0.43182  -0.42971  -0.42409  -0.42012
 Alpha  occ. eigenvalues --   -0.41673  -0.41519  -0.41421  -0.41241  -0.40595
 Alpha  occ. eigenvalues --   -0.40388  -0.39682  -0.39549  -0.39311  -0.39036
 Alpha  occ. eigenvalues --   -0.38639  -0.38130  -0.37923  -0.37847  -0.37706
 Alpha  occ. eigenvalues --   -0.37557  -0.37231  -0.37108  -0.36906  -0.36579
 Alpha  occ. eigenvalues --   -0.36208  -0.35980  -0.35708  -0.35597  -0.34958
 Alpha  occ. eigenvalues --   -0.34389  -0.33809  -0.33644  -0.33287  -0.33229
 Alpha  occ. eigenvalues --   -0.32899  -0.32828  -0.31815  -0.30558  -0.29703
 Alpha  occ. eigenvalues --   -0.29281  -0.29112  -0.26380  -0.26120  -0.25519
 Alpha  occ. eigenvalues --   -0.24992  -0.24796  -0.24452  -0.23572  -0.21617
 Alpha  occ. eigenvalues --   -0.17653
 Alpha virt. eigenvalues --   -0.10715  -0.06647  -0.04151  -0.03615  -0.01045
 Alpha virt. eigenvalues --    0.00184   0.00512   0.01732   0.02459   0.03017
 Alpha virt. eigenvalues --    0.03630   0.04292   0.04674   0.05515   0.05829

 Mulliken charges:
               1
     1  O   -0.161219
     2  O   -0.267189
     3  O   -0.214990
     4  O   -0.292357
     5  O   -0.190892
     6  O   -0.240212
     7  N   -0.156458
     8  N   -0.191094
     9  N   -0.157461
    10  N   -0.308404
    11  C   -0.029618
    12  C   -0.002415
    13  C   -0.127223
    14  C    0.113413
    15  C   -0.092045
    16  C    0.190280
    17  C   -0.032811
    18  C   -0.115634
    19  C    0.064563
    20  C   -0.094163
    21  C    0.125184
    22  C    0.115664
    23  C   -0.029031
    24  C    0.076535
    25  C   -0.155658
    26  C   -0.022523
    27  C    0.110097
    28  C   -0.026787
    29  C   -0.059480
    30  C    0.015050
    31  C   -0.144470
    32  C    0.010684
    33  C   -0.057808
    34  C    0.015792
    35  C   -0.078506
    36  C   -0.169585
    37  C    0.213701
    38  C   -0.092947
    39  C    0.140578
    40  C    0.134046
    41  C    0.195948
    42  C    0.059953
    43  C    0.067751
    44  H    0.202663
    45  H   -0.032366
    46  H   -0.005593
    47  H    0.023339
    48  H    0.054558
    49  H    0.042177
    50  H    0.030149
    51  H    0.065272
    52  H    0.192864
    53  H    0.025859
    54  H    0.037423
    55  H    0.047610
    56  H    0.133480
    57  H    0.045324
    58  H    0.052663
    59  H    0.059639
    60  H    0.055031
    61  H    0.056211
    62  H    0.024687
    63  H    0.024888
    64  H    0.014003
    65  H    0.012222
    66  H    0.040305
    67  H    0.029845
    68  H   -0.006698
    69  H    0.114849
    70  H    0.014703
    71  H    0.031277
    72  H   -0.018624
    73  H    0.011230
    74  H    0.047649
    75  H    0.004097
    76  H    0.048715
    77  H   -0.041709
    78  H   -0.002107
    79  H    0.007126
    80  H    0.260305
    81  H    0.158675
 Sum of Mulliken charges =  -0.00000

 Dipole moment (field-independent basis, Debye):
    X=             -2.2172    Y=              1.6173    Z=             -1.6029  Tot=              3.1782
 Quadrupole moment (field-independent basis, Debye-Ang):
   XX=           -258.3798   YY=           -232.4319   ZZ=           -256.4014
   XY=             19.4335   XZ=              9.7766   YZ=            -11.2764

 Normal termination of Gaussian 16 at Sun Jun 30 01:00:48 2019.
