 Gaussian 16, Revision A.03,
 Gaussian 16:  ES64L-G16RevA.03 25-Dec-2016

 --------------------------
 # td=(NStates=1) B3LYP/SVP
 --------------------------

 --
 TD
 --
 Symbolic Z-matrix:
 Charge =  0 Multiplicity = 1

                         Standard orientation:
 ---------------------------------------------------------------------
 Center     Atomic      Atomic             Coordinates (Angstroms)
 Number     Number       Type             X           Y           Z
 ---------------------------------------------------------------------
      1          8           0        4.555277   -4.943186   -1.693530
      2          8           0       -2.932825   -4.802104   -1.103418
      3          8           0       -6.731316   -1.603838   -2.051352
      4          8           0       -3.720483   -3.002704    0.031203
      5          8           0       -7.394913   -0.848206   -0.005694
      6          8           0        3.071955    2.574292    0.550914
      7          7           0        0.246303   -0.532841    0.678893
      8          7           0       -1.566781    1.885280    0.485728
      9          7           0        3.358172   -3.200057   -0.687408
     10          7           0        0.774900    2.881278    0.150308
     11          6           0       -0.720603   -2.304624    1.511602
     12          6           0       -0.994444   -1.040999    1.127260
     13          6           0        0.700764   -2.657358    1.301708
     14          6           0        1.266337   -1.480940    0.753625
     15          6           0       -3.821393    1.490341    0.260511
     16          6           0       -2.548269    0.925924    0.604024
     17          6           0       -2.289125   -0.433500    0.986710
     18          6           0       -3.650552    2.824204   -0.074180
     19          6           0       -1.665619   -3.326197    2.048916
     20          6           0        5.611706   -2.705212   -1.303826
     21          6           0        3.543590   -1.831674   -0.217035
     22          6           0       -2.184091    3.021464   -0.082436
     23          6           0        4.965440   -1.476767   -0.544585
     24          6           0       -5.108783    0.687823    0.356256
     25          6           0        2.563782   -1.081423    0.379973
     26          6           0        1.415021   -3.872543    1.684203
     27          6           0        4.496188   -3.801990   -1.305523
     28          6           0       -2.072767   -4.434111    1.034072
     29          6           0       -5.288113   -0.254482   -0.901199
     30          6           0       -4.479091    3.970985   -0.429470
     31          6           0       -1.292377    3.987043   -0.377394
     32          6           0        6.956770   -3.253167   -1.016169
     33          6           0        5.803430   -0.561385   -0.088659
     34          6           0        0.062614    3.900024   -0.329668
     35          6           0        0.986404    5.134998   -0.562867
     36          6           0        2.177554    4.679127   -0.244054
     37          6           0       -3.005072   -4.052163   -0.007868
     38          6           0        5.304261    0.689637    0.796837
     39          6           0       -6.585058   -0.981935   -0.942423
     40          6           0        3.550941    5.375940   -0.323010
     41          6           0        2.099999    3.243505    0.140603
     42          6           0        0.590292    6.408297   -0.928904
     43          6           0        4.068547    5.651143    1.095248
     44          1           0        0.414719    0.291908    0.084898
     45          1           0       -3.037366   -1.037530    1.092503
     46          1           0       -2.601061   -2.889569    2.492712
     47          1           0       -1.311569   -3.801541    2.889447
     48          1           0        5.557755   -2.342674   -2.358027
     49          1           0       -5.138984    0.139099    1.342316
     50          1           0       -6.001966    1.390410    0.340891
     51          1           0        2.821782    0.063949    0.322122
     52          1           0       -0.645257    1.952287    0.612993
     53          1           0        1.046762   -4.670095    0.979493
     54          1           0        2.539767   -3.692222    1.447264
     55          1           0        1.269288   -4.080680    2.712939
     56          1           0        2.429662   -3.711851   -0.836456
     57          1           0       -1.143561   -4.875487    0.395607
     58          1           0       -2.471402   -5.429298    1.628607
     59          1           0       -4.463727   -0.942362   -1.033490
     60          1           0       -5.048864    0.224368   -1.945871
     61          1           0       -4.289048    4.605855    0.281744
     62          1           0       -5.449000    3.662287   -0.625342
     63          1           0       -4.231488    4.717040   -1.503459
     64          1           0       -1.766808    4.962483   -0.676362
     65          1           0        7.663273   -2.524433   -1.207292
     66          1           0        7.177726   -4.066910   -1.537474
     67          1           0        7.081732   -3.243613    0.359257
     68          1           0        6.667663   -0.635285   -0.593188
     69          1           0        4.746467    1.265143    0.171524
     70          1           0        6.227109    1.175174    0.999377
     71          1           0        4.643814    0.354326    1.499137
     72          1           0        3.355915    6.209943   -0.904879
     73          1           0        4.143303    4.832358   -1.046634
     74          1           0        0.089538    6.734591   -2.028482
     75          1           0        1.476072    7.133086   -0.800663
     76          1           0       -0.318786    6.920475   -0.187736
     77          1           0        3.451767    6.326835    1.746741
     78          1           0        5.240099    6.010097    1.019014
     79          1           0        3.960521    4.656168    1.673594
     80          1           0       -3.656209   -4.581096   -1.638302
     81          1           0       -7.649061   -1.972797   -1.799820
 ---------------------------------------------------------------------

 SCF Done:  E(RB3LYP) =  -1949.05348660     A.U. after   16 cycles

 Excitation energies and oscillator strengths:

 Excited State   1:      Singlet-A      1.8270 eV  678.62 nm  f=0.3493  <S**2>=0.000
     156 ->157         0.70756
     156 <-157        -0.11516
 This state for optimization and/or second-order correction.
 Total Energy, E(TD-HF/TD-DFT) =  -1948.98634540
 Copying the excited state density for this state as the 1-particle RhoCI density.

 The electronic state is 1-A.
 Alpha  occ. eigenvalues --  -19.21077 -19.20499 -19.13917 -19.12358 -19.11586
 Alpha  occ. eigenvalues --  -19.10100 -14.37042 -14.36465 -14.35035 -14.29014
 Alpha  occ. eigenvalues --  -10.34010 -10.32111 -10.29295 -10.26171 -10.25160
 Alpha  occ. eigenvalues --  -10.23859 -10.23850 -10.23780 -10.22980 -10.22796
 Alpha  occ. eigenvalues --  -10.22742 -10.21818 -10.21362 -10.21207 -10.21096
 Alpha  occ. eigenvalues --  -10.20723 -10.20564 -10.20529 -10.20338 -10.20271
 Alpha  occ. eigenvalues --  -10.19843 -10.19608 -10.19525 -10.19352 -10.19230
 Alpha  occ. eigenvalues --  -10.19213 -10.19058 -10.19019 -10.18389 -10.18268
 Alpha  occ. eigenvalues --  -10.17907 -10.17840 -10.15723  -1.13355  -1.12487
 Alpha  occ. eigenvalues --   -1.03483  -1.00188  -1.00100  -1.00076  -0.98047
 Alpha  occ. eigenvalues --   -0.96475  -0.92620  -0.92199  -0.82846  -0.82314
 Alpha  occ. eigenvalues --   -0.81391  -0.81246  -0.80487  -0.79356  -0.78017
 Alpha  occ. eigenvalues --   -0.77497  -0.76704  -0.75123  -0.74294  -0.73319
 Alpha  occ. eigenvalues --   -0.72475  -0.70011  -0.69299  -0.68954  -0.67811
 Alpha  occ. eigenvalues --   -0.67535  -0.65583  -0.65077  -0.62390  -0.61724
 Alpha  occ. eigenvalues --   -0.61301  -0.59889  -0.59091  -0.56669  -0.56575
 Alpha  occ. eigenvalues --   -0.55982  -0.55440  -0.55289  -0.53394  -0.53060
 Alpha  occ. eigenvalues --   -0.52456  -0.51939  -0.51347  -0.51050  -0.50124
 Alpha  occ. eigenvalues --   -0.49865  -0.49538  -0.48913  -0.48603  -0.48168
 Alpha  occ. eigenvalues --   -0.47805  -0.47120  -0.46794  -0.46109  -0.45279
 Alpha  occ. eigenvalues --   -0.45067  -0.44371  -0.44196  -0.43895  -0.43816
 Alpha  occ. eigenvalues --   -0.43147  -0.43047  -0.42774  -0.42700  -0.42521
 Alpha  occ. eigenvalues --   -0.42146  -0.41981  -0.41195  -0.40856  -0.40610
 Alpha  occ. eigenvalues --   -0.40508  -0.40421  -0.40217  -0.39767  -0.39408
 Alpha  occ. eigenvalues --   -0.38925  -0.38834  -0.38588  -0.38307  -0.38274
 Alpha  occ. eigenvalues --   -0.37951  -0.37787  -0.37569  -0.37474  -0.37124
 Alpha  occ. eigenvalues --   -0.36811  -0.36763  -0.35145  -0.34923  -0.34202
 Alpha  occ. eigenvalues --   -0.33912  -0.33345  -0.33261  -0.32979  -0.32372
 Alpha  occ. eigenvalues --   -0.32240  -0.31955  -0.31295  -0.29562  -0.29225
 Alpha  occ. eigenvalues --   -0.28246  -0.27506  -0.26710  -0.26235  -0.25801
 Alpha  occ. eigenvalues --   -0.25468  -0.24231  -0.24045  -0.23766  -0.21854
 Alpha  occ. eigenvalues --   -0.17946
 Alpha virt. eigenvalues --   -0.10655  -0.05720  -0.04056  -0.03461   0.00207
 Alpha virt. eigenvalues --    0.00762   0.01325   0.02349   0.02707   0.03368
 Alpha virt. eigenvalues --    0.04412   0.04775   0.04869   0.05173   0.05770

 Mulliken charges:
               1
     1  O   -0.196525
     2  O   -0.118666
     3  O   -0.122353
     4  O   -0.280770
     5  O   -0.282349
     6  O   -0.248551
     7  N   -0.130404
     8  N   -0.039127
     9  N   -0.232323
    10  N   -0.264447
    11  C   -0.115468
    12  C    0.126431
    13  C   -0.182089
    14  C    0.105047
    15  C   -0.119839
    16  C    0.099134
    17  C    0.040858
    18  C   -0.056157
    19  C    0.192498
    20  C   -0.103995
    21  C    0.123649
    22  C    0.063259
    23  C   -0.026743
    24  C    0.123447
    25  C   -0.163812
    26  C    0.086888
    27  C    0.135721
    28  C   -0.106947
    29  C   -0.042321
    30  C    0.112608
    31  C   -0.160229
    32  C    0.130557
    33  C   -0.126609
    34  C    0.114816
    35  C    0.025558
    36  C   -0.235625
    37  C    0.150236
    38  C    0.181357
    39  C    0.151966
    40  C    0.186626
    41  C    0.167859
    42  C   -0.103655
    43  C   -0.048484
    44  H    0.136804
    45  H   -0.101172
    46  H    0.011514
    47  H   -0.035008
    48  H    0.037860
    49  H    0.042365
    50  H    0.018277
    51  H    0.058247
    52  H    0.053498
    53  H    0.020080
    54  H    0.049400
    55  H    0.022538
    56  H    0.154556
    57  H    0.066314
    58  H    0.075104
    59  H    0.026104
    60  H    0.029946
    61  H   -0.003663
    62  H    0.005827
    63  H    0.036396
    64  H   -0.026580
    65  H   -0.014738
    66  H    0.000296
    67  H    0.024190
    68  H   -0.051647
    69  H    0.027731
    70  H    0.000052
    71  H    0.010417
    72  H   -0.053946
    73  H    0.000462
    74  H    0.051983
    75  H    0.034925
    76  H    0.038266
    77  H    0.018023
    78  H    0.031093
    79  H    0.044133
    80  H    0.163904
    81  H    0.185418
 Sum of Mulliken charges =  -0.00000

 Dipole moment (field-independent basis, Debye):
    X=             -4.1133    Y=             -0.1629    Z=             -2.3244  Tot=              4.7275
 Quadrupole moment (field-independent basis, Debye-Ang):
   XX=           -254.9907   YY=           -240.3875   ZZ=           -251.7582
   XY=             18.1118   XZ=              9.5153   YZ=            -11.1990

 Normal termination of Gaussian 16 at Mon Jul  1 17:44:04 2019.
