 Gaussian 16, Revision A.03,
 Gaussian 16:  ES64L-G16RevA.03 25-Dec-2016

 --------------------------
 # td=(NStates=1) B3LYP/SVP
 --------------------------

 --
 TD
 --
 Symbolic Z-matrix:
 Charge =  0 Multiplicity = 1

                         Standard orientation:
 ---------------------------------------------------------------------
 Center     Atomic      Atomic             Coordinates (Angstroms)
 Number     Number       Type             X           Y           Z
 ---------------------------------------------------------------------
      1          8           0        4.143135   -4.953913   -1.745058
      2          8           0       -3.149191   -5.163568   -0.817769
      3          8           0       -6.773248   -1.396799   -2.020739
      4          8           0       -3.627182   -2.976429    0.027293
      5          8           0       -7.555049   -0.684763   -0.022527
      6          8           0        3.075433    2.331239    0.350532
      7          7           0        0.209132   -0.467766    0.601242
      8          7           0       -1.536344    1.873267    0.459088
      9          7           0        3.278108   -3.204822   -0.639808
     10          7           0        0.751380    2.912544    0.105871
     11          6           0       -0.668713   -2.371321    1.411311
     12          6           0       -0.953729   -1.080245    0.971091
     13          6           0        0.759752   -2.598913    1.182673
     14          6           0        1.224314   -1.334459    0.690542
     15          6           0       -3.748901    1.570183    0.375562
     16          6           0       -2.469823    0.924647    0.562509
     17          6           0       -2.214286   -0.390567    0.928485
     18          6           0       -3.538590    2.840102   -0.138606
     19          6           0       -1.661290   -3.383137    1.990832
     20          6           0        5.396805   -2.842558   -1.310438
     21          6           0        3.532392   -1.876973   -0.280990
     22          6           0       -2.112081    3.055161   -0.048518
     23          6           0        5.002583   -1.644485   -0.571408
     24          6           0       -5.064133    0.774184    0.413271
     25          6           0        2.498496   -0.946311    0.296682
     26          6           0        1.536789   -3.695326    1.742255
     27          6           0        4.295925   -3.866836   -1.375792
     28          6           0       -2.096325   -4.601555    1.141958
     29          6           0       -5.302513   -0.041197   -0.982208
     30          6           0       -4.575133    3.825706   -0.639242
     31          6           0       -1.248520    4.271063   -0.125343
     32          6           0        6.807985   -3.470783   -0.850035
     33          6           0        5.867504   -0.644758   -0.246010
     34          6           0        0.108834    4.115646   -0.151320
     35          6           0        1.056589    5.189214   -0.424361
     36          6           0        2.337241    4.591718   -0.223817
     37          6           0       -3.001174   -4.141465    0.065818
     38          6           0        5.409315    0.563086    0.557438
     39          6           0       -6.691435   -0.731481   -0.885994
     40          6           0        3.648455    5.296550   -0.244214
     41          6           0        2.138195    3.167957    0.068977
     42          6           0        0.726259    6.603114   -0.772888
     43          6           0        4.216733    5.606588    1.124536
     44          1           0        0.399391    0.516046    0.156680
     45          1           0       -3.042860   -1.096717    1.118955
     46          1           0       -2.489450   -2.868893    2.230044
     47          1           0       -1.048807   -3.809117    2.820054
     48          1           0        5.851139   -2.703303   -2.465957
     49          1           0       -5.010824    0.061459    1.146916
     50          1           0       -5.906781    1.444644    0.680215
     51          1           0        2.822886    0.194349    0.212494
     52          1           0       -0.493173    1.910200    0.765628
     53          1           0        1.547420   -4.491797    0.958022
     54          1           0        2.666253   -3.271708    1.982764
     55          1           0        1.260371   -4.066311    2.851216
     56          1           0        2.196637   -3.439385   -0.587168
     57          1           0       -1.266908   -5.163188    0.599228
     58          1           0       -2.688441   -5.320462    1.917435
     59          1           0       -4.634143   -0.926798   -0.913799
     60          1           0       -5.182776    0.634682   -1.928805
     61          1           0       -4.562593    4.716034   -0.081699
     62          1           0       -5.731253    3.375590   -0.805369
     63          1           0       -4.296632    4.279071   -1.662473
     64          1           0       -1.546193    5.227214   -0.543596
     65          1           0        7.704183   -2.873608   -0.983794
     66          1           0        6.992051   -4.456540   -1.493429
     67          1           0        6.667314   -3.768481    0.068741
     68          1           0        7.041069   -0.630872   -0.303089
     69          1           0        5.101614    1.293982   -0.198689
     70          1           0        6.170439    0.837458    1.276752
     71          1           0        4.506716    0.498196    1.218788
     72          1           0        3.410802    6.301534   -0.850725
     73          1           0        4.456938    4.883508   -0.771918
     74          1           0        0.091770    6.791599   -1.596275
     75          1           0        1.767805    7.067781   -1.016842
     76          1           0        0.179639    7.181217   -0.001785
     77          1           0        3.636051    6.154890    1.765661
     78          1           0        5.170234    6.169978    0.938391
     79          1           0        4.451751    4.619186    1.471198
     80          1           0       -3.801707   -4.546789   -1.384353
     81          1           0       -7.522177   -2.158616   -1.964587
 ---------------------------------------------------------------------

 SCF Done:  E(RB3LYP) =  -1949.09510907     A.U. after   19 cycles

 Excitation energies and oscillator strengths:

 Excited State   1:      Singlet-A      1.6737 eV  740.77 nm  f=0.3116  <S**2>=0.000
     156 ->157         0.70677
     156 <-157        -0.11835
 This state for optimization and/or second-order correction.
 Total Energy, E(TD-HF/TD-DFT) =  -1949.03360098
 Copying the excited state density for this state as the 1-particle RhoCI density.

 The electronic state is 1-A.
 Alpha  occ. eigenvalues --  -19.22800 -19.19096 -19.16190 -19.12712 -19.12420
 Alpha  occ. eigenvalues --  -19.08935 -14.37385 -14.37048 -14.35657 -14.27810
 Alpha  occ. eigenvalues --  -10.35684 -10.31994 -10.30026 -10.25831 -10.25464
 Alpha  occ. eigenvalues --  -10.24619 -10.23969 -10.23127 -10.22937 -10.22576
 Alpha  occ. eigenvalues --  -10.21944 -10.21659 -10.21412 -10.21402 -10.21248
 Alpha  occ. eigenvalues --  -10.21091 -10.21062 -10.20836 -10.20736 -10.20487
 Alpha  occ. eigenvalues --  -10.20230 -10.20106 -10.19685 -10.19566 -10.19458
 Alpha  occ. eigenvalues --  -10.19427 -10.19277 -10.19174 -10.18953 -10.18504
 Alpha  occ. eigenvalues --  -10.18172 -10.16586 -10.16218  -1.11352  -1.09438
 Alpha  occ. eigenvalues --   -1.07273  -0.99991  -0.99643  -0.99120  -0.97502
 Alpha  occ. eigenvalues --   -0.96854  -0.94824  -0.89386  -0.82678  -0.81396
 Alpha  occ. eigenvalues --   -0.80756  -0.80639  -0.78812  -0.78523  -0.77691
 Alpha  occ. eigenvalues --   -0.75951  -0.75761  -0.74915  -0.73299  -0.71894
 Alpha  occ. eigenvalues --   -0.70767  -0.69440  -0.68823  -0.68173  -0.67761
 Alpha  occ. eigenvalues --   -0.67034  -0.65691  -0.63724  -0.61726  -0.60460
 Alpha  occ. eigenvalues --   -0.59071  -0.58819  -0.58156  -0.57245  -0.56386
 Alpha  occ. eigenvalues --   -0.55447  -0.55338  -0.54572  -0.53027  -0.52694
 Alpha  occ. eigenvalues --   -0.52555  -0.51844  -0.51263  -0.50857  -0.49543
 Alpha  occ. eigenvalues --   -0.49355  -0.48980  -0.48148  -0.47784  -0.47651
 Alpha  occ. eigenvalues --   -0.46941  -0.46574  -0.45887  -0.45540  -0.45111
 Alpha  occ. eigenvalues --   -0.44910  -0.44298  -0.44102  -0.43751  -0.43719
 Alpha  occ. eigenvalues --   -0.43391  -0.43153  -0.42923  -0.42185  -0.42001
 Alpha  occ. eigenvalues --   -0.41634  -0.41454  -0.41357  -0.40885  -0.40426
 Alpha  occ. eigenvalues --   -0.40350  -0.40145  -0.39958  -0.39639  -0.39243
 Alpha  occ. eigenvalues --   -0.39048  -0.38832  -0.38519  -0.38272  -0.37719
 Alpha  occ. eigenvalues --   -0.37644  -0.37335  -0.36985  -0.36741  -0.36594
 Alpha  occ. eigenvalues --   -0.36171  -0.35577  -0.35404  -0.35312  -0.34291
 Alpha  occ. eigenvalues --   -0.34087  -0.33790  -0.33519  -0.33482  -0.32555
 Alpha  occ. eigenvalues --   -0.32327  -0.31924  -0.31589  -0.31064  -0.29441
 Alpha  occ. eigenvalues --   -0.28112  -0.27740  -0.26721  -0.25715  -0.25032
 Alpha  occ. eigenvalues --   -0.24666  -0.24581  -0.22994  -0.21905  -0.20659
 Alpha  occ. eigenvalues --   -0.17354
 Alpha virt. eigenvalues --   -0.10552  -0.06121  -0.05546  -0.04691  -0.01404
 Alpha virt. eigenvalues --    0.00051   0.01258   0.02164   0.02539   0.03009
 Alpha virt. eigenvalues --    0.04016   0.04120   0.04779   0.05476   0.05588

 Mulliken charges:
               1
     1  O   -0.120703
     2  O   -0.187845
     3  O   -0.215229
     4  O   -0.324938
     5  O   -0.233508
     6  O   -0.305457
     7  N   -0.080903
     8  N   -0.116995
     9  N   -0.204380
    10  N   -0.375554
    11  C   -0.146251
    12  C    0.047196
    13  C   -0.186854
    14  C    0.103993
    15  C   -0.114872
    16  C    0.099178
    17  C   -0.061424
    18  C   -0.102693
    19  C    0.205982
    20  C   -0.213389
    21  C    0.025589
    22  C    0.093270
    23  C    0.096477
    24  C    0.136123
    25  C   -0.147049
    26  C   -0.019393
    27  C    0.182541
    28  C   -0.038720
    29  C   -0.067072
    30  C    0.052074
    31  C   -0.076751
    32  C    0.052276
    33  C   -0.186119
    34  C    0.081261
    35  C   -0.079161
    36  C   -0.141609
    37  C    0.200777
    38  C    0.022667
    39  C    0.148671
    40  C    0.043650
    41  C    0.202158
    42  C    0.093394
    43  C    0.050677
    44  H    0.182797
    45  H    0.014148
    46  H   -0.028758
    47  H    0.006333
    48  H    0.072045
    49  H   -0.020814
    50  H    0.020138
    51  H    0.081774
    52  H    0.176502
    53  H    0.032050
    54  H    0.058722
    55  H    0.053263
    56  H    0.169175
    57  H    0.060026
    58  H    0.089230
    59  H    0.058018
    60  H    0.070047
    61  H    0.011606
    62  H    0.051398
    63  H    0.020507
    64  H   -0.032088
    65  H    0.030124
    66  H    0.033117
    67  H   -0.018922
    68  H    0.036840
    69  H    0.061316
    70  H    0.001156
    71  H    0.042481
    72  H   -0.010616
    73  H   -0.009022
    74  H    0.005089
    75  H    0.022195
    76  H    0.022815
    77  H   -0.008088
    78  H    0.003984
    79  H    0.021400
    80  H    0.211931
    81  H    0.216998
 Sum of Mulliken charges =  -0.00000

 Dipole moment (field-independent basis, Debye):
    X=             -1.9943    Y=             -1.9797    Z=             -0.9713  Tot=              2.9732
 Quadrupole moment (field-independent basis, Debye-Ang):
   XX=           -247.7603   YY=           -237.4473   ZZ=           -253.9778
   XY=             13.9570   XZ=             12.4198   YZ=            -12.3465

 Normal termination of Gaussian 16 at Mon Jul  1 02:40:08 2019.
