 Gaussian 16, Revision A.03,
 Gaussian 16:  ES64L-G16RevA.03 25-Dec-2016

 --------------------------
 # td=(NStates=1) B3LYP/SVP
 --------------------------

 --
 TD
 --
 Symbolic Z-matrix:
 Charge =  0 Multiplicity = 1

                         Standard orientation:
 ---------------------------------------------------------------------
 Center     Atomic      Atomic             Coordinates (Angstroms)
 Number     Number       Type             X           Y           Z
 ---------------------------------------------------------------------
      1          8           0       -4.028512   -5.067695    1.918917
      2          8           0        3.178255   -4.780254    1.036149
      3          8           0        7.137293   -1.317140    1.829907
      4          8           0        4.065697   -2.982794   -0.156683
      5          8           0        7.556377   -0.289092   -0.105682
      6          8           0       -3.169909    2.257676   -0.516876
      7          7           0       -0.253531   -0.515708   -0.722857
      8          7           0        1.485699    1.838510   -0.387321
      9          7           0       -3.156626   -3.196935    0.749269
     10          7           0       -0.922882    2.863924   -0.050030
     11          6           0        0.798325   -2.324924   -1.457160
     12          6           0        0.977807   -0.980308   -1.070155
     13          6           0       -0.558434   -2.539915   -1.219283
     14          6           0       -1.123813   -1.406603   -0.671432
     15          6           0        3.752565    1.744646   -0.344908
     16          6           0        2.461753    1.098451   -0.643430
     17          6           0        2.233800   -0.295333   -0.890705
     18          6           0        3.360431    2.973611    0.140723
     19          6           0        1.750559   -3.294833   -1.932396
     20          6           0       -5.416197   -2.982490    1.365921
     21          6           0       -3.485226   -1.917327    0.188035
     22          6           0        1.883800    3.012096    0.071388
     23          6           0       -4.877540   -1.775139    0.424218
     24          6           0        5.148176    1.077295   -0.267655
     25          6           0       -2.554153   -1.061596   -0.363938
     26          6           0       -1.262411   -3.801971   -1.584964
     27          6           0       -4.145558   -3.925596    1.406197
     28          6           0        2.427668   -4.440286   -1.195273
     29          6           0        5.376795    0.126767    0.982012
     30          6           0        4.209802    4.162183    0.636814
     31          6           0        1.068044    4.176243    0.346957
     32          6           0       -6.667785   -3.841301    0.958426
     33          6           0       -5.784385   -0.797590    0.076528
     34          6           0       -0.341862    4.072944    0.297393
     35          6           0       -1.418821    5.043566    0.505927
     36          6           0       -2.664197    4.460334    0.284373
     37          6           0        3.319468   -3.963682   -0.090337
     38          6           0       -5.433771    0.334619   -0.853121
     39          6           0        6.792418   -0.493400    0.812396
     40          6           0       -3.991972    5.219708    0.229744
     41          6           0       -2.397978    3.076777   -0.083501
     42          6           0       -1.083104    6.404439    0.918296
     43          6           0       -4.594722    5.225051   -1.183384
     44          1           0       -0.338673    0.277020   -0.230519
     45          1           0        3.153983   -0.916096   -1.171327
     46          1           0        2.697647   -2.691041   -2.289774
     47          1           0        1.044375   -3.603114   -2.809669
     48          1           0       -5.444704   -2.725575    2.479139
     49          1           0        5.102261    0.511937   -1.089848
     50          1           0        5.753561    1.922663   -0.366391
     51          1           0       -2.790160    0.103791   -0.360381
     52          1           0        0.369002    1.869546   -0.581053
     53          1           0       -1.516280   -4.635279   -0.642102
     54          1           0       -2.207261   -3.623540   -2.035912
     55          1           0       -0.567667   -4.417333   -2.279718
     56          1           0       -2.111273   -3.560542    1.004515
     57          1           0        1.777619   -5.214894   -0.836080
     58          1           0        3.154331   -4.739763   -2.197833
     59          1           0        4.677805   -0.777724    1.177534
     60          1           0        5.392336    0.688435    2.158151
     61          1           0        3.929701    5.091839    0.313320
     62          1           0        5.227785    3.882189    0.813654
     63          1           0        3.911264    4.262395    1.706818
     64          1           0        1.594723    5.128876    0.495300
     65          1           0       -7.582889   -3.237860    1.101072
     66          1           0       -6.830012   -4.674434    1.741343
     67          1           0       -6.516601   -4.133179   -0.229367
     68          1           0       -6.939301   -0.902262    0.410133
     69          1           0       -5.073235    1.203657   -0.478430
     70          1           0       -6.248837    0.726989   -1.284333
     71          1           0       -4.733609   -0.024425   -1.693207
     72          1           0       -3.736527    6.166770    0.708262
     73          1           0       -4.689209    4.639408    0.841805
     74          1           0       -0.686526    6.441944    1.941783
     75          1           0       -1.868059    7.147487    0.889089
     76          1           0       -0.155348    6.762653    0.261016
     77          1           0       -3.832197    5.794800   -1.889593
     78          1           0       -5.617754    5.670222   -1.243761
     79          1           0       -4.641825    4.186326   -1.574291
     80          1           0        3.915840   -4.404107    1.616250
     81          1           0        7.886613   -1.890556    1.692889
 ---------------------------------------------------------------------

 SCF Done:  E(RB3LYP) =  -1949.08342336     A.U. after   17 cycles

 Excitation energies and oscillator strengths:

 Excited State   1:      Singlet-A      1.8025 eV  687.84 nm  f=0.2984  <S**2>=0.000
     156 ->157         0.70415
     156 <-157        -0.11982
 This state for optimization and/or second-order correction.
 Total Energy, E(TD-HF/TD-DFT) =  -1949.01718196
 Copying the excited state density for this state as the 1-particle RhoCI density.

 The electronic state is 1-A.
 Alpha  occ. eigenvalues --  -19.20653 -19.17440 -19.15672 -19.12265 -19.11150
 Alpha  occ. eigenvalues --  -19.10802 -14.37589 -14.37504 -14.36257 -14.28695
 Alpha  occ. eigenvalues --  -10.34694 -10.32161 -10.29046 -10.26865 -10.25131
 Alpha  occ. eigenvalues --  -10.23700 -10.23653 -10.23544 -10.22936 -10.22910
 Alpha  occ. eigenvalues --  -10.22823 -10.22416 -10.22199 -10.22079 -10.21570
 Alpha  occ. eigenvalues --  -10.21493 -10.20678 -10.20668 -10.20583 -10.20289
 Alpha  occ. eigenvalues --  -10.20265 -10.20205 -10.20121 -10.20000 -10.19960
 Alpha  occ. eigenvalues --  -10.19555 -10.19502 -10.19357 -10.19319 -10.18922
 Alpha  occ. eigenvalues --  -10.18859 -10.18499 -10.15952  -1.09930  -1.08996
 Alpha  occ. eigenvalues --   -1.03611  -1.02541  -1.01948  -1.01732  -1.00637
 Alpha  occ. eigenvalues --   -1.00038  -0.93345  -0.89790  -0.84193  -0.81492
 Alpha  occ. eigenvalues --   -0.81106  -0.79945  -0.79531  -0.79075  -0.78052
 Alpha  occ. eigenvalues --   -0.76234  -0.75803  -0.75258  -0.73811  -0.72237
 Alpha  occ. eigenvalues --   -0.71617  -0.70332  -0.69821  -0.68947  -0.68377
 Alpha  occ. eigenvalues --   -0.67715  -0.65159  -0.63324  -0.62152  -0.61695
 Alpha  occ. eigenvalues --   -0.61130  -0.60673  -0.59712  -0.57818  -0.56392
 Alpha  occ. eigenvalues --   -0.56030  -0.55795  -0.55050  -0.54042  -0.52681
 Alpha  occ. eigenvalues --   -0.51815  -0.51409  -0.51251  -0.50297  -0.49407
 Alpha  occ. eigenvalues --   -0.48748  -0.48625  -0.48113  -0.47273  -0.47086
 Alpha  occ. eigenvalues --   -0.46613  -0.46465  -0.46160  -0.45891  -0.45807
 Alpha  occ. eigenvalues --   -0.45200  -0.44925  -0.44598  -0.44229  -0.43842
 Alpha  occ. eigenvalues --   -0.43516  -0.43185  -0.42737  -0.42533  -0.42127
 Alpha  occ. eigenvalues --   -0.41808  -0.41338  -0.41185  -0.40690  -0.40642
 Alpha  occ. eigenvalues --   -0.40310  -0.40097  -0.39775  -0.39665  -0.39512
 Alpha  occ. eigenvalues --   -0.39484  -0.39363  -0.38986  -0.38497  -0.38450
 Alpha  occ. eigenvalues --   -0.37926  -0.37588  -0.37480  -0.36787  -0.35785
 Alpha  occ. eigenvalues --   -0.35580  -0.35201  -0.35044  -0.34982  -0.34847
 Alpha  occ. eigenvalues --   -0.34690  -0.34406  -0.34124  -0.33922  -0.33608
 Alpha  occ. eigenvalues --   -0.33298  -0.32773  -0.32109  -0.30820  -0.29731
 Alpha  occ. eigenvalues --   -0.27936  -0.27793  -0.26178  -0.25760  -0.25555
 Alpha  occ. eigenvalues --   -0.25107  -0.24774  -0.24336  -0.22858  -0.21167
 Alpha  occ. eigenvalues --   -0.17636
 Alpha virt. eigenvalues --   -0.10373  -0.06286  -0.04628  -0.04154  -0.00182
 Alpha virt. eigenvalues --    0.00138   0.01629   0.02525   0.03122   0.03981
 Alpha virt. eigenvalues --    0.04625   0.04962   0.05294   0.05773   0.05826

 Mulliken charges:
               1
     1  O   -0.259101
     2  O   -0.214281
     3  O   -0.196173
     4  O   -0.239310
     5  O   -0.225241
     6  O   -0.200477
     7  N    0.139491
     8  N    0.018791
     9  N   -0.214436
    10  N   -0.431777
    11  C   -0.023754
    12  C   -0.018637
    13  C   -0.157097
    14  C   -0.030207
    15  C   -0.164838
    16  C   -0.003815
    17  C   -0.079570
    18  C   -0.175251
    19  C   -0.070608
    20  C   -0.112863
    21  C    0.185660
    22  C    0.012985
    23  C   -0.022471
    24  C    0.271073
    25  C   -0.174698
    26  C    0.024433
    27  C    0.149684
    28  C    0.068414
    29  C   -0.107925
    30  C    0.202007
    31  C   -0.110027
    32  C    0.008352
    33  C   -0.161834
    34  C    0.134452
    35  C   -0.082641
    36  C   -0.186095
    37  C    0.158357
    38  C    0.142191
    39  C    0.156355
    40  C    0.131359
    41  C    0.180578
    42  C    0.064453
    43  C   -0.039652
    44  H    0.077995
    45  H    0.031364
    46  H    0.028486
    47  H    0.055393
    48  H    0.053073
    49  H   -0.021413
    50  H    0.005272
    51  H    0.087933
    52  H    0.196845
    53  H    0.032565
    54  H    0.024420
    55  H    0.008522
    56  H    0.182159
    57  H    0.023039
    58  H    0.089109
    59  H    0.071750
    60  H    0.061729
    61  H    0.002391
    62  H    0.001263
    63  H   -0.004346
    64  H   -0.030155
    65  H    0.013198
    66  H    0.049176
    67  H    0.049675
    68  H    0.035425
    69  H    0.010687
    70  H   -0.047212
    71  H    0.038340
    72  H   -0.006073
    73  H    0.001922
    74  H    0.028167
    75  H    0.012018
    76  H    0.032907
    77  H    0.020411
    78  H    0.023014
    79  H    0.038652
    80  H    0.199142
    81  H    0.177301
 Sum of Mulliken charges =  -0.00000

 Dipole moment (field-independent basis, Debye):
    X=              2.3601    Y=              1.3476    Z=              1.1198  Tot=              2.9394
 Quadrupole moment (field-independent basis, Debye-Ang):
   XX=           -251.7507   YY=           -245.5949   ZZ=           -255.2037
   XY=            -24.4222   XZ=             13.3237   YZ=             15.3263

 Normal termination of Gaussian 16 at Thu Jun 27 08:31:07 2019.
