 Gaussian 16, Revision A.03,
 Gaussian 16:  ES64L-G16RevA.03 25-Dec-2016

 --------------------------
 # td=(NStates=1) B3LYP/SVP
 --------------------------

 --
 TD
 --
 Symbolic Z-matrix:
 Charge =  0 Multiplicity = 1

                         Standard orientation:
 ---------------------------------------------------------------------
 Center     Atomic      Atomic             Coordinates (Angstroms)
 Number     Number       Type             X           Y           Z
 ---------------------------------------------------------------------
      1          8           0        4.612334   -4.918270   -1.662956
      2          8           0       -2.672728   -5.133897   -1.111695
      3          8           0       -7.150423   -1.629973   -1.806686
      4          8           0       -3.516466   -3.240466   -0.211105
      5          8           0       -7.632638   -0.592884    0.284570
      6          8           0        3.014043    2.561608    0.362454
      7          7           0        0.230029   -0.455042    0.472708
      8          7           0       -1.578424    1.811574    0.300658
      9          7           0        3.428132   -3.094626   -0.712738
     10          7           0        0.740690    2.824195    0.090577
     11          6           0       -0.558800   -2.353471    1.372470
     12          6           0       -0.825834   -1.062411    1.005372
     13          6           0        0.847640   -2.502355    1.322080
     14          6           0        1.374525   -1.323965    0.673302
     15          6           0       -3.886066    1.449061    0.236349
     16          6           0       -2.585293    0.731206    0.429612
     17          6           0       -2.241060   -0.472320    0.893184
     18          6           0       -3.631651    2.669708   -0.090304
     19          6           0       -1.566214   -3.334885    2.001416
     20          6           0        5.609484   -2.667151   -1.328262
     21          6           0        3.709478   -1.827576   -0.156174
     22          6           0       -2.250080    2.917391   -0.113718
     23          6           0        5.072386   -1.494063   -0.530577
     24          6           0       -5.172952    0.626199    0.419305
     25          6           0        2.679205   -0.959609    0.382988
     26          6           0        1.536642   -3.702125    1.728456
     27          6           0        4.527985   -3.740263   -1.273904
     28          6           0       -1.928130   -4.576210    1.038662
     29          6           0       -5.415083   -0.359195   -0.746191
     30          6           0       -4.595686    3.723678   -0.550745
     31          6           0       -1.388529    4.025671   -0.448203
     32          6           0        6.876428   -3.289472   -0.745923
     33          6           0        5.702769   -0.367380   -0.225930
     34          6           0       -0.012767    4.065676   -0.225766
     35          6           0        0.922040    5.234325   -0.445867
     36          6           0        2.214593    4.845374   -0.325220
     37          6           0       -2.830055   -4.170859   -0.120355
     38          6           0        5.411790    0.801875    0.708934
     39          6           0       -6.845828   -0.845583   -0.682467
     40          6           0        3.438748    5.506408   -0.226993
     41          6           0        2.084676    3.398901    0.047682
     42          6           0        0.357305    6.561029   -0.821705
     43          6           0        4.150822    5.624771    1.168149
     44          1           0        0.392677    0.449327   -0.048082
     45          1           0       -2.905612   -1.325784    1.114954
     46          1           0       -2.483389   -3.037366    2.387339
     47          1           0       -1.077936   -3.859785    2.895370
     48          1           0        5.704455   -2.343414   -2.430936
     49          1           0       -5.201811    0.085797    1.324671
     50          1           0       -6.151568    1.254128    0.504116
     51          1           0        2.926330   -0.038619    0.455184
     52          1           0       -0.736074    1.584782    0.658046
     53          1           0        1.418049   -4.719883    1.242766
     54          1           0        2.630391   -3.476504    1.735606
     55          1           0        0.934704   -4.126962    2.560938
     56          1           0        2.403132   -3.444225   -0.679005
     57          1           0       -1.011840   -5.249923    0.753045
     58          1           0       -2.536008   -5.120419    1.751203
     59          1           0       -4.714923   -1.264777   -0.715759
     60          1           0       -5.187861    0.157092   -1.713192
     61          1           0       -4.448837    4.731104   -0.037976
     62          1           0       -5.828273    3.471162   -0.490051
     63          1           0       -4.391885    3.889376   -1.612357
     64          1           0       -1.936090    4.987599   -0.572757
     65          1           0        7.651476   -2.541495   -0.889804
     66          1           0        7.023766   -4.379905   -1.345777
     67          1           0        6.823705   -3.348299    0.378734
     68          1           0        6.841184   -0.517411   -0.364962
     69          1           0        5.080963    1.781285    0.271317
     70          1           0        6.375285    1.101673    1.183040
     71          1           0        4.555137    0.568713    1.410746
     72          1           0        3.586431    6.468801   -0.715815
     73          1           0        4.086279    4.834218   -0.775878
     74          1           0        0.171322    6.451480   -2.027202
     75          1           0        1.301245    7.369988   -0.601472
     76          1           0       -0.659021    6.920668   -0.246429
     77          1           0        3.585801    6.192428    1.871716
     78          1           0        5.189805    6.139556    0.977849
     79          1           0        4.202065    4.542628    1.394199
     80          1           0       -3.287700   -5.006946   -1.974295
     81          1           0       -7.996256   -1.946026   -1.742126
 ---------------------------------------------------------------------

 SCF Done:  E(RB3LYP) =  -1949.07457792     A.U. after   18 cycles

 Excitation energies and oscillator strengths:

 Excited State   1:      Singlet-A      1.6143 eV  768.04 nm  f=0.2306  <S**2>=0.000
     156 ->157         0.70792
 This state for optimization and/or second-order correction.
 Total Energy, E(TD-HF/TD-DFT) =  -1949.01525407
 Copying the excited state density for this state as the 1-particle RhoCI density.

 The electronic state is 1-A.
 Alpha  occ. eigenvalues --  -19.18814 -19.18627 -19.15411 -19.14091 -19.11042
 Alpha  occ. eigenvalues --  -19.09626 -14.37502 -14.37328 -14.36452 -14.29485
 Alpha  occ. eigenvalues --  -10.33824 -10.33610 -10.29231 -10.26417 -10.25576
 Alpha  occ. eigenvalues --  -10.24438 -10.23671 -10.23283 -10.23113 -10.22997
 Alpha  occ. eigenvalues --  -10.22728 -10.22426 -10.21971 -10.21894 -10.21836
 Alpha  occ. eigenvalues --  -10.21624 -10.21548 -10.20925 -10.20831 -10.20690
 Alpha  occ. eigenvalues --  -10.20671 -10.19673 -10.19665 -10.19625 -10.19573
 Alpha  occ. eigenvalues --  -10.19438 -10.19378 -10.19204 -10.19093 -10.18378
 Alpha  occ. eigenvalues --  -10.18270 -10.17779 -10.17706  -1.11092  -1.08657
 Alpha  occ. eigenvalues --   -1.01699  -1.01655  -0.99888  -0.98497  -0.97390
 Alpha  occ. eigenvalues --   -0.97132  -0.94337  -0.87686  -0.83772  -0.81887
 Alpha  occ. eigenvalues --   -0.81430  -0.81256  -0.80297  -0.79281  -0.77773
 Alpha  occ. eigenvalues --   -0.77415  -0.75714  -0.75105  -0.73817  -0.72269
 Alpha  occ. eigenvalues --   -0.71633  -0.69420  -0.69360  -0.68265  -0.68047
 Alpha  occ. eigenvalues --   -0.66788  -0.65034  -0.64213  -0.62548  -0.62158
 Alpha  occ. eigenvalues --   -0.60073  -0.59956  -0.58884  -0.57915  -0.57073
 Alpha  occ. eigenvalues --   -0.56269  -0.56064  -0.54604  -0.53958  -0.52465
 Alpha  occ. eigenvalues --   -0.51828  -0.51376  -0.51104  -0.50499  -0.50005
 Alpha  occ. eigenvalues --   -0.49565  -0.49134  -0.48662  -0.48156  -0.47502
 Alpha  occ. eigenvalues --   -0.46985  -0.46525  -0.46005  -0.45748  -0.45344
 Alpha  occ. eigenvalues --   -0.45230  -0.44690  -0.44022  -0.43775  -0.43345
 Alpha  occ. eigenvalues --   -0.43192  -0.42730  -0.42456  -0.42093  -0.41729
 Alpha  occ. eigenvalues --   -0.41445  -0.41190  -0.41099  -0.40777  -0.40719
 Alpha  occ. eigenvalues --   -0.40216  -0.39581  -0.39501  -0.39305  -0.39246
 Alpha  occ. eigenvalues --   -0.38862  -0.38148  -0.38068  -0.37862  -0.37551
 Alpha  occ. eigenvalues --   -0.37299  -0.37157  -0.36805  -0.36429  -0.36334
 Alpha  occ. eigenvalues --   -0.36163  -0.35947  -0.35706  -0.35191  -0.34905
 Alpha  occ. eigenvalues --   -0.34811  -0.34090  -0.34006  -0.33892  -0.33161
 Alpha  occ. eigenvalues --   -0.32783  -0.32002  -0.31543  -0.30588  -0.29137
 Alpha  occ. eigenvalues --   -0.29053  -0.28039  -0.27032  -0.26084  -0.25906
 Alpha  occ. eigenvalues --   -0.25123  -0.24468  -0.23756  -0.23159  -0.20750
 Alpha  occ. eigenvalues --   -0.17548
 Alpha virt. eigenvalues --   -0.10667  -0.06113  -0.04492  -0.02410  -0.00624
 Alpha virt. eigenvalues --    0.00153   0.01328   0.01914   0.02711   0.03199
 Alpha virt. eigenvalues --    0.04042   0.04112   0.05092   0.05799   0.05951

 Mulliken charges:
               1
     1  O   -0.235944
     2  O   -0.280270
     3  O   -0.177310
     4  O   -0.144520
     5  O   -0.273071
     6  O   -0.273894
     7  N   -0.111673
     8  N   -0.086349
     9  N   -0.172461
    10  N   -0.362908
    11  C   -0.048738
    12  C   -0.010495
    13  C   -0.120302
    14  C    0.090093
    15  C   -0.031533
    16  C    0.092065
    17  C   -0.039310
    18  C   -0.085673
    19  C    0.048244
    20  C   -0.066406
    21  C    0.066215
    22  C    0.103995
    23  C   -0.019817
    24  C    0.105537
    25  C    0.002146
    26  C    0.043289
    27  C    0.166760
    28  C   -0.034963
    29  C   -0.059339
    30  C    0.014968
    31  C   -0.105466
    32  C    0.004524
    33  C   -0.164646
    34  C    0.115561
    35  C   -0.073596
    36  C   -0.070360
    37  C    0.153397
    38  C    0.047513
    39  C    0.191682
    40  C    0.039965
    41  C    0.164347
    42  C   -0.055926
    43  C   -0.019580
    44  H    0.165900
    45  H    0.008009
    46  H   -0.003901
    47  H    0.017698
    48  H    0.063408
    49  H    0.004879
    50  H    0.030629
    51  H   -0.107800
    52  H    0.101719
    53  H    0.020027
    54  H    0.046537
    55  H   -0.009704
    56  H    0.167138
    57  H    0.063147
    58  H    0.035501
    59  H    0.086740
    60  H    0.044206
    61  H    0.037824
    62  H    0.049317
    63  H    0.031463
    64  H   -0.029077
    65  H    0.012217
    66  H    0.074807
    67  H    0.024093
    68  H    0.000736
    69  H    0.059034
    70  H    0.005439
    71  H    0.041501
    72  H   -0.010442
    73  H    0.004122
    74  H    0.067308
    75  H    0.049871
    76  H    0.064534
    77  H    0.012398
    78  H    0.026599
    79  H    0.046098
    80  H    0.223322
    81  H    0.148952
 Sum of Mulliken charges =  -0.00000

 Dipole moment (field-independent basis, Debye):
    X=             -4.7606    Y=              1.2048    Z=             -1.1273  Tot=              5.0384
 Quadrupole moment (field-independent basis, Debye-Ang):
   XX=           -253.6795   YY=           -239.1251   ZZ=           -253.6587
   XY=             23.0056   XZ=             14.9409   YZ=            -11.7174

 Normal termination of Gaussian 16 at Sun Jun 30 21:50:35 2019.
