 Gaussian 16, Revision A.03,
 Gaussian 16:  ES64L-G16RevA.03 25-Dec-2016

 --------------------------
 # td=(NStates=1) B3LYP/SVP
 --------------------------

 --
 TD
 --
 Symbolic Z-matrix:
 Charge =  0 Multiplicity = 1

                         Standard orientation:
 ---------------------------------------------------------------------
 Center     Atomic      Atomic             Coordinates (Angstroms)
 Number     Number       Type             X           Y           Z
 ---------------------------------------------------------------------
      1          8           0        4.008759   -5.142297   -1.744628
      2          8           0       -3.546590   -4.583831   -1.095337
      3          8           0       -6.990932   -1.295205   -1.900325
      4          8           0       -4.119250   -2.787125    0.132720
      5          8           0       -7.495286   -0.499248    0.210014
      6          8           0        3.284061    2.330324    0.357231
      7          7           0        0.211209   -0.538185    0.412703
      8          7           0       -1.372332    1.826482    0.328793
      9          7           0        3.154730   -3.295627   -0.603216
     10          7           0        1.016216    2.872702    0.081839
     11          6           0       -0.795038   -2.360953    1.345071
     12          6           0       -1.036537   -1.065339    0.861680
     13          6           0        0.668778   -2.661110    1.204119
     14          6           0        1.225735   -1.429390    0.564979
     15          6           0       -3.693912    1.621747    0.227740
     16          6           0       -2.445931    0.950458    0.412174
     17          6           0       -2.291647   -0.310381    0.834640
     18          6           0       -3.447955    2.975801   -0.063905
     19          6           0       -1.860277   -3.288890    1.956323
     20          6           0        5.454070   -3.096026   -1.300585
     21          6           0        3.555341   -2.006942   -0.281284
     22          6           0       -1.981622    3.079875   -0.076543
     23          6           0        4.972581   -1.848667   -0.509061
     24          6           0       -4.968540    1.107551    0.383158
     25          6           0        2.615004   -1.156984    0.354659
     26          6           0        1.371429   -3.849102    1.759459
     27          6           0        4.167834   -3.972122   -1.273343
     28          6           0       -2.472579   -4.336761    0.990990
     29          6           0       -5.350276    0.227563   -0.911727
     30          6           0       -4.342197    4.075448   -0.303858
     31          6           0       -0.992654    4.099094   -0.383631
     32          6           0        6.698284   -3.832390   -0.866279
     33          6           0        5.817249   -0.920204    0.054062
     34          6           0        0.382343    4.082769   -0.161009
     35          6           0        1.320738    5.140487   -0.444003
     36          6           0        2.572691    4.588941   -0.274877
     37          6           0       -3.477667   -3.860392   -0.004095
     38          6           0        5.358116    0.210809    0.803958
     39          6           0       -6.716384   -0.512759   -0.790796
     40          6           0        3.899714    5.178236   -0.341667
     41          6           0        2.327915    3.096314    0.013387
     42          6           0        1.160885    6.474080   -0.920153
     43          6           0        4.407687    5.537400    1.178390
     44          1           0        0.343744    0.394085    0.039337
     45          1           0       -3.028160   -1.147264    0.979518
     46          1           0       -2.707808   -2.603371    2.375656
     47          1           0       -1.468202   -3.860725    2.956779
     48          1           0        5.618020   -2.844384   -2.331395
     49          1           0       -5.050488    0.334290    1.241319
     50          1           0       -5.698015    1.873622    0.636260
     51          1           0        2.783228   -0.118421    0.325555
     52          1           0       -0.535359    2.006978    0.632961
     53          1           0        1.166617   -4.640615    0.977335
     54          1           0        2.384843   -3.763644    1.860646
     55          1           0        0.732186   -3.860243    2.729815
     56          1           0        2.164621   -3.492704   -0.569802
     57          1           0       -1.604448   -4.809068    0.485087
     58          1           0       -2.845411   -5.072958    1.684662
     59          1           0       -4.665158   -0.546358   -1.258546
     60          1           0       -5.390168    0.822122   -1.741185
     61          1           0       -3.965745    4.811924    0.268829
     62          1           0       -5.333942    3.835072   -0.346191
     63          1           0       -3.982310    4.434657   -1.316199
     64          1           0       -1.474894    5.068698   -0.314439
     65          1           0        7.580945   -3.230335   -0.921588
     66          1           0        6.665567   -4.861976   -1.359465
     67          1           0        6.568234   -3.929053    0.303690
     68          1           0        6.877767   -1.074361   -0.203689
     69          1           0        4.901207    1.194506    0.437583
     70          1           0        6.345357    0.826710    1.150194
     71          1           0        4.745122    0.117560    1.750525
     72          1           0        4.048561    6.059675   -1.111350
     73          1           0        4.692645    4.630220   -0.918217
     74          1           0        0.714309    6.525172   -1.945295
     75          1           0        2.030214    7.126422   -0.929288
     76          1           0        0.719764    7.153996   -0.159643
     77          1           0        3.691859    6.282206    1.610206
     78          1           0        5.506140    5.820196    1.135499
     79          1           0        4.662683    4.596047    1.581137
     80          1           0       -4.081718   -4.255705   -1.640688
     81          1           0       -7.925726   -1.670497   -1.541699
 ---------------------------------------------------------------------

 SCF Done:  E(RB3LYP) =  -1949.07242847     A.U. after   23 cycles

 Excitation energies and oscillator strengths:

 Excited State   1:      Singlet-A      1.6470 eV  752.81 nm  f=0.2796  <S**2>=0.000
     156 ->157         0.70944
     156 <-157        -0.11352
 This state for optimization and/or second-order correction.
 Total Energy, E(TD-HF/TD-DFT) =  -1949.01190371
 Copying the excited state density for this state as the 1-particle RhoCI density.

 The electronic state is 1-A.
 Alpha  occ. eigenvalues --  -19.20634 -19.19587 -19.14623 -19.13491 -19.10726
 Alpha  occ. eigenvalues --  -19.08827 -14.37456 -14.37365 -14.35511 -14.28011
 Alpha  occ. eigenvalues --  -10.34947 -10.33244 -10.29700 -10.25206 -10.25187
 Alpha  occ. eigenvalues --  -10.24578 -10.23838 -10.23743 -10.23341 -10.23211
 Alpha  occ. eigenvalues --  -10.22885 -10.22279 -10.21416 -10.21303 -10.21275
 Alpha  occ. eigenvalues --  -10.21071 -10.20910 -10.20808 -10.20727 -10.20499
 Alpha  occ. eigenvalues --  -10.20401 -10.20103 -10.20076 -10.19656 -10.19471
 Alpha  occ. eigenvalues --  -10.19260 -10.19076 -10.18572 -10.18444 -10.18414
 Alpha  occ. eigenvalues --  -10.18223 -10.18211 -10.17552  -1.15437  -1.07742
 Alpha  occ. eigenvalues --   -1.01879  -1.01204  -0.98247  -0.98223  -0.97691
 Alpha  occ. eigenvalues --   -0.96419  -0.94698  -0.90920  -0.84752  -0.82183
 Alpha  occ. eigenvalues --   -0.81801  -0.81452  -0.79633  -0.79077  -0.78570
 Alpha  occ. eigenvalues --   -0.77614  -0.76464  -0.75165  -0.73965  -0.73558
 Alpha  occ. eigenvalues --   -0.72907  -0.70633  -0.70118  -0.69728  -0.67928
 Alpha  occ. eigenvalues --   -0.67775  -0.65611  -0.64309  -0.63512  -0.62542
 Alpha  occ. eigenvalues --   -0.61178  -0.59389  -0.58742  -0.57936  -0.57003
 Alpha  occ. eigenvalues --   -0.56501  -0.55407  -0.54790  -0.53819  -0.53067
 Alpha  occ. eigenvalues --   -0.52631  -0.52231  -0.51288  -0.50896  -0.50797
 Alpha  occ. eigenvalues --   -0.50075  -0.49671  -0.49228  -0.48776  -0.48323
 Alpha  occ. eigenvalues --   -0.47115  -0.46985  -0.46718  -0.46149  -0.45530
 Alpha  occ. eigenvalues --   -0.45336  -0.45148  -0.44687  -0.44535  -0.43754
 Alpha  occ. eigenvalues --   -0.43673  -0.43456  -0.43388  -0.42840  -0.42752
 Alpha  occ. eigenvalues --   -0.42375  -0.41750  -0.41245  -0.41133  -0.41084
 Alpha  occ. eigenvalues --   -0.41032  -0.40668  -0.40578  -0.40096  -0.39900
 Alpha  occ. eigenvalues --   -0.39451  -0.39036  -0.38767  -0.38645  -0.38375
 Alpha  occ. eigenvalues --   -0.37915  -0.37418  -0.37193  -0.36706  -0.35824
 Alpha  occ. eigenvalues --   -0.35716  -0.35486  -0.35230  -0.34593  -0.34193
 Alpha  occ. eigenvalues --   -0.34158  -0.33813  -0.33522  -0.33084  -0.32205
 Alpha  occ. eigenvalues --   -0.32028  -0.31358  -0.30896  -0.30081  -0.29466
 Alpha  occ. eigenvalues --   -0.28582  -0.27153  -0.26069  -0.25635  -0.25228
 Alpha  occ. eigenvalues --   -0.24739  -0.23962  -0.23087  -0.22127  -0.21368
 Alpha  occ. eigenvalues --   -0.17786
 Alpha virt. eigenvalues --   -0.11017  -0.06157  -0.04650  -0.03275  -0.01339
 Alpha virt. eigenvalues --   -0.00817   0.01264   0.02642   0.02905   0.03738
 Alpha virt. eigenvalues --    0.04136   0.04918   0.05261   0.05888   0.06237

 Mulliken charges:
               1
     1  O   -0.267890
     2  O   -0.028011
     3  O   -0.249132
     4  O   -0.273080
     5  O   -0.286759
     6  O   -0.285189
     7  N   -0.078101
     8  N   -0.077678
     9  N   -0.085899
    10  N   -0.283569
    11  C   -0.087158
    12  C   -0.005561
    13  C   -0.238643
    14  C    0.035770
    15  C   -0.054097
    16  C    0.230836
    17  C   -0.093530
    18  C   -0.146418
    19  C   -0.045653
    20  C   -0.030845
    21  C    0.040718
    22  C   -0.013592
    23  C   -0.025718
    24  C    0.059757
    25  C   -0.053146
    26  C    0.117893
    27  C    0.139104
    28  C    0.065057
    29  C    0.048503
    30  C    0.246359
    31  C   -0.043404
    32  C    0.023985
    33  C   -0.054778
    34  C    0.066825
    35  C   -0.068475
    36  C   -0.107349
    37  C    0.137729
    38  C   -0.025438
    39  C    0.185637
    40  C   -0.028596
    41  C    0.156131
    42  C    0.100230
    43  C    0.023799
    44  H    0.133936
    45  H    0.039571
    46  H    0.037995
    47  H    0.034144
    48  H    0.033073
    49  H    0.040846
    50  H    0.017767
    51  H   -0.003499
    52  H    0.070353
    53  H    0.036618
    54  H    0.009395
    55  H    0.053692
    56  H    0.133156
    57  H    0.037642
    58  H    0.042165
    59  H    0.040605
    60  H   -0.004069
    61  H   -0.007402
    62  H   -0.004064
    63  H    0.021716
    64  H   -0.027841
    65  H    0.019732
    66  H    0.061196
    67  H    0.016152
    68  H   -0.004639
    69  H    0.088955
    70  H   -0.010668
    71  H    0.041773
    72  H    0.000834
    73  H    0.006479
    74  H    0.035136
    75  H   -0.011610
    76  H   -0.000271
    77  H    0.043180
    78  H   -0.001086
    79  H    0.016841
    80  H    0.104444
    81  H    0.217128
 Sum of Mulliken charges =  -0.00000

 Dipole moment (field-independent basis, Debye):
    X=             -3.9685    Y=              0.9362    Z=             -0.7338  Tot=              4.1429
 Quadrupole moment (field-independent basis, Debye-Ang):
   XX=           -247.2925   YY=           -243.5043   ZZ=           -255.1853
   XY=             13.4548   XZ=             11.5520   YZ=            -11.6830

 Normal termination of Gaussian 16 at Wed Jul  3 03:01:24 2019.
