 Gaussian 16, Revision A.03,
 Gaussian 16:  ES64L-G16RevA.03 25-Dec-2016

 --------------------------
 # td=(NStates=1) B3LYP/SVP
 --------------------------

 --
 TD
 --
 Symbolic Z-matrix:
 Charge =  0 Multiplicity = 1

                         Standard orientation:
 ---------------------------------------------------------------------
 Center     Atomic      Atomic             Coordinates (Angstroms)
 Number     Number       Type             X           Y           Z
 ---------------------------------------------------------------------
      1          8           0        4.136079   -4.988703   -1.711952
      2          8           0       -3.072773   -4.695354   -1.041809
      3          8           0       -6.948670   -1.238702   -2.042103
      4          8           0       -3.981467   -3.054668    0.118566
      5          8           0       -7.661377   -0.196021   -0.177018
      6          8           0        3.083362    2.104626    0.465466
      7          7           0        0.096660   -0.508450    0.705497
      8          7           0       -1.495992    1.825657    0.330996
      9          7           0        3.166391   -3.237394   -0.608290
     10          7           0        1.014229    2.817865   -0.024624
     11          6           0       -0.779691   -2.365168    1.528402
     12          6           0       -1.133182   -0.992641    1.055329
     13          6           0        0.576398   -2.605509    1.251323
     14          6           0        1.178573   -1.461038    0.741205
     15          6           0       -3.776498    1.646930    0.234815
     16          6           0       -2.468189    1.002704    0.619262
     17          6           0       -2.326025   -0.295491    1.106020
     18          6           0       -3.437777    2.938562   -0.211226
     19          6           0       -1.848138   -3.292048    2.101422
     20          6           0        5.391952   -2.843498   -1.407107
     21          6           0        3.403403   -1.879872   -0.164452
     22          6           0       -1.953583    3.091078   -0.198421
     23          6           0        4.906814   -1.711763   -0.609095
     24          6           0       -5.118724    0.967213    0.250328
     25          6           0        2.564634   -1.012516    0.373789
     26          6           0        1.284569   -3.915363    1.683849
     27          6           0        4.177855   -3.892130   -1.187706
     28          6           0       -2.246046   -4.361492    1.171562
     29          6           0       -5.329257    0.000256   -0.817485
     30          6           0       -4.305221    4.004601   -0.588767
     31          6           0       -1.050278    4.179203   -0.297567
     32          6           0        6.732841   -3.529655   -1.309020
     33          6           0        5.677536   -0.744223   -0.015095
     34          6           0        0.354494    3.971522   -0.239736
     35          6           0        1.379182    5.029698   -0.402746
     36          6           0        2.611550    4.444923   -0.201257
     37          6           0       -3.166301   -3.932049    0.104217
     38          6           0        5.444292    0.387968    0.816542
     39          6           0       -6.739730   -0.431578   -0.911861
     40          6           0        3.918765    5.058509   -0.326738
     41          6           0        2.337625    3.064408    0.134152
     42          6           0        1.015117    6.493840   -0.585685
     43          6           0        4.562016    5.324409    1.021399
     44          1           0        0.391602    0.349937    0.466332
     45          1           0       -3.229921   -0.971569    1.344793
     46          1           0       -2.725571   -2.619046    2.331049
     47          1           0       -1.367515   -3.775620    3.032444
     48          1           0        5.211234   -2.496165   -2.489841
     49          1           0       -5.355223    0.529767    1.198689
     50          1           0       -5.814158    1.569382    0.231776
     51          1           0        2.639580    0.038419    0.260238
     52          1           0       -0.642620    1.738047    0.535135
     53          1           0        1.323425   -4.755878    0.987240
     54          1           0        2.312437   -3.603752    2.128044
     55          1           0        0.655055   -4.190050    2.516594
     56          1           0        2.215244   -3.746922   -0.803378
     57          1           0       -1.364114   -4.839108    0.513579
     58          1           0       -2.886111   -5.175825    1.608261
     59          1           0       -5.046588   -1.145906   -0.474238
     60          1           0       -4.949357    0.136402   -1.800077
     61          1           0       -3.808907    4.909176   -0.286864
     62          1           0       -5.330589    3.961540   -0.071658
     63          1           0       -4.293078    4.188318   -1.691205
     64          1           0       -1.396436    5.060995   -0.714343
     65          1           0        7.573082   -2.686421   -1.437919
     66          1           0        6.925886   -4.244603   -2.124400
     67          1           0        6.759013   -4.112680   -0.453705
     68          1           0        6.728402   -0.904223   -0.537567
     69          1           0        5.186245    1.283396    0.179304
     70          1           0        6.307159    0.937962    1.255886
     71          1           0        4.914593    0.076086    1.719566
     72          1           0        3.920420    5.959838   -0.862333
     73          1           0        4.392377    4.201923   -0.764770
     74          1           0        0.037689    6.437355   -1.168006
     75          1           0        2.053223    6.999909   -1.117182
     76          1           0        0.710554    6.864349    0.414247
     77          1           0        4.190034    6.174088    1.680507
     78          1           0        5.634999    5.541094    0.860244
     79          1           0        4.634497    4.407159    1.450253
     80          1           0       -3.614124   -4.301821   -1.719953
     81          1           0       -7.836542   -1.567464   -2.228902
 ---------------------------------------------------------------------

 SCF Done:  E(RB3LYP) =  -1949.08446689     A.U. after   20 cycles

 Excitation energies and oscillator strengths:

 Excited State   1:      Singlet-A      1.6620 eV  746.00 nm  f=0.2847  <S**2>=0.000
     154 ->157         0.11221
     156 ->157         0.70729
     156 <-157        -0.14990
 This state for optimization and/or second-order correction.
 Total Energy, E(TD-HF/TD-DFT) =  -1949.02339030
 Copying the excited state density for this state as the 1-particle RhoCI density.

 The electronic state is 1-A.
 Alpha  occ. eigenvalues --  -19.18205 -19.15929 -19.14439 -19.12250 -19.10484
 Alpha  occ. eigenvalues --  -19.09888 -14.37700 -14.36933 -14.36488 -14.27696
 Alpha  occ. eigenvalues --  -10.33340 -10.31735 -10.28460 -10.25676 -10.25471
 Alpha  occ. eigenvalues --  -10.25044 -10.24165 -10.24046 -10.23798 -10.22953
 Alpha  occ. eigenvalues --  -10.22707 -10.22243 -10.21875 -10.21556 -10.21469
 Alpha  occ. eigenvalues --  -10.21078 -10.20865 -10.20745 -10.20559 -10.20339
 Alpha  occ. eigenvalues --  -10.20099 -10.20072 -10.20030 -10.19743 -10.19667
 Alpha  occ. eigenvalues --  -10.19457 -10.19118 -10.18830 -10.18620 -10.17983
 Alpha  occ. eigenvalues --  -10.17866 -10.17422 -10.17165  -1.10936  -1.07459
 Alpha  occ. eigenvalues --   -1.03086  -1.01725  -1.00058  -0.99659  -0.99213
 Alpha  occ. eigenvalues --   -0.97409  -0.94084  -0.91486  -0.83972  -0.83375
 Alpha  occ. eigenvalues --   -0.82179  -0.81092  -0.80648  -0.80259  -0.79131
 Alpha  occ. eigenvalues --   -0.78360  -0.77031  -0.75489  -0.74990  -0.73290
 Alpha  occ. eigenvalues --   -0.71959  -0.70471  -0.69632  -0.69409  -0.69084
 Alpha  occ. eigenvalues --   -0.67869  -0.65396  -0.63450  -0.62560  -0.62220
 Alpha  occ. eigenvalues --   -0.61085  -0.60882  -0.59672  -0.58256  -0.57494
 Alpha  occ. eigenvalues --   -0.56472  -0.56286  -0.55480  -0.53990  -0.52909
 Alpha  occ. eigenvalues --   -0.51821  -0.51543  -0.51285  -0.50787  -0.50294
 Alpha  occ. eigenvalues --   -0.50129  -0.49484  -0.48464  -0.47415  -0.47101
 Alpha  occ. eigenvalues --   -0.46888  -0.46757  -0.46484  -0.46002  -0.45900
 Alpha  occ. eigenvalues --   -0.45279  -0.44815  -0.44448  -0.44020  -0.43831
 Alpha  occ. eigenvalues --   -0.43729  -0.43052  -0.42874  -0.42675  -0.42562
 Alpha  occ. eigenvalues --   -0.42241  -0.42056  -0.41720  -0.41445  -0.41312
 Alpha  occ. eigenvalues --   -0.41086  -0.41051  -0.40859  -0.40645  -0.40408
 Alpha  occ. eigenvalues --   -0.39752  -0.39398  -0.38904  -0.38703  -0.38516
 Alpha  occ. eigenvalues --   -0.38260  -0.38059  -0.37684  -0.37543  -0.37132
 Alpha  occ. eigenvalues --   -0.36521  -0.36225  -0.35613  -0.35283  -0.35180
 Alpha  occ. eigenvalues --   -0.34445  -0.33866  -0.33584  -0.33062  -0.32827
 Alpha  occ. eigenvalues --   -0.32654  -0.31553  -0.30346  -0.29731  -0.29557
 Alpha  occ. eigenvalues --   -0.27631  -0.26652  -0.26060  -0.25859  -0.25516
 Alpha  occ. eigenvalues --   -0.25288  -0.24722  -0.24108  -0.22680  -0.21743
 Alpha  occ. eigenvalues --   -0.17753
 Alpha virt. eigenvalues --   -0.11320  -0.06326  -0.03224  -0.01177   0.00349
 Alpha virt. eigenvalues --    0.01334   0.01902   0.02658   0.03510   0.03696
 Alpha virt. eigenvalues --    0.04563   0.04727   0.05342   0.05697   0.06039

 Mulliken charges:
               1
     1  O   -0.228444
     2  O   -0.200425
     3  O   -0.258932
     4  O   -0.206044
     5  O   -0.212631
     6  O   -0.250653
     7  N   -0.077408
     8  N    0.051515
     9  N   -0.150760
    10  N   -0.259387
    11  C   -0.147268
    12  C    0.062618
    13  C   -0.186735
    14  C    0.016813
    15  C   -0.119564
    16  C    0.046196
    17  C   -0.066050
    18  C   -0.135672
    19  C    0.107644
    20  C   -0.061336
    21  C    0.170998
    22  C    0.093941
    23  C   -0.088922
    24  C    0.351844
    25  C   -0.029795
    26  C    0.086216
    27  C    0.068448
    28  C    0.020321
    29  C   -0.054631
    30  C    0.099745
    31  C   -0.061065
    32  C    0.099801
    33  C   -0.165659
    34  C    0.071322
    35  C   -0.152738
    36  C   -0.158463
    37  C    0.085606
    38  C    0.144419
    39  C    0.121274
    40  C    0.138251
    41  C    0.127021
    42  C    0.051404
    43  C    0.033536
    44  H    0.081173
    45  H    0.038688
    46  H    0.028385
    47  H    0.031269
    48  H    0.046860
    49  H   -0.009604
    50  H   -0.118314
    51  H    0.007876
    52  H    0.016510
    53  H    0.035197
    54  H    0.045993
    55  H   -0.008363
    56  H    0.166994
    57  H    0.067123
    58  H    0.056420
    59  H    0.098022
    60  H    0.026707
    61  H   -0.000387
    62  H    0.046195
    63  H    0.025929
    64  H   -0.048142
    65  H    0.030705
    66  H    0.022486
    67  H    0.000133
    68  H   -0.002789
    69  H    0.058507
    70  H   -0.014815
    71  H    0.030523
    72  H   -0.026929
    73  H    0.000617
    74  H    0.028221
    75  H    0.059469
    76  H    0.042698
    77  H    0.025075
    78  H   -0.009730
    79  H   -0.011087
    80  H    0.176065
    81  H    0.179970
 Sum of Mulliken charges =  -0.00000

 Dipole moment (field-independent basis, Debye):
    X=             -2.4754    Y=              1.5168    Z=             -0.2451  Tot=              2.9135
 Quadrupole moment (field-independent basis, Debye-Ang):
   XX=           -261.1440   YY=           -242.7607   ZZ=           -251.4197
   XY=             17.0826   XZ=             11.2516   YZ=            -12.6347

 Normal termination of Gaussian 16 at Wed Jul  3 11:31:26 2019.
