 Gaussian 16, Revision A.03,
 Gaussian 16:  ES64L-G16RevA.03 25-Dec-2016

 --------------------------
 # td=(NStates=1) B3LYP/SVP
 --------------------------

 --
 TD
 --
 Symbolic Z-matrix:
 Charge =  0 Multiplicity = 1

                         Standard orientation:
 ---------------------------------------------------------------------
 Center     Atomic      Atomic             Coordinates (Angstroms)
 Number     Number       Type             X           Y           Z
 ---------------------------------------------------------------------
      1          8           0        4.167172   -4.883459   -1.826549
      2          8           0       -3.065700   -5.002689   -0.923137
      3          8           0       -7.027248   -1.494953   -1.951912
      4          8           0       -3.853600   -3.145094   -0.069364
      5          8           0       -7.752436   -0.517191   -0.000406
      6          8           0        3.089924    2.314756    0.304693
      7          7           0        0.262632   -0.482999    0.618887
      8          7           0       -1.650457    1.825869    0.363136
      9          7           0        3.317595   -3.044740   -0.700045
     10          7           0        0.885752    2.882823    0.097860
     11          6           0       -0.644196   -2.384036    1.311623
     12          6           0       -0.960416   -1.077454    0.953700
     13          6           0        0.745789   -2.589821    1.161379
     14          6           0        1.280426   -1.329511    0.685598
     15          6           0       -3.746640    1.488565    0.250679
     16          6           0       -2.545966    0.897149    0.511549
     17          6           0       -2.262945   -0.483849    0.799514
     18          6           0       -3.521305    2.893948    0.058158
     19          6           0       -1.525958   -3.237482    2.026259
     20          6           0        5.586536   -2.792114   -1.370861
     21          6           0        3.591157   -1.749767   -0.260814
     22          6           0       -2.075080    3.082067    0.098904
     23          6           0        5.054120   -1.586593   -0.508197
     24          6           0       -5.100875    0.804818    0.263845
     25          6           0        2.642753   -1.018790    0.356924
     26          6           0        1.416827   -3.855303    1.589954
     27          6           0        4.312031   -3.730427   -1.323957
     28          6           0       -2.149117   -4.483267    1.209925
     29          6           0       -5.454414   -0.040045   -1.012339
     30          6           0       -4.488248    3.855871   -0.201292
     31          6           0       -1.165779    4.156661   -0.245885
     32          6           0        6.792826   -3.559261   -0.723714
     33          6           0        5.873206   -0.561155   -0.057378
     34          6           0        0.186235    4.002291   -0.245854
     35          6           0        1.102380    5.191014   -0.484079
     36          6           0        2.296527    4.650194   -0.213481
     37          6           0       -3.106443   -4.049551    0.068687
     38          6           0        5.506577    0.523731    0.852961
     39          6           0       -6.873741   -0.570231   -0.885169
     40          6           0        3.733400    5.199474   -0.437724
     41          6           0        2.152284    3.115663    0.100776
     42          6           0        0.760489    6.653177   -0.715980
     43          6           0        4.421724    5.376304    0.881701
     44          1           0        0.455685    0.503652    0.200115
     45          1           0       -3.046142   -1.153389    0.947072
     46          1           0       -2.328501   -2.817953    2.518493
     47          1           0       -1.119028   -3.898496    2.957213
     48          1           0        5.834514   -2.630236   -2.547872
     49          1           0       -5.371370    0.271578    1.112328
     50          1           0       -5.986631    1.387261    0.486893
     51          1           0        2.965105   -0.003214    0.352185
     52          1           0       -0.586054    1.794807    0.501082
     53          1           0        1.567810   -4.446665    0.795012
     54          1           0        2.614086   -3.764140    1.998702
     55          1           0        0.798064   -4.506317    2.449620
     56          1           0        2.340652   -3.363228   -0.716724
     57          1           0       -1.159444   -4.866632    0.717273
     58          1           0       -2.517244   -5.245967    1.918644
     59          1           0       -4.603780   -0.730792   -1.292076
     60          1           0       -5.437929    0.858105   -1.799535
     61          1           0       -4.230501    4.708667    0.459455
     62          1           0       -5.559981    3.699190    0.242216
     63          1           0       -4.636109    4.213532   -1.263178
     64          1           0       -1.543063    5.172957   -0.397189
     65          1           0        7.801210   -2.884891   -0.586182
     66          1           0        7.008980   -4.497092   -1.365275
     67          1           0        6.661113   -3.945021    0.198428
     68          1           0        6.925977   -0.636259   -0.535603
     69          1           0        5.169152    1.550634    0.204284
     70          1           0        6.430530    0.837941    1.367566
     71          1           0        4.530099    0.307342    1.423601
     72          1           0        3.796461    6.152910   -0.956321
     73          1           0        4.282140    4.319928   -1.068576
     74          1           0        0.425204    6.666207   -1.788747
     75          1           0        1.415928    7.395785   -0.687013
     76          1           0        0.021560    6.899138    0.026793
     77          1           0        3.730894    6.064239    1.374423
     78          1           0        5.286882    5.640847    0.889103
     79          1           0        4.497758    4.510748    1.387805
     80          1           0       -3.654054   -4.868796   -1.588971
     81          1           0       -7.958490   -1.887621   -1.832986
 ---------------------------------------------------------------------

 SCF Done:  E(RB3LYP) =  -1949.06818930     A.U. after   19 cycles

 Excitation energies and oscillator strengths:

 Excited State   1:      Singlet-A      1.8134 eV  683.71 nm  f=0.3605  <S**2>=0.000
     156 ->157         0.70562
     156 <-157        -0.11994
 This state for optimization and/or second-order correction.
 Total Energy, E(TD-HF/TD-DFT) =  -1949.00154801
 Copying the excited state density for this state as the 1-particle RhoCI density.

 The electronic state is 1-A.
 Alpha  occ. eigenvalues --  -19.17524 -19.17377 -19.15093 -19.14330 -19.10791
 Alpha  occ. eigenvalues --  -19.08707 -14.39583 -14.37810 -14.36659 -14.28688
 Alpha  occ. eigenvalues --  -10.34024 -10.33475 -10.29684 -10.25616 -10.25424
 Alpha  occ. eigenvalues --  -10.25170 -10.24577 -10.24483 -10.23421 -10.23281
 Alpha  occ. eigenvalues --  -10.23115 -10.23114 -10.22844 -10.22497 -10.22095
 Alpha  occ. eigenvalues --  -10.21707 -10.21507 -10.21135 -10.21100 -10.20766
 Alpha  occ. eigenvalues --  -10.20040 -10.19896 -10.19868 -10.19664 -10.19439
 Alpha  occ. eigenvalues --  -10.19344 -10.19307 -10.19006 -10.18849 -10.18664
 Alpha  occ. eigenvalues --  -10.18461 -10.17720 -10.13621  -1.11695  -1.06884
 Alpha  occ. eigenvalues --   -1.02772  -1.01714  -1.01070  -1.00079  -0.99314
 Alpha  occ. eigenvalues --   -0.98682  -0.95033  -0.91945  -0.84138  -0.82187
 Alpha  occ. eigenvalues --   -0.81903  -0.80898  -0.79991  -0.79041  -0.77909
 Alpha  occ. eigenvalues --   -0.77820  -0.77275  -0.75689  -0.74837  -0.73530
 Alpha  occ. eigenvalues --   -0.72115  -0.69984  -0.69533  -0.69208  -0.68725
 Alpha  occ. eigenvalues --   -0.67658  -0.67016  -0.64284  -0.62797  -0.62408
 Alpha  occ. eigenvalues --   -0.61305  -0.60060  -0.58913  -0.58326  -0.57528
 Alpha  occ. eigenvalues --   -0.57104  -0.56661  -0.56010  -0.53987  -0.53303
 Alpha  occ. eigenvalues --   -0.52613  -0.52255  -0.51625  -0.49935  -0.49780
 Alpha  occ. eigenvalues --   -0.49421  -0.49292  -0.48180  -0.47886  -0.47190
 Alpha  occ. eigenvalues --   -0.46691  -0.46555  -0.46220  -0.45916  -0.45759
 Alpha  occ. eigenvalues --   -0.45398  -0.45211  -0.44945  -0.44455  -0.44162
 Alpha  occ. eigenvalues --   -0.43640  -0.43422  -0.43221  -0.43167  -0.42926
 Alpha  occ. eigenvalues --   -0.42258  -0.41894  -0.41727  -0.41403  -0.41263
 Alpha  occ. eigenvalues --   -0.41146  -0.40794  -0.40519  -0.40302  -0.40157
 Alpha  occ. eigenvalues --   -0.39663  -0.39489  -0.39034  -0.38758  -0.38059
 Alpha  occ. eigenvalues --   -0.37552  -0.37315  -0.37202  -0.36399  -0.36263
 Alpha  occ. eigenvalues --   -0.36135  -0.35564  -0.35174  -0.35073  -0.34613
 Alpha  occ. eigenvalues --   -0.34324  -0.34009  -0.33734  -0.33401  -0.32781
 Alpha  occ. eigenvalues --   -0.32645  -0.31809  -0.31643  -0.30373  -0.30066
 Alpha  occ. eigenvalues --   -0.29102  -0.27247  -0.26751  -0.26173  -0.25640
 Alpha  occ. eigenvalues --   -0.25098  -0.24695  -0.23444  -0.23149  -0.22379
 Alpha  occ. eigenvalues --   -0.18787
 Alpha virt. eigenvalues --   -0.11597  -0.05505  -0.04402  -0.02637  -0.01825
 Alpha virt. eigenvalues --   -0.01136   0.01467   0.02980   0.03272   0.03938
 Alpha virt. eigenvalues --    0.04429   0.05190   0.05532   0.05829   0.05867

 Mulliken charges:
               1
     1  O   -0.267461
     2  O   -0.171884
     3  O   -0.256852
     4  O   -0.177579
     5  O   -0.248282
     6  O   -0.275516
     7  N   -0.079167
     8  N   -0.026466
     9  N   -0.096520
    10  N   -0.239379
    11  C   -0.002310
    12  C    0.052322
    13  C   -0.141157
    14  C    0.062297
    15  C   -0.041568
    16  C    0.049579
    17  C    0.016007
    18  C   -0.090440
    19  C    0.003684
    20  C   -0.109288
    21  C    0.085388
    22  C    0.057556
    23  C   -0.034752
    24  C    0.081642
    25  C   -0.081759
    26  C    0.028506
    27  C    0.143200
    28  C   -0.060704
    29  C   -0.055107
    30  C    0.021196
    31  C   -0.111649
    32  C    0.029975
    33  C   -0.121937
    34  C    0.089814
    35  C   -0.124533
    36  C   -0.200152
    37  C    0.151132
    38  C    0.005076
    39  C    0.209818
    40  C    0.030241
    41  C    0.129630
    42  C    0.171626
    43  C    0.178925
    44  H    0.176894
    45  H   -0.026485
    46  H   -0.006347
    47  H    0.028989
    48  H    0.076003
    49  H   -0.016223
    50  H   -0.016946
    51  H    0.001638
    52  H    0.149996
    53  H   -0.000355
    54  H    0.050864
    55  H    0.048532
    56  H    0.138399
    57  H    0.055374
    58  H    0.059202
    59  H    0.077449
    60  H    0.061187
    61  H    0.014276
    62  H    0.020582
    63  H    0.041367
    64  H   -0.024367
    65  H    0.032138
    66  H    0.042909
    67  H   -0.013763
    68  H    0.016721
    69  H    0.104999
    70  H    0.021652
    71  H    0.058669
    72  H   -0.013665
    73  H    0.026223
    74  H    0.022369
    75  H   -0.033708
    76  H    0.022446
    77  H   -0.005740
    78  H   -0.088031
    79  H   -0.022684
    80  H    0.141784
    81  H    0.194497
 Sum of Mulliken charges =  -0.00000

 Dipole moment (field-independent basis, Debye):
    X=             -2.1405    Y=              0.3151    Z=              0.6074  Tot=              2.2472
 Quadrupole moment (field-independent basis, Debye-Ang):
   XX=           -253.3438   YY=           -245.7048   ZZ=           -254.9718
   XY=             12.4571   XZ=             10.7859   YZ=            -15.5208

 Normal termination of Gaussian 16 at Sun Jun 30 22:42:36 2019.
