 Gaussian 16, Revision A.03,
 Gaussian 16:  ES64L-G16RevA.03 25-Dec-2016

 --------------------------
 # td=(NStates=1) B3LYP/SVP
 --------------------------

 --
 TD
 --
 Symbolic Z-matrix:
 Charge =  0 Multiplicity = 1

                         Standard orientation:
 ---------------------------------------------------------------------
 Center     Atomic      Atomic             Coordinates (Angstroms)
 Number     Number       Type             X           Y           Z
 ---------------------------------------------------------------------
      1          8           0        4.569305   -4.806336   -1.523863
      2          8           0       -2.651078   -4.937814   -1.187831
      3          8           0       -7.082372   -1.766444   -1.799236
      4          8           0       -3.619523   -3.357418    0.134855
      5          8           0       -7.446250   -0.997428    0.209710
      6          8           0        2.845047    2.581784    0.437599
      7          7           0        0.296087   -0.465483    0.536987
      8          7           0       -1.596479    1.787032    0.349277
      9          7           0        3.360982   -3.093526   -0.726220
     10          7           0        0.518509    2.934274    0.102956
     11          6           0       -0.487937   -2.376817    1.360355
     12          6           0       -0.788566   -1.091990    0.911522
     13          6           0        0.885657   -2.532414    1.173779
     14          6           0        1.305035   -1.319300    0.629727
     15          6           0       -3.793945    1.287491    0.289631
     16          6           0       -2.486581    0.781096    0.527456
     17          6           0       -2.163392   -0.551846    0.753118
     18          6           0       -3.660759    2.616435   -0.090286
     19          6           0       -1.391776   -3.484580    1.861104
     20          6           0        5.715325   -2.627669   -1.247484
     21          6           0        3.660444   -1.745440   -0.208295
     22          6           0       -2.238961    2.896392    0.072224
     23          6           0        5.059712   -1.501415   -0.485938
     24          6           0       -5.111281    0.607162    0.359600
     25          6           0        2.676556   -0.938219    0.342690
     26          6           0        1.720711   -3.654072    1.686848
     27          6           0        4.573100   -3.631834   -1.269675
     28          6           0       -1.776767   -4.607071    0.972119
     29          6           0       -5.347826   -0.353860   -0.856840
     30          6           0       -4.655651    3.704781   -0.438541
     31          6           0       -1.599531    4.154821   -0.207831
     32          6           0        6.950906   -3.248872   -0.728572
     33          6           0        5.830675   -0.354759   -0.092052
     34          6           0       -0.111532    4.078795   -0.344909
     35          6           0        0.785547    5.276961   -0.518306
     36          6           0        2.079957    4.752438   -0.342697
     37          6           0       -2.724561   -4.243406   -0.009996
     38          6           0        5.222779    0.922233    0.448395
     39          6           0       -6.782388   -1.010964   -0.819019
     40          6           0        3.437567    5.575848   -0.341398
     41          6           0        1.898418    3.277802    0.126744
     42          6           0        0.266092    6.611110   -0.743468
     43          6           0        3.923228    5.750315    1.161746
     44          1           0        0.458398    0.463408   -0.010005
     45          1           0       -2.944177   -1.070201    0.880653
     46          1           0       -2.337398   -3.094714    2.182812
     47          1           0       -0.970669   -3.948788    2.711948
     48          1           0        5.899261   -2.252908   -2.301382
     49          1           0       -5.252454   -0.104232    1.238438
     50          1           0       -6.120667    1.386280    0.457772
     51          1           0        2.976795    0.040541    0.351332
     52          1           0       -0.573279    1.995965    0.276151
     53          1           0        1.739849   -4.675687    1.123237
     54          1           0        2.876037   -3.409497    1.771871
     55          1           0        1.546025   -4.042616    2.708352
     56          1           0        2.487353   -3.566260   -0.649864
     57          1           0       -0.925240   -5.109724    0.516173
     58          1           0       -2.119390   -5.327415    1.694200
     59          1           0       -4.533138   -1.164765   -0.938117
     60          1           0       -5.209341    0.250089   -1.817559
     61          1           0       -4.202020    4.849783   -0.053629
     62          1           0       -5.650747    3.663656    0.257637
     63          1           0       -4.852208    3.796726   -1.574791
     64          1           0       -2.057600    5.097238   -0.223987
     65          1           0        7.773573   -2.236105   -0.645555
     66          1           0        7.544017   -4.051882   -1.505397
     67          1           0        6.718676   -3.493914    0.329921
     68          1           0        6.819158   -0.261177   -0.256091
     69          1           0        4.305104    1.198900    0.010580
     70          1           0        6.038336    1.845749    0.317037
     71          1           0        4.912560    0.727304    1.670107
     72          1           0        3.349305    6.499413   -1.045933
     73          1           0        4.295963    4.898527   -0.910685
     74          1           0       -0.167186    6.400472   -1.710701
     75          1           0        1.233668    7.311948   -1.130401
     76          1           0       -0.262688    6.853434    0.048568
     77          1           0        3.351808    6.319684    1.685423
     78          1           0        4.883965    6.306578    1.064347
     79          1           0        4.045696    4.659732    1.414315
     80          1           0       -3.222733   -4.507826   -1.765887
     81          1           0       -8.050854   -2.229471   -1.772260
 ---------------------------------------------------------------------

 SCF Done:  E(RB3LYP) =  -1949.02924667     A.U. after   16 cycles

 Excitation energies and oscillator strengths:

 Excited State   1:      Singlet-A      1.7864 eV  694.05 nm  f=0.2868  <S**2>=0.000
     156 ->157         0.70744
 This state for optimization and/or second-order correction.
 Total Energy, E(TD-HF/TD-DFT) =  -1948.96359775
 Copying the excited state density for this state as the 1-particle RhoCI density.

 The electronic state is 1-A.
 Alpha  occ. eigenvalues --  -19.19469 -19.19357 -19.13915 -19.11027 -19.10873
 Alpha  occ. eigenvalues --  -19.10299 -14.38608 -14.35257 -14.34399 -14.30266
 Alpha  occ. eigenvalues --  -10.33623 -10.31567 -10.28612 -10.27806 -10.24255
 Alpha  occ. eigenvalues --  -10.23995 -10.23411 -10.22969 -10.22866 -10.22778
 Alpha  occ. eigenvalues --  -10.22706 -10.22052 -10.21413 -10.21412 -10.21403
 Alpha  occ. eigenvalues --  -10.21205 -10.20926 -10.20887 -10.20676 -10.20385
 Alpha  occ. eigenvalues --  -10.20353 -10.20253 -10.20060 -10.19899 -10.19867
 Alpha  occ. eigenvalues --  -10.19863 -10.19780 -10.19460 -10.19235 -10.19192
 Alpha  occ. eigenvalues --  -10.18907 -10.18029 -10.17343  -1.10778  -1.10688
 Alpha  occ. eigenvalues --   -1.03387  -1.02190  -1.01665  -1.00012  -0.99700
 Alpha  occ. eigenvalues --   -0.98889  -0.92139  -0.91070  -0.83994  -0.82194
 Alpha  occ. eigenvalues --   -0.81731  -0.80761  -0.79723  -0.79715  -0.78235
 Alpha  occ. eigenvalues --   -0.76108  -0.75707  -0.75094  -0.73694  -0.71999
 Alpha  occ. eigenvalues --   -0.70225  -0.69846  -0.69256  -0.68974  -0.67339
 Alpha  occ. eigenvalues --   -0.66722  -0.64649  -0.63321  -0.62169  -0.61716
 Alpha  occ. eigenvalues --   -0.61217  -0.59875  -0.59021  -0.57363  -0.56965
 Alpha  occ. eigenvalues --   -0.56178  -0.55573  -0.54867  -0.54412  -0.53496
 Alpha  occ. eigenvalues --   -0.53006  -0.51971  -0.51422  -0.49842  -0.49419
 Alpha  occ. eigenvalues --   -0.49232  -0.48851  -0.48374  -0.48174  -0.47851
 Alpha  occ. eigenvalues --   -0.47286  -0.47076  -0.46639  -0.46067  -0.45617
 Alpha  occ. eigenvalues --   -0.45055  -0.44767  -0.44706  -0.44324  -0.43645
 Alpha  occ. eigenvalues --   -0.43027  -0.42941  -0.42598  -0.42328  -0.41892
 Alpha  occ. eigenvalues --   -0.41522  -0.41466  -0.41383  -0.41216  -0.40912
 Alpha  occ. eigenvalues --   -0.40762  -0.40601  -0.39988  -0.39554  -0.39398
 Alpha  occ. eigenvalues --   -0.38934  -0.38916  -0.38106  -0.37898  -0.37579
 Alpha  occ. eigenvalues --   -0.37507  -0.37257  -0.37161  -0.36792  -0.36223
 Alpha  occ. eigenvalues --   -0.36002  -0.35111  -0.34623  -0.34511  -0.34040
 Alpha  occ. eigenvalues --   -0.33951  -0.33405  -0.33174  -0.32973  -0.32738
 Alpha  occ. eigenvalues --   -0.32586  -0.32417  -0.31276  -0.29796  -0.29367
 Alpha  occ. eigenvalues --   -0.29034  -0.26934  -0.26013  -0.25677  -0.25252
 Alpha  occ. eigenvalues --   -0.25092  -0.24675  -0.24357  -0.23177  -0.21139
 Alpha  occ. eigenvalues --   -0.17677
 Alpha virt. eigenvalues --   -0.10245  -0.05975  -0.04791  -0.03436  -0.00059
 Alpha virt. eigenvalues --    0.00907   0.01115   0.03105   0.03423   0.03689
 Alpha virt. eigenvalues --    0.03962   0.04438   0.04709   0.05032   0.05616

 Mulliken charges:
               1
     1  O   -0.193208
     2  O   -0.145042
     3  O   -0.171962
     4  O   -0.277654
     5  O   -0.261447
     6  O   -0.210198
     7  N    0.019086
     8  N   -0.011142
     9  N   -0.175569
    10  N   -0.351676
    11  C   -0.105121
    12  C    0.043053
    13  C   -0.096930
    14  C    0.042373
    15  C   -0.038356
    16  C    0.071222
    17  C    0.072142
    18  C   -0.089374
    19  C    0.141589
    20  C    0.004344
    21  C    0.119232
    22  C    0.034649
    23  C   -0.062989
    24  C    0.007347
    25  C   -0.057867
    26  C   -0.025793
    27  C    0.108200
    28  C    0.089523
    29  C   -0.079603
    30  C   -0.045963
    31  C   -0.081815
    32  C   -0.040922
    33  C   -0.062031
    34  C    0.057500
    35  C   -0.154200
    36  C   -0.162265
    37  C    0.135467
    38  C   -0.027329
    39  C    0.138938
    40  C   -0.043575
    41  C    0.189938
    42  C    0.153469
    43  C    0.061211
    44  H    0.185088
    45  H   -0.141500
    46  H    0.000253
    47  H   -0.024523
    48  H    0.050613
    49  H    0.039814
    50  H    0.047534
    51  H   -0.086535
    52  H    0.118646
    53  H    0.027216
    54  H    0.046493
    55  H    0.019010
    56  H    0.119339
    57  H    0.015195
    58  H    0.040391
    59  H    0.066779
    60  H    0.025363
    61  H    0.039380
    62  H    0.055276
    63  H    0.057203
    64  H   -0.039498
    65  H    0.027701
    66  H    0.075899
    67  H    0.033967
    68  H   -0.043794
    69  H    0.073976
    70  H    0.030889
    71  H    0.053803
    72  H    0.018334
    73  H    0.028048
    74  H    0.029179
    75  H    0.033006
    76  H    0.017473
    77  H   -0.024772
    78  H    0.009092
    79  H    0.060211
    80  H    0.158162
    81  H    0.240035
 Sum of Mulliken charges =  -0.00000

 Dipole moment (field-independent basis, Debye):
    X=             -2.2671    Y=              1.0028    Z=             -2.0357  Tot=              3.2077
 Quadrupole moment (field-independent basis, Debye-Ang):
   XX=           -249.8419   YY=           -239.7135   ZZ=           -252.4995
   XY=             17.3479   XZ=             16.7128   YZ=            -11.1153

 Normal termination of Gaussian 16 at Fri Jun 28 08:34:52 2019.
