 Gaussian 16, Revision A.03,
 Gaussian 16:  ES64L-G16RevA.03 25-Dec-2016

 --------------------------
 # td=(NStates=1) B3LYP/SVP
 --------------------------

 --
 TD
 --
 Symbolic Z-matrix:
 Charge =  0 Multiplicity = 1

                         Standard orientation:
 ---------------------------------------------------------------------
 Center     Atomic      Atomic             Coordinates (Angstroms)
 Number     Number       Type             X           Y           Z
 ---------------------------------------------------------------------
      1          8           0        4.281239   -4.968418   -1.768459
      2          8           0       -3.135341   -5.014571   -0.896699
      3          8           0       -6.667937   -1.734718   -1.917001
      4          8           0       -3.750062   -3.078251    0.172653
      5          8           0       -7.632998   -0.370682   -0.346555
      6          8           0        2.996642    2.379187    0.388253
      7          7           0        0.309872   -0.434519    0.683777
      8          7           0       -1.539963    1.946492    0.444397
      9          7           0        3.208638   -3.182981   -0.796733
     10          7           0        0.819230    2.916314    0.064711
     11          6           0       -0.664313   -2.279757    1.519725
     12          6           0       -0.981154   -0.939300    1.124423
     13          6           0        0.733333   -2.603076    1.291676
     14          6           0        1.317749   -1.414098    0.789977
     15          6           0       -3.717344    1.549501    0.304480
     16          6           0       -2.448074    0.973171    0.654967
     17          6           0       -2.227001   -0.349112    0.986100
     18          6           0       -3.556889    2.883801   -0.064060
     19          6           0       -1.616351   -3.261398    2.186559
     20          6           0        5.366211   -2.832819   -1.481571
     21          6           0        3.444493   -1.855569   -0.248053
     22          6           0       -2.114600    3.083366   -0.033549
     23          6           0        4.812559   -1.520962   -0.602901
     24          6           0       -5.044925    0.847751    0.384956
     25          6           0        2.638708   -1.059977    0.370547
     26          6           0        1.459519   -3.893336    1.706984
     27          6           0        4.234713   -3.836259   -1.344376
     28          6           0       -1.987997   -4.500632    1.234032
     29          6           0       -5.197111   -0.164804   -0.881703
     30          6           0       -4.537550    3.862805   -0.564126
     31          6           0       -1.220708    4.117136   -0.393509
     32          6           0        6.667608   -3.518540   -1.015889
     33          6           0        5.688193   -0.565586   -0.260574
     34          6           0        0.156740    4.016629   -0.267544
     35          6           0        1.071528    5.224588   -0.378834
     36          6           0        2.384884    4.627291   -0.118005
     37          6           0       -3.085071   -4.054541    0.105604
     38          6           0        5.468547    0.522318    0.646179
     39          6           0       -6.585580   -0.789378   -1.010112
     40          6           0        3.730221    5.313795   -0.217297
     41          6           0        2.170622    3.181891    0.142730
     42          6           0        0.618038    6.558410   -0.889757
     43          6           0        4.285655    5.494983    1.046842
     44          1           0        0.681478    0.493497    0.419675
     45          1           0       -3.067450   -0.910958    1.024417
     46          1           0       -2.580258   -2.671546    2.376720
     47          1           0       -1.164483   -3.542441    3.157047
     48          1           0        5.322995   -2.453399   -2.613386
     49          1           0       -5.293122    0.248465    1.047844
     50          1           0       -5.954723    1.355805    0.292374
     51          1           0        2.897704    0.021547    0.291172
     52          1           0       -0.615489    2.011944    0.431092
     53          1           0        1.269322   -4.548647    0.770950
     54          1           0        2.593751   -3.792851    1.820122
     55          1           0        1.136256   -4.431424    2.548024
     56          1           0        2.293374   -3.673972   -0.829022
     57          1           0       -1.172736   -5.262238    0.771961
     58          1           0       -2.590780   -5.363580    1.787939
     59          1           0       -4.420770   -1.038946   -0.895228
     60          1           0       -4.964939    0.306438   -1.845140
     61          1           0       -4.619963    4.686436    0.025026
     62          1           0       -5.446259    3.525246   -0.447838
     63          1           0       -4.272814    4.596001   -1.438668
     64          1           0       -1.469372    5.211504   -0.868162
     65          1           0        7.677823   -2.855017   -1.022180
     66          1           0        6.804997   -4.452197   -1.662463
     67          1           0        6.663801   -3.723038    0.116268
     68          1           0        6.748449   -0.780773   -0.638574
     69          1           0        5.054450    1.593773    0.372648
     70          1           0        6.577712    0.660595    1.023469
     71          1           0        4.935730    0.217969    1.662955
     72          1           0        3.795862    6.177868   -0.843105
     73          1           0        4.233303    4.405958   -0.690455
     74          1           0       -0.103707    6.386927   -1.719935
     75          1           0        1.328923    7.281435   -1.130034
     76          1           0        0.125660    7.041881   -0.057275
     77          1           0        3.734479    6.529098    1.471085
     78          1           0        5.381424    5.728291    1.096805
     79          1           0        4.316456    4.495306    1.742226
     80          1           0       -3.993952   -4.814836   -1.519764
     81          1           0       -7.747831   -1.987386   -2.202723
 ---------------------------------------------------------------------

 SCF Done:  E(RB3LYP) =  -1949.04356425     A.U. after   17 cycles

 Excitation energies and oscillator strengths:

 Excited State   1:      Singlet-A      1.8786 eV  660.00 nm  f=0.3523  <S**2>=0.000
     156 ->157         0.70608
     156 <-157        -0.11948
 This state for optimization and/or second-order correction.
 Total Energy, E(TD-HF/TD-DFT) =  -1948.97452851
 Copying the excited state density for this state as the 1-particle RhoCI density.

 The electronic state is 1-A.
 Alpha  occ. eigenvalues --  -19.20587 -19.20022 -19.15667 -19.11700 -19.10720
 Alpha  occ. eigenvalues --  -19.10060 -14.37228 -14.37223 -14.35261 -14.27887
 Alpha  occ. eigenvalues --  -10.34396 -10.32754 -10.27984 -10.26177 -10.24454
 Alpha  occ. eigenvalues --  -10.24313 -10.24285 -10.23869 -10.23814 -10.23331
 Alpha  occ. eigenvalues --  -10.22315 -10.22301 -10.21489 -10.21072 -10.20886
 Alpha  occ. eigenvalues --  -10.20877 -10.20857 -10.20707 -10.20588 -10.20585
 Alpha  occ. eigenvalues --  -10.20293 -10.20069 -10.19670 -10.19601 -10.19588
 Alpha  occ. eigenvalues --  -10.19479 -10.19172 -10.19151 -10.18939 -10.18743
 Alpha  occ. eigenvalues --  -10.18728 -10.18486 -10.18210  -1.10268  -1.08506
 Alpha  occ. eigenvalues --   -1.04205  -1.03226  -1.02124  -0.99945  -0.95831
 Alpha  occ. eigenvalues --   -0.95650  -0.94467  -0.91680  -0.83123  -0.82273
 Alpha  occ. eigenvalues --   -0.81126  -0.80696  -0.80126  -0.79097  -0.77644
 Alpha  occ. eigenvalues --   -0.77014  -0.76019  -0.75421  -0.74695  -0.73091
 Alpha  occ. eigenvalues --   -0.71888  -0.69496  -0.69266  -0.68461  -0.67595
 Alpha  occ. eigenvalues --   -0.67178  -0.65525  -0.63525  -0.62147  -0.60928
 Alpha  occ. eigenvalues --   -0.60114  -0.59215  -0.59023  -0.58030  -0.57242
 Alpha  occ. eigenvalues --   -0.57096  -0.55721  -0.54521  -0.53838  -0.53345
 Alpha  occ. eigenvalues --   -0.52606  -0.51602  -0.50798  -0.50052  -0.49130
 Alpha  occ. eigenvalues --   -0.48975  -0.48119  -0.47628  -0.47408  -0.46975
 Alpha  occ. eigenvalues --   -0.46456  -0.46349  -0.46237  -0.45929  -0.45577
 Alpha  occ. eigenvalues --   -0.45162  -0.45034  -0.44603  -0.44367  -0.43978
 Alpha  occ. eigenvalues --   -0.43535  -0.43405  -0.43271  -0.43068  -0.42718
 Alpha  occ. eigenvalues --   -0.42457  -0.41887  -0.41410  -0.41241  -0.40999
 Alpha  occ. eigenvalues --   -0.40714  -0.40289  -0.40098  -0.39901  -0.39539
 Alpha  occ. eigenvalues --   -0.39234  -0.39109  -0.38687  -0.38600  -0.38406
 Alpha  occ. eigenvalues --   -0.38112  -0.37596  -0.37423  -0.37008  -0.36727
 Alpha  occ. eigenvalues --   -0.36149  -0.35850  -0.35469  -0.35018  -0.34342
 Alpha  occ. eigenvalues --   -0.34337  -0.34051  -0.33517  -0.33161  -0.32277
 Alpha  occ. eigenvalues --   -0.31101  -0.30605  -0.30500  -0.30221  -0.29697
 Alpha  occ. eigenvalues --   -0.27792  -0.26926  -0.26644  -0.25542  -0.25296
 Alpha  occ. eigenvalues --   -0.24987  -0.24532  -0.24440  -0.22698  -0.21758
 Alpha  occ. eigenvalues --   -0.18080
 Alpha virt. eigenvalues --   -0.10644  -0.05952  -0.03911  -0.02117  -0.01135
 Alpha virt. eigenvalues --   -0.00369   0.00985   0.01236   0.02247   0.03090
 Alpha virt. eigenvalues --    0.03763   0.04490   0.04803   0.05593   0.05949

 Mulliken charges:
               1
     1  O   -0.219125
     2  O   -0.264708
     3  O   -0.231953
     4  O   -0.177887
     5  O   -0.331548
     6  O   -0.168011
     7  N   -0.176832
     8  N    0.056728
     9  N   -0.126737
    10  N   -0.296317
    11  C   -0.138727
    12  C    0.191464
    13  C   -0.147203
    14  C    0.077604
    15  C   -0.093134
    16  C    0.089681
    17  C   -0.021510
    18  C   -0.121950
    19  C    0.101495
    20  C   -0.113432
    21  C    0.206562
    22  C    0.067666
    23  C   -0.034960
    24  C    0.262695
    25  C   -0.151231
    26  C    0.071616
    27  C    0.094537
    28  C   -0.095405
    29  C   -0.107167
    30  C    0.259991
    31  C   -0.126190
    32  C   -0.019136
    33  C   -0.124833
    34  C    0.002803
    35  C   -0.117848
    36  C   -0.219716
    37  C    0.166086
    38  C   -0.033688
    39  C    0.183295
    40  C    0.141054
    41  C    0.139690
    42  C    0.140718
    43  C   -0.064767
    44  H    0.154508
    45  H   -0.052887
    46  H    0.028314
    47  H    0.031507
    48  H    0.066569
    49  H   -0.077925
    50  H   -0.006963
    51  H    0.048380
    52  H    0.031450
    53  H    0.027233
    54  H    0.044278
    55  H    0.007671
    56  H    0.134907
    57  H    0.062516
    58  H    0.052951
    59  H    0.063430
    60  H    0.036677
    61  H   -0.036632
    62  H   -0.053449
    63  H    0.023591
    64  H    0.000012
    65  H    0.024946
    66  H    0.060485
    67  H    0.023574
    68  H    0.013574
    69  H    0.102177
    70  H    0.005444
    71  H    0.041533
    72  H   -0.006184
    73  H    0.009814
    74  H    0.041528
    75  H   -0.010948
    76  H    0.015994
    77  H    0.011635
    78  H    0.007633
    79  H    0.046748
    80  H    0.230554
    81  H    0.265687
 Sum of Mulliken charges =  -0.00000

 Dipole moment (field-independent basis, Debye):
    X=             -3.6851    Y=              0.5315    Z=             -1.0066  Tot=              3.8569
 Quadrupole moment (field-independent basis, Debye-Ang):
   XX=           -257.4655   YY=           -237.4801   ZZ=           -251.5359
   XY=             24.2059   XZ=             20.6531   YZ=            -14.8455

 Normal termination of Gaussian 16 at Mon Jul  1 04:09:48 2019.
