 Gaussian 16, Revision A.03,
 Gaussian 16:  ES64L-G16RevA.03 25-Dec-2016

 --------------------------
 # td=(NStates=1) B3LYP/SVP
 --------------------------

 --
 TD
 --
 Symbolic Z-matrix:
 Charge =  0 Multiplicity = 1

                         Standard orientation:
 ---------------------------------------------------------------------
 Center     Atomic      Atomic             Coordinates (Angstroms)
 Number     Number       Type             X           Y           Z
 ---------------------------------------------------------------------
      1          8           0        4.340954   -4.850546   -1.679946
      2          8           0       -2.949516   -4.832515   -1.192583
      3          8           0       -7.121949   -1.440715   -1.925376
      4          8           0       -3.723298   -3.185542    0.144467
      5          8           0       -7.534585   -0.757369    0.166198
      6          8           0        2.968450    2.333367    0.321525
      7          7           0        0.270861   -0.453147    0.735731
      8          7           0       -1.548015    1.805534    0.294677
      9          7           0        3.321797   -3.141800   -0.667544
     10          7           0        0.735231    2.955274    0.013922
     11          6           0       -0.574881   -2.312682    1.470360
     12          6           0       -0.925933   -0.943923    1.167511
     13          6           0        0.718708   -2.595936    1.372814
     14          6           0        1.385498   -1.433975    0.885246
     15          6           0       -3.793963    1.499735    0.220697
     16          6           0       -2.506264    0.863864    0.559830
     17          6           0       -2.228452   -0.399557    1.011128
     18          6           0       -3.549446    2.741674   -0.105508
     19          6           0       -1.602596   -3.414514    2.052799
     20          6           0        5.566624   -2.708273   -1.378347
     21          6           0        3.626364   -1.865224   -0.213416
     22          6           0       -2.133464    2.955647   -0.190147
     23          6           0        5.039589   -1.562914   -0.666041
     24          6           0       -5.080090    0.724067    0.380896
     25          6           0        2.647419   -1.001804    0.487891
     26          6           0        1.400155   -3.910372    1.708979
     27          6           0        4.392318   -3.749134   -1.265616
     28          6           0       -1.911915   -4.506047    0.986133
     29          6           0       -5.463825   -0.077527   -0.944151
     30          6           0       -4.535525    3.728635   -0.677895
     31          6           0       -1.324971    4.076316   -0.450142
     32          6           0        6.825495   -3.328661   -1.068308
     33          6           0        5.846131   -0.616767   -0.188048
     34          6           0        0.069328    4.084964   -0.303323
     35          6           0        1.025371    5.227495   -0.359859
     36          6           0        2.264094    4.703145    0.007590
     37          6           0       -2.991749   -4.114358   -0.023482
     38          6           0        5.595824    0.746752    0.471230
     39          6           0       -6.779790   -0.780239   -0.794983
     40          6           0        3.632308    5.282891   -0.192893
     41          6           0        2.069018    3.224229    0.099018
     42          6           0        0.636515    6.556304   -0.807407
     43          6           0        4.250203    5.510734    1.227907
     44          1           0        0.326008    0.597924    0.450594
     45          1           0       -2.915801   -1.341025    1.239325
     46          1           0       -2.712040   -3.178717    2.291017
     47          1           0       -1.008040   -3.807527    2.948861
     48          1           0        5.225204   -2.661533   -2.477920
     49          1           0       -5.126045   -0.077630    1.197069
     50          1           0       -5.809785    1.521085    0.679993
     51          1           0        2.859696    0.041787    0.447838
     52          1           0       -0.447881    1.850447    0.507805
     53          1           0        1.474782   -4.575808    0.849249
     54          1           0        2.421881   -3.588497    2.029653
     55          1           0        1.031679   -4.154938    2.666167
     56          1           0        2.363710   -3.486047   -0.990413
     57          1           0       -0.866174   -4.767978    0.478508
     58          1           0       -2.504631   -5.436058    1.540733
     59          1           0       -4.674751   -0.642772   -1.344924
     60          1           0       -5.556789    0.756126   -1.687057
     61          1           0       -4.238658    4.888359   -0.316874
     62          1           0       -5.537008    3.820774   -0.217772
     63          1           0       -4.621604    3.948189   -1.891086
     64          1           0       -1.928221    4.820251   -0.747293
     65          1           0        7.731704   -2.769804   -1.129769
     66          1           0        6.951721   -4.300445   -1.500244
     67          1           0        6.997108   -3.691540   -0.138963
     68          1           0        6.897295   -0.731364   -0.707543
     69          1           0        4.874497    1.574778   -0.185623
     70          1           0        6.316237    1.320998    0.856115
     71          1           0        4.908952    0.641013    1.406783
     72          1           0        3.611217    6.170302   -0.732282
     73          1           0        4.242009    4.569180   -0.600079
     74          1           0       -0.013010    6.449370   -1.681842
     75          1           0        1.588530    7.169120   -1.163814
     76          1           0       -0.019199    7.119715   -0.020765
     77          1           0        3.726316    6.274189    1.735695
     78          1           0        5.248610    5.749218    1.366714
     79          1           0        3.911306    4.541171    1.923756
     80          1           0       -3.721802   -4.592352   -1.648566
     81          1           0       -7.835167   -1.941715   -1.627609
 ---------------------------------------------------------------------

 SCF Done:  E(RB3LYP) =  -1949.07502008     A.U. after   20 cycles

 Excitation energies and oscillator strengths:

 Excited State   1:      Singlet-A      1.5643 eV  792.57 nm  f=0.2895  <S**2>=0.000
     156 ->157         0.71353
     156 <-157        -0.14325
 This state for optimization and/or second-order correction.
 Total Energy, E(TD-HF/TD-DFT) =  -1949.01753225
 Copying the excited state density for this state as the 1-particle RhoCI density.

 The electronic state is 1-A.
 Alpha  occ. eigenvalues --  -19.19385 -19.18156 -19.15070 -19.13121 -19.11673
 Alpha  occ. eigenvalues --  -19.09550 -14.37887 -14.37111 -14.35840 -14.28872
 Alpha  occ. eigenvalues --  -10.33948 -10.32518 -10.29207 -10.26140 -10.25843
 Alpha  occ. eigenvalues --  -10.24109 -10.23724 -10.23719 -10.22965 -10.22897
 Alpha  occ. eigenvalues --  -10.22709 -10.22277 -10.22175 -10.21632 -10.21169
 Alpha  occ. eigenvalues --  -10.20980 -10.20957 -10.20607 -10.20556 -10.20234
 Alpha  occ. eigenvalues --  -10.20199 -10.20016 -10.20009 -10.19837 -10.19771
 Alpha  occ. eigenvalues --  -10.19432 -10.19424 -10.18780 -10.18357 -10.18202
 Alpha  occ. eigenvalues --  -10.17586 -10.17276 -10.17273  -1.11780  -1.10945
 Alpha  occ. eigenvalues --   -1.06374  -1.03452  -1.00684  -0.98507  -0.97837
 Alpha  occ. eigenvalues --   -0.96241  -0.95684  -0.91385  -0.83397  -0.82405
 Alpha  occ. eigenvalues --   -0.81873  -0.80901  -0.79560  -0.78825  -0.77502
 Alpha  occ. eigenvalues --   -0.77181  -0.76366  -0.75444  -0.74240  -0.71781
 Alpha  occ. eigenvalues --   -0.70964  -0.70424  -0.68596  -0.68505  -0.67485
 Alpha  occ. eigenvalues --   -0.67276  -0.65814  -0.64978  -0.63054  -0.61917
 Alpha  occ. eigenvalues --   -0.60354  -0.59990  -0.58965  -0.58506  -0.57189
 Alpha  occ. eigenvalues --   -0.56216  -0.55320  -0.53605  -0.53290  -0.53154
 Alpha  occ. eigenvalues --   -0.52299  -0.51342  -0.51002  -0.50836  -0.50269
 Alpha  occ. eigenvalues --   -0.49967  -0.49053  -0.48958  -0.48610  -0.48502
 Alpha  occ. eigenvalues --   -0.47698  -0.47007  -0.46734  -0.46461  -0.45122
 Alpha  occ. eigenvalues --   -0.44881  -0.44554  -0.44515  -0.44047  -0.43690
 Alpha  occ. eigenvalues --   -0.43317  -0.42963  -0.42730  -0.42571  -0.42086
 Alpha  occ. eigenvalues --   -0.41970  -0.41382  -0.41287  -0.41106  -0.41015
 Alpha  occ. eigenvalues --   -0.40575  -0.40277  -0.40073  -0.39851  -0.39725
 Alpha  occ. eigenvalues --   -0.39345  -0.39204  -0.38749  -0.38623  -0.38517
 Alpha  occ. eigenvalues --   -0.38098  -0.37794  -0.36988  -0.36610  -0.36198
 Alpha  occ. eigenvalues --   -0.35671  -0.35001  -0.34805  -0.34772  -0.34418
 Alpha  occ. eigenvalues --   -0.34380  -0.33853  -0.33744  -0.33509  -0.33087
 Alpha  occ. eigenvalues --   -0.32679  -0.32254  -0.31830  -0.30077  -0.29762
 Alpha  occ. eigenvalues --   -0.28867  -0.27584  -0.27133  -0.26382  -0.26288
 Alpha  occ. eigenvalues --   -0.25803  -0.24693  -0.23981  -0.23056  -0.21634
 Alpha  occ. eigenvalues --   -0.17078
 Alpha virt. eigenvalues --   -0.10839  -0.06355  -0.04220  -0.01574  -0.00690
 Alpha virt. eigenvalues --    0.00868   0.01951   0.02121   0.03062   0.04137
 Alpha virt. eigenvalues --    0.04580   0.05099   0.05486   0.05775   0.06710

 Mulliken charges:
               1
     1  O   -0.166750
     2  O   -0.164279
     3  O   -0.149074
     4  O   -0.210397
     5  O   -0.238101
     6  O   -0.292098
     7  N   -0.180990
     8  N   -0.152260
     9  N   -0.116817
    10  N   -0.303416
    11  C   -0.107888
    12  C    0.003131
    13  C   -0.208773
    14  C    0.142693
    15  C   -0.046555
    16  C    0.129215
    17  C   -0.088096
    18  C   -0.069331
    19  C    0.044191
    20  C   -0.007202
    21  C    0.027865
    22  C    0.036623
    23  C   -0.014874
    24  C    0.063172
    25  C   -0.063908
    26  C    0.185027
    27  C    0.007117
    28  C   -0.076275
    29  C    0.019339
    30  C   -0.039517
    31  C   -0.043699
    32  C    0.168409
    33  C   -0.137477
    34  C    0.148349
    35  C   -0.094665
    36  C   -0.198831
    37  C    0.133707
    38  C    0.012701
    39  C    0.151576
    40  C    0.201291
    41  C    0.183432
    42  C    0.056657
    43  C   -0.030534
    44  H    0.150728
    45  H    0.060490
    46  H    0.040101
    47  H    0.032546
    48  H    0.045756
    49  H    0.039966
    50  H    0.021774
    51  H    0.003908
    52  H    0.197522
    53  H    0.043921
    54  H    0.011926
    55  H   -0.005403
    56  H    0.168755
    57  H    0.061436
    58  H    0.066261
    59  H    0.025918
    60  H    0.041844
    61  H    0.015634
    62  H    0.024711
    63  H    0.062066
    64  H   -0.098328
    65  H   -0.001270
    66  H    0.007247
    67  H   -0.038718
    68  H    0.016275
    69  H    0.103976
    70  H   -0.025276
    71  H    0.032351
    72  H   -0.025716
    73  H   -0.011640
    74  H    0.020334
    75  H    0.035068
    76  H    0.044942
    77  H   -0.012879
    78  H   -0.004010
    79  H    0.032971
    80  H    0.157959
    81  H    0.144167
 Sum of Mulliken charges =  -0.00000

 Dipole moment (field-independent basis, Debye):
    X=             -2.1542    Y=             -0.1761    Z=             -1.3051  Tot=              2.5249
 Quadrupole moment (field-independent basis, Debye-Ang):
   XX=           -253.1438   YY=           -237.4022   ZZ=           -255.0134
   XY=             10.6925   XZ=             12.4666   YZ=            -11.5072

 Normal termination of Gaussian 16 at Wed Jul  3 08:51:18 2019.
