 Gaussian 16, Revision A.03,
 Gaussian 16:  ES64L-G16RevA.03 25-Dec-2016

 --------------------------
 # td=(NStates=1) B3LYP/SVP
 --------------------------

 --
 TD
 --
 Symbolic Z-matrix:
 Charge =  0 Multiplicity = 1

                         Standard orientation:
 ---------------------------------------------------------------------
 Center     Atomic      Atomic             Coordinates (Angstroms)
 Number     Number       Type             X           Y           Z
 ---------------------------------------------------------------------
      1          8           0        4.400843   -4.866472   -1.735072
      2          8           0       -3.075055   -4.619087   -1.258005
      3          8           0       -7.154545   -1.651416   -1.832058
      4          8           0       -3.715962   -3.016811    0.202218
      5          8           0       -7.719493   -0.473650   -0.085544
      6          8           0        3.067125    2.450369    0.415711
      7          7           0        0.299608   -0.537902    0.629955
      8          7           0       -1.531831    1.762605    0.392377
      9          7           0        3.433053   -3.039831   -0.633652
     10          7           0        0.735158    2.925044    0.086154
     11          6           0       -0.592074   -2.409397    1.266413
     12          6           0       -0.895485   -1.068505    1.023159
     13          6           0        0.765371   -2.703634    1.140389
     14          6           0        1.376095   -1.418184    0.717736
     15          6           0       -3.786412    1.362538    0.360685
     16          6           0       -2.476692    0.742961    0.642454
     17          6           0       -2.201053   -0.507595    0.947986
     18          6           0       -3.619279    2.725761    0.022891
     19          6           0       -1.486652   -3.556156    1.865140
     20          6           0        5.588730   -2.699791   -1.272906
     21          6           0        3.684627   -1.702306   -0.268469
     22          6           0       -2.184454    2.904685   -0.024309
     23          6           0        5.067836   -1.484559   -0.493447
     24          6           0       -5.067746    0.608321    0.351922
     25          6           0        2.650792   -0.920369    0.315626
     26          6           0        1.677941   -3.776066    1.766274
     27          6           0        4.496623   -3.715826   -1.296719
     28          6           0       -2.041968   -4.536422    0.927643
     29          6           0       -5.439701   -0.309667   -0.789777
     30          6           0       -4.569400    3.783831   -0.284968
     31          6           0       -1.345333    4.014315   -0.298936
     32          6           0        6.962597   -3.254042   -0.762779
     33          6           0        5.896035   -0.403535   -0.205856
     34          6           0        0.079791    3.984064   -0.221079
     35          6           0        0.959989    5.125956   -0.465023
     36          6           0        2.286302    4.653320   -0.320264
     37          6           0       -3.058554   -3.951632   -0.056768
     38          6           0        5.408199    0.846696    0.491485
     39          6           0       -6.862105   -0.676754   -0.811157
     40          6           0        3.536784    5.392296   -0.346968
     41          6           0        2.095591    3.235473    0.067549
     42          6           0        0.431654    6.532420   -0.804995
     43          6           0        4.232801    5.289436    1.020933
     44          1           0        0.464557    0.363122    0.138885
     45          1           0       -2.960752   -1.191533    1.136960
     46          1           0       -2.379750   -2.993723    2.169787
     47          1           0       -0.913822   -4.111912    2.729265
     48          1           0        5.708361   -2.422216   -2.274320
     49          1           0       -5.218161    0.296485    1.345212
     50          1           0       -5.862572    1.297946    0.427102
     51          1           0        3.090700    0.126897    0.326093
     52          1           0       -0.523176    1.982655    0.542688
     53          1           0        1.750613   -4.780009    1.270064
     54          1           0        2.591633   -3.564485    2.023753
     55          1           0        1.127504   -4.157029    2.462088
     56          1           0        2.481437   -3.640777   -0.644694
     57          1           0       -1.443843   -5.159024    0.279911
     58          1           0       -2.706263   -5.180339    1.512310
     59          1           0       -4.701279   -1.305754   -0.828253
     60          1           0       -5.300689    0.288714   -1.817474
     61          1           0       -4.417651    4.543677    0.352797
     62          1           0       -5.682598    3.307051   -0.328070
     63          1           0       -4.586300    4.214815   -1.393094
     64          1           0       -1.866423    4.910691   -0.459675
     65          1           0        7.931470   -2.621734   -0.733893
     66          1           0        7.329338   -4.124560   -1.261835
     67          1           0        6.977221   -3.435332    0.341101
     68          1           0        6.938310   -0.481143   -0.475347
     69          1           0        4.844036    1.511913    0.090339
     70          1           0        6.190918    1.354018    1.018349
     71          1           0        4.751568    0.577470    1.285288
     72          1           0        3.446104    6.410613   -0.860313
     73          1           0        4.128158    4.759756   -1.177200
     74          1           0       -0.229332    6.618580   -1.697075
     75          1           0        1.368584    7.201760   -1.026077
     76          1           0       -0.108456    6.947090    0.045425
     77          1           0        3.765868    5.585350    1.920184
     78          1           0        5.411671    5.630521    1.238690
     79          1           0        4.294476    4.231372    1.353411
     80          1           0       -3.920754   -4.163641   -1.609303
     81          1           0       -8.171035   -1.825954   -1.628103
 ---------------------------------------------------------------------

 SCF Done:  E(RB3LYP) =  -1949.09527253     A.U. after   17 cycles

 Excitation energies and oscillator strengths:

 Excited State   1:      Singlet-A      1.6348 eV  758.40 nm  f=0.2697  <S**2>=0.000
     156 ->157         0.71031
     156 <-157        -0.11550
 This state for optimization and/or second-order correction.
 Total Energy, E(TD-HF/TD-DFT) =  -1949.03519448
 Copying the excited state density for this state as the 1-particle RhoCI density.

 The electronic state is 1-A.
 Alpha  occ. eigenvalues --  -19.20354 -19.15784 -19.15783 -19.14055 -19.11305
 Alpha  occ. eigenvalues --  -19.10470 -14.37515 -14.36875 -14.35111 -14.29306
 Alpha  occ. eigenvalues --  -10.33653 -10.31792 -10.29235 -10.27360 -10.24578
 Alpha  occ. eigenvalues --  -10.23958 -10.23928 -10.23207 -10.23047 -10.22971
 Alpha  occ. eigenvalues --  -10.22595 -10.21646 -10.21612 -10.21202 -10.20995
 Alpha  occ. eigenvalues --  -10.20782 -10.20765 -10.20738 -10.20629 -10.20476
 Alpha  occ. eigenvalues --  -10.20395 -10.20393 -10.20387 -10.20252 -10.19936
 Alpha  occ. eigenvalues --  -10.19615 -10.19505 -10.19461 -10.19217 -10.18677
 Alpha  occ. eigenvalues --  -10.18128 -10.17978 -10.15129  -1.12544  -1.11128
 Alpha  occ. eigenvalues --   -1.03861  -1.02195  -0.98994  -0.98375  -0.98082
 Alpha  occ. eigenvalues --   -0.96698  -0.93967  -0.92994  -0.83114  -0.82633
 Alpha  occ. eigenvalues --   -0.81887  -0.80888  -0.79941  -0.78928  -0.78588
 Alpha  occ. eigenvalues --   -0.77979  -0.76542  -0.75043  -0.73974  -0.73058
 Alpha  occ. eigenvalues --   -0.72187  -0.70538  -0.69041  -0.68286  -0.67831
 Alpha  occ. eigenvalues --   -0.67633  -0.65723  -0.65139  -0.62953  -0.62279
 Alpha  occ. eigenvalues --   -0.59878  -0.59449  -0.57501  -0.57450  -0.56936
 Alpha  occ. eigenvalues --   -0.55991  -0.55168  -0.54663  -0.53761  -0.53338
 Alpha  occ. eigenvalues --   -0.52971  -0.52366  -0.51683  -0.51578  -0.50025
 Alpha  occ. eigenvalues --   -0.49778  -0.49302  -0.49232  -0.48335  -0.47891
 Alpha  occ. eigenvalues --   -0.47322  -0.47013  -0.46742  -0.46675  -0.45138
 Alpha  occ. eigenvalues --   -0.44850  -0.44641  -0.44401  -0.44340  -0.43773
 Alpha  occ. eigenvalues --   -0.43591  -0.43301  -0.43112  -0.42652  -0.42487
 Alpha  occ. eigenvalues --   -0.42309  -0.41934  -0.41567  -0.41329  -0.41081
 Alpha  occ. eigenvalues --   -0.40992  -0.40799  -0.40295  -0.39854  -0.39779
 Alpha  occ. eigenvalues --   -0.39547  -0.39429  -0.39401  -0.39091  -0.38800
 Alpha  occ. eigenvalues --   -0.38251  -0.37983  -0.37879  -0.37341  -0.37227
 Alpha  occ. eigenvalues --   -0.36971  -0.36090  -0.35369  -0.35207  -0.35131
 Alpha  occ. eigenvalues --   -0.34344  -0.34122  -0.34029  -0.33678  -0.33313
 Alpha  occ. eigenvalues --   -0.32767  -0.31769  -0.31457  -0.30594  -0.30269
 Alpha  occ. eigenvalues --   -0.28879  -0.27880  -0.26465  -0.26012  -0.25588
 Alpha  occ. eigenvalues --   -0.25327  -0.24843  -0.24342  -0.23369  -0.21581
 Alpha  occ. eigenvalues --   -0.17595
 Alpha virt. eigenvalues --   -0.10878  -0.06782  -0.04849  -0.01047  -0.00028
 Alpha virt. eigenvalues --    0.00010   0.02232   0.02755   0.03626   0.03895
 Alpha virt. eigenvalues --    0.04207   0.04491   0.05120   0.05381   0.06017

 Mulliken charges:
               1
     1  O   -0.225034
     2  O   -0.206839
     3  O   -0.314586
     4  O   -0.190127
     5  O   -0.148468
     6  O   -0.289136
     7  N   -0.092936
     8  N   -0.142692
     9  N   -0.231923
    10  N   -0.251220
    11  C   -0.140007
    12  C    0.095145
    13  C   -0.178683
    14  C    0.108074
    15  C   -0.132779
    16  C    0.188896
    17  C   -0.076317
    18  C   -0.071570
    19  C    0.073623
    20  C   -0.001138
    21  C    0.059138
    22  C    0.042028
    23  C   -0.016812
    24  C    0.178779
    25  C   -0.102658
    26  C    0.276184
    27  C    0.147251
    28  C    0.091619
    29  C   -0.051849
    30  C    0.060111
    31  C   -0.087579
    32  C    0.010047
    33  C   -0.112133
    34  C    0.083996
    35  C   -0.122046
    36  C   -0.157576
    37  C    0.086630
    38  C    0.169159
    39  C    0.132707
    40  C    0.081736
    41  C    0.185800
    42  C    0.079589
    43  C   -0.034103
    44  H    0.149103
    45  H   -0.030308
    46  H    0.004083
    47  H    0.043290
    48  H    0.030216
    49  H   -0.006758
    50  H   -0.041834
    51  H    0.026498
    52  H    0.147452
    53  H   -0.009804
    54  H   -0.010873
    55  H   -0.082836
    56  H    0.183190
    57  H    0.021150
    58  H    0.032181
    59  H    0.101615
    60  H    0.056439
    61  H    0.012311
    62  H    0.031862
    63  H    0.039698
    64  H   -0.061555
    65  H    0.015917
    66  H    0.022280
    67  H    0.012884
    68  H   -0.011012
    69  H   -0.000775
    70  H   -0.015883
    71  H    0.004332
    72  H    0.014109
    73  H    0.032326
    74  H    0.032556
    75  H    0.022442
    76  H    0.026267
    77  H   -0.006695
    78  H    0.016893
    79  H    0.026350
    80  H    0.200571
    81  H    0.200016
 Sum of Mulliken charges =  -0.00000

 Dipole moment (field-independent basis, Debye):
    X=             -3.0466    Y=              0.9287    Z=              0.4486  Tot=              3.2165
 Quadrupole moment (field-independent basis, Debye-Ang):
   XX=           -247.3108   YY=           -245.3497   ZZ=           -256.4134
   XY=              9.0422   XZ=              7.7633   YZ=            -17.1945

 Normal termination of Gaussian 16 at Wed Jun 26 21:20:41 2019.
