 Gaussian 16, Revision A.03,
 Gaussian 16:  ES64L-G16RevA.03 25-Dec-2016

 --------------------------
 # td=(NStates=1) B3LYP/SVP
 --------------------------

 --
 TD
 --
 Symbolic Z-matrix:
 Charge =  0 Multiplicity = 1

                         Standard orientation:
 ---------------------------------------------------------------------
 Center     Atomic      Atomic             Coordinates (Angstroms)
 Number     Number       Type             X           Y           Z
 ---------------------------------------------------------------------
      1          8           0        4.349628   -4.794240   -1.794229
      2          8           0       -2.901987   -4.922627   -1.113467
      3          8           0       -6.914405   -1.688122   -1.829378
      4          8           0       -3.670274   -3.073370   -0.030016
      5          8           0       -7.685188   -0.414316   -0.100449
      6          8           0        2.976090    2.445373    0.235440
      7          7           0        0.263403   -0.449119    0.613493
      8          7           0       -1.581230    1.795281    0.268463
      9          7           0        3.369251   -3.041968   -0.610319
     10          7           0        0.696458    2.964668   -0.037823
     11          6           0       -0.573112   -2.324878    1.391956
     12          6           0       -0.947400   -1.053350    0.965786
     13          6           0        0.828193   -2.651179    1.200022
     14          6           0        1.288653   -1.414509    0.758627
     15          6           0       -3.868264    1.437585    0.245628
     16          6           0       -2.578693    0.804961    0.551762
     17          6           0       -2.294950   -0.544639    0.971337
     18          6           0       -3.489138    2.755340   -0.050746
     19          6           0       -1.584657   -3.406264    1.928227
     20          6           0        5.543183   -2.845889   -1.219959
     21          6           0        3.603838   -1.807652   -0.038952
     22          6           0       -2.152534    2.968705    0.021632
     23          6           0        5.112306   -1.582822   -0.341776
     24          6           0       -5.142247    0.715431    0.341890
     25          6           0        2.699707   -0.995958    0.363305
     26          6           0        1.528260   -3.793085    1.761933
     27          6           0        4.373655   -3.745967   -1.236697
     28          6           0       -1.934341   -4.511073    0.987435
     29          6           0       -5.305603   -0.407870   -0.745407
     30          6           0       -4.610764    3.813224   -0.326668
     31          6           0       -1.326116    4.120252   -0.229463
     32          6           0        6.839888   -3.463900   -0.832177
     33          6           0        5.838531   -0.460269   -0.187751
     34          6           0        0.049181    4.118460   -0.252871
     35          6           0        1.052430    5.264570   -0.429155
     36          6           0        2.278160    4.688925   -0.293383
     37          6           0       -2.947319   -3.997640   -0.010637
     38          6           0        5.528644    0.686031    0.632791
     39          6           0       -6.760167   -0.865067   -0.845452
     40          6           0        3.675641    5.323231   -0.331238
     41          6           0        2.036141    3.251488    0.060888
     42          6           0        0.663399    6.689377   -0.853862
     43          6           0        4.080553    5.573340    1.101840
     44          1           0        0.487862    0.475412    0.316750
     45          1           0       -3.041915   -1.398788    1.400221
     46          1           0       -2.415421   -2.982278    2.311862
     47          1           0       -1.214072   -3.791818    3.050048
     48          1           0        5.301438   -2.525419   -2.189244
     49          1           0       -5.310440    0.152592    1.247479
     50          1           0       -6.038098    1.408497    0.234653
     51          1           0        2.964617   -0.023776    0.479803
     52          1           0       -0.631357    1.936496    0.372737
     53          1           0        1.592032   -4.263324    0.830685
     54          1           0        2.581561   -3.554733    2.149286
     55          1           0        0.601568   -4.399281    2.476830
     56          1           0        2.276999   -3.222642   -0.870624
     57          1           0       -1.142788   -5.096829    0.672651
     58          1           0       -2.382993   -5.338033    1.412411
     59          1           0       -4.564340   -1.282401   -0.480328
     60          1           0       -4.866089    0.078303   -1.789333
     61          1           0       -4.342856    4.901327   -0.174774
     62          1           0       -5.545614    3.370852    0.206995
     63          1           0       -4.971518    3.808822   -1.440179
     64          1           0       -2.005600    5.099379   -0.318833
     65          1           0        7.670046   -2.799086   -1.255097
     66          1           0        6.844129   -4.361085   -1.747967
     67          1           0        7.115039   -3.656902    0.339777
     68          1           0        6.792554   -0.571050   -0.696407
     69          1           0        5.053770    1.346394   -0.065187
     70          1           0        6.394864    1.323616    0.716515
     71          1           0        4.980746    0.229957    1.480991
     72          1           0        3.612005    6.314006   -0.849131
     73          1           0        4.152095    4.583030   -0.992087
     74          1           0        0.179756    6.647076   -1.884100
     75          1           0        1.503881    7.275419   -0.932636
     76          1           0       -0.058358    6.808087   -0.059264
     77          1           0        3.606192    6.402096    1.700336
     78          1           0        5.235802    5.822954    1.227054
     79          1           0        3.700196    4.573365    1.749195
     80          1           0       -3.687724   -4.769036   -1.711810
     81          1           0       -7.924423   -1.858259   -1.852378
 ---------------------------------------------------------------------

 SCF Done:  E(RB3LYP) =  -1949.02543913     A.U. after   24 cycles

 Excitation energies and oscillator strengths:

 Excited State   1:      Singlet-A      1.8911 eV  655.61 nm  f=0.3461  <S**2>=0.000
     156 ->157         0.70592
     156 <-157        -0.11640
 This state for optimization and/or second-order correction.
 Total Energy, E(TD-HF/TD-DFT) =  -1948.95594131
 Copying the excited state density for this state as the 1-particle RhoCI density.

 The electronic state is 1-A.
 Alpha  occ. eigenvalues --  -19.20963 -19.18030 -19.17039 -19.12665 -19.10972
 Alpha  occ. eigenvalues --  -19.09148 -14.37553 -14.37106 -14.35395 -14.28232
 Alpha  occ. eigenvalues --  -10.34903 -10.32918 -10.28534 -10.25590 -10.24699
 Alpha  occ. eigenvalues --  -10.24370 -10.24133 -10.23714 -10.23280 -10.23258
 Alpha  occ. eigenvalues --  -10.22584 -10.22112 -10.21927 -10.21760 -10.21321
 Alpha  occ. eigenvalues --  -10.21163 -10.21094 -10.20877 -10.20799 -10.20300
 Alpha  occ. eigenvalues --  -10.19961 -10.19910 -10.19615 -10.19502 -10.19481
 Alpha  occ. eigenvalues --  -10.19464 -10.19307 -10.19108 -10.18942 -10.18768
 Alpha  occ. eigenvalues --  -10.17853 -10.17302 -10.16970  -1.11902  -1.11518
 Alpha  occ. eigenvalues --   -1.04739  -1.01629  -0.99425  -0.98857  -0.98825
 Alpha  occ. eigenvalues --   -0.97295  -0.95301  -0.91316  -0.83589  -0.82425
 Alpha  occ. eigenvalues --   -0.81468  -0.80789  -0.79688  -0.79205  -0.78987
 Alpha  occ. eigenvalues --   -0.77184  -0.76485  -0.75440  -0.74517  -0.72697
 Alpha  occ. eigenvalues --   -0.70657  -0.69432  -0.68656  -0.68505  -0.67892
 Alpha  occ. eigenvalues --   -0.67137  -0.65548  -0.64535  -0.61770  -0.61212
 Alpha  occ. eigenvalues --   -0.60639  -0.60019  -0.59084  -0.57790  -0.56995
 Alpha  occ. eigenvalues --   -0.56020  -0.55639  -0.54673  -0.53794  -0.52840
 Alpha  occ. eigenvalues --   -0.52175  -0.51637  -0.51363  -0.50801  -0.50273
 Alpha  occ. eigenvalues --   -0.49820  -0.49338  -0.48842  -0.48796  -0.47776
 Alpha  occ. eigenvalues --   -0.47507  -0.46906  -0.46123  -0.45526  -0.45440
 Alpha  occ. eigenvalues --   -0.45175  -0.44513  -0.44432  -0.43987  -0.43838
 Alpha  occ. eigenvalues --   -0.43236  -0.42653  -0.42558  -0.42384  -0.42194
 Alpha  occ. eigenvalues --   -0.41867  -0.41808  -0.41444  -0.41229  -0.40830
 Alpha  occ. eigenvalues --   -0.40531  -0.40474  -0.39557  -0.39443  -0.39177
 Alpha  occ. eigenvalues --   -0.39048  -0.38801  -0.38686  -0.38536  -0.38067
 Alpha  occ. eigenvalues --   -0.37949  -0.37788  -0.37234  -0.36848  -0.36218
 Alpha  occ. eigenvalues --   -0.36053  -0.35856  -0.35518  -0.34666  -0.34464
 Alpha  occ. eigenvalues --   -0.34056  -0.33516  -0.33440  -0.32898  -0.32162
 Alpha  occ. eigenvalues --   -0.32113  -0.31716  -0.31025  -0.30279  -0.29807
 Alpha  occ. eigenvalues --   -0.28215  -0.27392  -0.26313  -0.25903  -0.25345
 Alpha  occ. eigenvalues --   -0.24974  -0.24497  -0.23442  -0.23202  -0.21546
 Alpha  occ. eigenvalues --   -0.18379
 Alpha virt. eigenvalues --   -0.10868  -0.04862  -0.02971  -0.02160  -0.01100
 Alpha virt. eigenvalues --    0.01474   0.01611   0.02270   0.02934   0.03918
 Alpha virt. eigenvalues --    0.04132   0.04463   0.04841   0.05414   0.05774

 Mulliken charges:
               1
     1  O   -0.179514
     2  O   -0.277420
     3  O   -0.138063
     4  O   -0.147760
     5  O   -0.296832
     6  O   -0.256519
     7  N   -0.098395
     8  N   -0.018776
     9  N   -0.199455
    10  N   -0.306633
    11  C   -0.132273
    12  C    0.085055
    13  C   -0.182448
    14  C    0.025486
    15  C   -0.038634
    16  C    0.097607
    17  C   -0.076065
    18  C   -0.128352
    19  C    0.036807
    20  C   -0.015752
    21  C    0.149348
    22  C   -0.001097
    23  C   -0.069251
    24  C    0.121335
    25  C   -0.039807
    26  C    0.102656
    27  C    0.094800
    28  C    0.164863
    29  C   -0.167283
    30  C    0.023618
    31  C   -0.125245
    32  C   -0.007893
    33  C   -0.196623
    34  C    0.096215
    35  C   -0.118219
    36  C   -0.232317
    37  C    0.144228
    38  C    0.204930
    39  C    0.169984
    40  C    0.143064
    41  C    0.153618
    42  C    0.146323
    43  C   -0.075957
    44  H    0.129111
    45  H    0.076832
    46  H   -0.039336
    47  H    0.031471
    48  H    0.022480
    49  H    0.011320
    50  H    0.023368
    51  H   -0.062679
    52  H    0.083725
    53  H    0.001397
    54  H    0.059822
    55  H    0.044875
    56  H    0.174321
    57  H   -0.001727
    58  H    0.005892
    59  H    0.099476
    60  H    0.062752
    61  H    0.032184
    62  H    0.039410
    63  H    0.026540
    64  H   -0.001854
    65  H    0.019670
    66  H    0.050589
    67  H    0.064511
    68  H   -0.024715
    69  H    0.033624
    70  H   -0.014273
    71  H    0.054281
    72  H   -0.007858
    73  H    0.025136
    74  H    0.036179
    75  H   -0.009121
    76  H    0.032121
    77  H    0.019429
    78  H    0.024455
    79  H    0.047161
    80  H    0.191383
    81  H    0.204692
 Sum of Mulliken charges =  -0.00000

 Dipole moment (field-independent basis, Debye):
    X=             -3.5362    Y=             -0.9667    Z=             -0.2912  Tot=              3.6775
 Quadrupole moment (field-independent basis, Debye-Ang):
   XX=           -252.2737   YY=           -244.8079   ZZ=           -252.3202
   XY=             27.9969   XZ=             13.1617   YZ=            -14.2022

 Normal termination of Gaussian 16 at Thu Jun 27 05:43:06 2019.
