 Gaussian 16, Revision A.03,
 Gaussian 16:  ES64L-G16RevA.03 25-Dec-2016

 --------------------------
 # td=(NStates=1) B3LYP/SVP
 --------------------------

 --
 TD
 --
 Symbolic Z-matrix:
 Charge =  0 Multiplicity = 1

                         Standard orientation:
 ---------------------------------------------------------------------
 Center     Atomic      Atomic             Coordinates (Angstroms)
 Number     Number       Type             X           Y           Z
 ---------------------------------------------------------------------
      1          8           0        4.269506   -4.993910   -1.984931
      2          8           0       -3.223405   -4.567178   -1.129450
      3          8           0       -6.854580   -1.578494   -1.726246
      4          8           0       -4.121896   -3.033546    0.262049
      5          8           0       -7.489370   -0.478034    0.204664
      6          8           0        3.231826    2.351202    0.801349
      7          7           0        0.221960   -0.477856    0.510967
      8          7           0       -1.522232    1.904931    0.198769
      9          7           0        3.113693   -3.215346   -0.697705
     10          7           0        0.964270    2.772770    0.071395
     11          6           0       -0.720425   -2.307472    1.375329
     12          6           0       -1.032954   -0.987058    0.879609
     13          6           0        0.635059   -2.594368    1.240210
     14          6           0        1.254587   -1.402390    0.660673
     15          6           0       -3.689607    1.740301    0.146492
     16          6           0       -2.436029    1.045599    0.366633
     17          6           0       -2.294827   -0.274368    0.777829
     18          6           0       -3.515447    3.066294   -0.187533
     19          6           0       -1.826472   -3.245334    2.012008
     20          6           0        5.412802   -2.980586   -1.315394
     21          6           0        3.432335   -1.926162   -0.189198
     22          6           0       -2.071591    3.127636   -0.008513
     23          6           0        5.003275   -1.851374   -0.438133
     24          6           0       -5.070316    1.051291    0.319966
     25          6           0        2.614210   -1.095864    0.336871
     26          6           0        1.310964   -3.826060    1.621279
     27          6           0        4.259590   -3.851206   -1.438985
     28          6           0       -2.248902   -4.424364    1.074874
     29          6           0       -5.363412   -0.114739   -0.778192
     30          6           0       -4.403705    4.054275   -0.607013
     31          6           0       -1.114214    4.114419   -0.331808
     32          6           0        6.695958   -3.642646   -0.837409
     33          6           0        5.862414   -0.821532   -0.056590
     34          6           0        0.272297    3.961029   -0.382018
     35          6           0        1.307506    5.078305   -0.593061
     36          6           0        2.538559    4.613765   -0.184213
     37          6           0       -3.336716   -3.906243    0.039464
     38          6           0        5.453598    0.391237    0.726627
     39          6           0       -6.715489   -0.757867   -0.674520
     40          6           0        3.819876    5.217374   -0.160280
     41          6           0        2.259592    3.109906    0.244292
     42          6           0        0.898629    6.410517   -1.090012
     43          6           0        4.385735    5.459914    1.208070
     44          1           0        0.614152    0.411183    0.115784
     45          1           0       -3.159907   -0.958728    0.887734
     46          1           0       -2.621049   -2.724155    2.509842
     47          1           0       -1.300014   -3.881605    2.745554
     48          1           0        5.405738   -2.458915   -2.374720
     49          1           0       -5.043910    0.563532    1.324815
     50          1           0       -5.980898    1.690420    0.241146
     51          1           0        2.870350   -0.047630    0.405181
     52          1           0       -0.343414    1.854511    0.501469
     53          1           0        1.092790   -4.804647    0.984923
     54          1           0        2.407716   -3.685412    1.675469
     55          1           0        1.188073   -4.213727    2.669311
     56          1           0        2.279330   -3.391240   -0.524868
     57          1           0       -1.416231   -4.878925    0.580220
     58          1           0       -2.725014   -5.063452    1.682217
     59          1           0       -4.550954   -0.907935   -0.539728
     60          1           0       -5.041927    0.411610   -1.831407
     61          1           0       -4.033226    4.816875   -0.106280
     62          1           0       -5.356580    3.753285   -0.615943
     63          1           0       -4.233785    4.386774   -1.699896
     64          1           0       -1.539596    5.012715   -0.454845
     65          1           0        7.511076   -2.884308   -0.871492
     66          1           0        6.855910   -4.582220   -1.342989
     67          1           0        6.502176   -3.957609    0.365575
     68          1           0        6.973343   -0.985289   -0.267505
     69          1           0        4.531342    0.992344    0.230973
     70          1           0        6.237426    1.102251    1.153080
     71          1           0        4.824241    0.141293    1.672254
     72          1           0        4.034853    6.143818   -0.854202
     73          1           0        4.537720    4.433546   -0.716428
     74          1           0        0.086321    6.335254   -1.982158
     75          1           0        1.722849    6.986030   -1.362133
     76          1           0        0.234236    6.987458   -0.428966
     77          1           0        3.904596    6.153756    1.969615
     78          1           0        5.491411    5.713158    1.321625
     79          1           0        4.371135    4.463863    1.758743
     80          1           0       -3.925296   -4.179927   -1.582422
     81          1           0       -7.806755   -1.833129   -1.787128
 ---------------------------------------------------------------------

 SCF Done:  E(RB3LYP) =  -1949.06541946     A.U. after   19 cycles

 Excitation energies and oscillator strengths:

 Excited State   1:      Singlet-A      1.7254 eV  718.58 nm  f=0.2714  <S**2>=0.000
     156 ->157         0.70580
     156 <-157        -0.12174
 This state for optimization and/or second-order correction.
 Total Energy, E(TD-HF/TD-DFT) =  -1949.00201160
 Copying the excited state density for this state as the 1-particle RhoCI density.

 The electronic state is 1-A.
 Alpha  occ. eigenvalues --  -19.20138 -19.19479 -19.15484 -19.13342 -19.12229
 Alpha  occ. eigenvalues --  -19.08730 -14.38426 -14.35898 -14.35891 -14.31078
 Alpha  occ. eigenvalues --  -10.33988 -10.32483 -10.31104 -10.26964 -10.24572
 Alpha  occ. eigenvalues --  -10.24421 -10.24257 -10.23977 -10.23937 -10.22844
 Alpha  occ. eigenvalues --  -10.22501 -10.21472 -10.21456 -10.21297 -10.21176
 Alpha  occ. eigenvalues --  -10.21056 -10.20751 -10.20680 -10.20613 -10.20557
 Alpha  occ. eigenvalues --  -10.20547 -10.20426 -10.20359 -10.20296 -10.20204
 Alpha  occ. eigenvalues --  -10.19813 -10.19588 -10.19394 -10.18874 -10.18864
 Alpha  occ. eigenvalues --  -10.18138 -10.17958 -10.17587  -1.13218  -1.10258
 Alpha  occ. eigenvalues --   -1.04222  -1.02073  -1.01172  -1.00995  -0.97532
 Alpha  occ. eigenvalues --   -0.95017  -0.94678  -0.88869  -0.83480  -0.82675
 Alpha  occ. eigenvalues --   -0.82103  -0.81464  -0.80076  -0.79725  -0.78331
 Alpha  occ. eigenvalues --   -0.76961  -0.76766  -0.75019  -0.74162  -0.73137
 Alpha  occ. eigenvalues --   -0.72367  -0.69199  -0.69011  -0.68287  -0.68001
 Alpha  occ. eigenvalues --   -0.67444  -0.65925  -0.64564  -0.62026  -0.61770
 Alpha  occ. eigenvalues --   -0.60828  -0.59787  -0.59016  -0.58181  -0.57471
 Alpha  occ. eigenvalues --   -0.56955  -0.55466  -0.54451  -0.53571  -0.52612
 Alpha  occ. eigenvalues --   -0.52098  -0.51888  -0.51551  -0.51426  -0.50097
 Alpha  occ. eigenvalues --   -0.49860  -0.49644  -0.49054  -0.48766  -0.48557
 Alpha  occ. eigenvalues --   -0.47559  -0.47241  -0.47086  -0.46215  -0.45918
 Alpha  occ. eigenvalues --   -0.45642  -0.45354  -0.44397  -0.44041  -0.43925
 Alpha  occ. eigenvalues --   -0.43808  -0.43123  -0.43015  -0.42592  -0.42391
 Alpha  occ. eigenvalues --   -0.41852  -0.41670  -0.41484  -0.41123  -0.40963
 Alpha  occ. eigenvalues --   -0.40811  -0.40465  -0.40408  -0.39908  -0.39764
 Alpha  occ. eigenvalues --   -0.39693  -0.39337  -0.38852  -0.38302  -0.37683
 Alpha  occ. eigenvalues --   -0.37496  -0.37269  -0.37098  -0.36647  -0.36436
 Alpha  occ. eigenvalues --   -0.35801  -0.35721  -0.35324  -0.35137  -0.35097
 Alpha  occ. eigenvalues --   -0.34263  -0.33875  -0.33493  -0.33462  -0.33234
 Alpha  occ. eigenvalues --   -0.32048  -0.31871  -0.30913  -0.30477  -0.28973
 Alpha  occ. eigenvalues --   -0.28628  -0.28050  -0.27011  -0.26230  -0.25678
 Alpha  occ. eigenvalues --   -0.25267  -0.23874  -0.23056  -0.22992  -0.22474
 Alpha  occ. eigenvalues --   -0.18207
 Alpha virt. eigenvalues --   -0.11212  -0.05414  -0.03653  -0.01942  -0.01430
 Alpha virt. eigenvalues --   -0.00067   0.01832   0.02341   0.03151   0.03698
 Alpha virt. eigenvalues --    0.04376   0.04909   0.05252   0.06034   0.06109

 Mulliken charges:
               1
     1  O   -0.245856
     2  O   -0.122324
     3  O   -0.184476
     4  O   -0.211038
     5  O   -0.211982
     6  O   -0.371461
     7  N   -0.131473
     8  N   -0.085891
     9  N   -0.100209
    10  N   -0.336873
    11  C   -0.108114
    12  C    0.061884
    13  C   -0.094148
    14  C    0.017481
    15  C   -0.115747
    16  C    0.087980
    17  C   -0.076833
    18  C   -0.116733
    19  C    0.091692
    20  C   -0.004008
    21  C    0.120066
    22  C    0.040014
    23  C   -0.077736
    24  C    0.078201
    25  C   -0.102691
    26  C   -0.012766
    27  C    0.198116
    28  C    0.092939
    29  C   -0.129687
    30  C    0.238379
    31  C   -0.066243
    32  C    0.031036
    33  C   -0.101184
    34  C    0.141438
    35  C   -0.090190
    36  C   -0.100550
    37  C    0.107023
    38  C   -0.050262
    39  C    0.175435
    40  C    0.007282
    41  C    0.219409
    42  C    0.105499
    43  C   -0.049653
    44  H    0.159306
    45  H    0.027308
    46  H    0.022644
    47  H   -0.003742
    48  H    0.073769
    49  H    0.024526
    50  H    0.017594
    51  H   -0.004021
    52  H    0.237808
    53  H    0.049292
    54  H    0.028797
    55  H    0.025294
    56  H    0.023654
    57  H    0.023454
    58  H    0.004135
    59  H    0.067217
    60  H    0.054777
    61  H   -0.009925
    62  H   -0.025427
    63  H    0.020077
    64  H   -0.091692
    65  H    0.037841
    66  H    0.036885
    67  H    0.037378
    68  H    0.006854
    69  H    0.108820
    70  H    0.024922
    71  H    0.037282
    72  H    0.014884
    73  H    0.033586
    74  H    0.017138
    75  H    0.003434
    76  H    0.017385
    77  H    0.013679
    78  H    0.006626
    79  H    0.033224
    80  H    0.144558
    81  H    0.184911
 Sum of Mulliken charges =  -0.00000

 Dipole moment (field-independent basis, Debye):
    X=             -4.3556    Y=              0.1429    Z=             -1.3183  Tot=              4.5530
 Quadrupole moment (field-independent basis, Debye-Ang):
   XX=           -246.7799   YY=           -243.1852   ZZ=           -256.5009
   XY=              9.8638   XZ=             16.2519   YZ=            -17.7191

 Normal termination of Gaussian 16 at Tue Jul  2 12:08:20 2019.
