 Gaussian 16, Revision A.03,
 Gaussian 16:  ES64L-G16RevA.03 25-Dec-2016

 --------------------------
 # td=(NStates=1) B3LYP/SVP
 --------------------------

 --
 TD
 --
 Symbolic Z-matrix:
 Charge =  0 Multiplicity = 1

                         Standard orientation:
 ---------------------------------------------------------------------
 Center     Atomic      Atomic             Coordinates (Angstroms)
 Number     Number       Type             X           Y           Z
 ---------------------------------------------------------------------
      1          8           0       -4.340592   -4.876557    1.815376
      2          8           0        3.136164   -4.733437    1.295004
      3          8           0        7.067248   -1.693003    1.723439
      4          8           0        3.686536   -2.882691    0.038556
      5          8           0        7.557966   -0.678300   -0.237843
      6          8           0       -3.004925    2.436221   -0.467372
      7          7           0       -0.299511   -0.459772   -0.674623
      8          7           0        1.570348    1.933216   -0.491666
      9          7           0       -3.328681   -3.187910    0.646910
     10          7           0       -0.734716    2.995329   -0.156605
     11          6           0        0.715271   -2.422320   -1.259730
     12          6           0        0.948264   -1.075730   -0.927142
     13          6           0       -0.724258   -2.619683   -1.151486
     14          6           0       -1.248760   -1.511936   -0.661133
     15          6           0        3.709388    1.614463   -0.241614
     16          6           0        2.490656    0.941533   -0.660250
     17          6           0        2.198600   -0.406518   -0.826988
     18          6           0        3.492401    2.946194    0.149546
     19          6           0        1.680012   -3.331473   -1.958289
     20          6           0       -5.502237   -2.824609    1.236512
     21          6           0       -3.624439   -1.905821    0.096372
     22          6           0        2.034988    2.991443   -0.061159
     23          6           0       -5.009514   -1.655215    0.367449
     24          6           0        5.043013    0.897173   -0.306773
     25          6           0       -2.616866   -1.075295   -0.357528
     26          6           0       -1.465755   -3.857885   -1.613555
     27          6           0       -4.356060   -3.678091    1.425666
     28          6           0        2.203784   -4.451733   -1.018218
     29          6           0        5.442904   -0.139626    0.792927
     30          6           0        4.443312    3.913671    0.449088
     31          6           0        1.241956    4.200878    0.202449
     32          6           0       -6.706981   -3.618199    0.728711
     33          6           0       -5.838320   -0.583615    0.095768
     34          6           0       -0.126417    4.158939    0.181909
     35          6           0       -1.130697    5.178600    0.523790
     36          6           0       -2.354731    4.574857    0.277431
     37          6           0        3.033369   -3.891051    0.136699
     38          6           0       -5.443016    0.541941   -0.790966
     39          6           0        6.833029   -0.817831    0.742662
     40          6           0       -3.791029    5.168871    0.382939
     41          6           0       -2.119865    3.207815   -0.152659
     42          6           0       -0.787647    6.573412    1.058265
     43          6           0       -4.370508    5.347698   -0.922893
     44          1           0       -0.506513    0.466468   -0.200042
     45          1           0        2.971382   -0.954089   -0.892926
     46          1           0        2.573927   -2.798887   -2.330995
     47          1           0        1.041620   -3.861717   -2.812833
     48          1           0       -5.798354   -2.594777    2.411523
     49          1           0        5.168958    0.321385   -1.338370
     50          1           0        6.005476    1.484855   -0.453984
     51          1           0       -2.863144   -0.025673   -0.719884
     52          1           0        0.691718    2.064670   -0.605320
     53          1           0       -1.075324   -4.759990   -0.888006
     54          1           0       -2.591057   -3.725716   -1.532898
     55          1           0       -1.077110   -4.201767   -2.492856
     56          1           0       -2.294474   -3.370272    0.718987
     57          1           0        1.450276   -5.075628   -0.365775
     58          1           0        2.823127   -5.239012   -1.598329
     59          1           0        4.811367   -0.986560    0.859451
     60          1           0        5.266298    0.363089    1.849293
     61          1           0        4.457688    4.753846   -0.092488
     62          1           0        5.424588    3.461823    0.493107
     63          1           0        4.362280    4.188333    1.557399
     64          1           0        1.776975    5.195117    0.678651
     65          1           0       -7.563757   -2.920912    0.595072
     66          1           0       -6.561435   -4.626275    1.254904
     67          1           0       -6.628004   -3.891489   -0.311847
     68          1           0       -6.859837   -0.859837    0.505202
     69          1           0       -5.015632    1.415346   -0.257414
     70          1           0       -6.427647    0.998254   -1.244948
     71          1           0       -4.721801    0.273114   -1.773919
     72          1           0       -3.708744    5.907529    0.879389
     73          1           0       -4.292596    4.342362    0.923643
     74          1           0       -0.300745    6.351470    2.135637
     75          1           0       -1.627536    7.265755    1.078723
     76          1           0       -0.053762    6.921515    0.509979
     77          1           0       -3.867305    6.086990   -1.420636
     78          1           0       -5.336774    5.828886   -0.931677
     79          1           0       -4.402299    4.492502   -1.668399
     80          1           0        3.768772   -4.182920    1.825257
     81          1           0        7.945059   -1.996819    1.425140
 ---------------------------------------------------------------------

 SCF Done:  E(RB3LYP) =  -1949.05221992     A.U. after   16 cycles

 Excitation energies and oscillator strengths:

 Excited State   1:      Singlet-A      1.8733 eV  661.86 nm  f=0.2934  <S**2>=0.000
     156 ->157         0.70228
 This state for optimization and/or second-order correction.
 Total Energy, E(TD-HF/TD-DFT) =  -1948.98337856
 Copying the excited state density for this state as the 1-particle RhoCI density.

 The electronic state is 1-A.
 Alpha  occ. eigenvalues --  -19.20035 -19.19493 -19.15928 -19.13097 -19.09822
 Alpha  occ. eigenvalues --  -19.09772 -14.37308 -14.36669 -14.36239 -14.27298
 Alpha  occ. eigenvalues --  -10.34485 -10.32885 -10.28428 -10.25265 -10.24553
 Alpha  occ. eigenvalues --  -10.24242 -10.23926 -10.23889 -10.23855 -10.23139
 Alpha  occ. eigenvalues --  -10.23065 -10.21941 -10.21547 -10.21501 -10.21223
 Alpha  occ. eigenvalues --  -10.21143 -10.20975 -10.20808 -10.20746 -10.20654
 Alpha  occ. eigenvalues --  -10.20534 -10.19993 -10.19816 -10.19694 -10.19663
 Alpha  occ. eigenvalues --  -10.19638 -10.19470 -10.19432 -10.19193 -10.18728
 Alpha  occ. eigenvalues --  -10.17938 -10.16451 -10.15919  -1.11500  -1.10159
 Alpha  occ. eigenvalues --   -1.04116  -1.01931  -1.01393  -1.01101  -1.00837
 Alpha  occ. eigenvalues --   -0.96968  -0.93904  -0.91145  -0.84012  -0.82566
 Alpha  occ. eigenvalues --   -0.82361  -0.81402  -0.79915  -0.79312  -0.77746
 Alpha  occ. eigenvalues --   -0.77481  -0.76524  -0.75889  -0.74413  -0.73539
 Alpha  occ. eigenvalues --   -0.72416  -0.69771  -0.69480  -0.68837  -0.68570
 Alpha  occ. eigenvalues --   -0.68066  -0.66518  -0.64401  -0.62936  -0.61545
 Alpha  occ. eigenvalues --   -0.61075  -0.59690  -0.58923  -0.58408  -0.57657
 Alpha  occ. eigenvalues --   -0.56641  -0.55806  -0.54742  -0.54390  -0.52691
 Alpha  occ. eigenvalues --   -0.52072  -0.51714  -0.51474  -0.50715  -0.49896
 Alpha  occ. eigenvalues --   -0.49597  -0.49293  -0.49108  -0.48586  -0.47768
 Alpha  occ. eigenvalues --   -0.47554  -0.47275  -0.46601  -0.45926  -0.45580
 Alpha  occ. eigenvalues --   -0.45405  -0.44869  -0.44536  -0.44092  -0.43962
 Alpha  occ. eigenvalues --   -0.43735  -0.43554  -0.43202  -0.42892  -0.42828
 Alpha  occ. eigenvalues --   -0.42267  -0.41976  -0.41722  -0.41698  -0.41153
 Alpha  occ. eigenvalues --   -0.41043  -0.40920  -0.40681  -0.40315  -0.39943
 Alpha  occ. eigenvalues --   -0.39582  -0.39501  -0.39443  -0.39172  -0.38698
 Alpha  occ. eigenvalues --   -0.38174  -0.38068  -0.37705  -0.37663  -0.37297
 Alpha  occ. eigenvalues --   -0.36784  -0.36142  -0.35593  -0.34991  -0.34651
 Alpha  occ. eigenvalues --   -0.34339  -0.34098  -0.33383  -0.33224  -0.33052
 Alpha  occ. eigenvalues --   -0.32755  -0.31762  -0.31421  -0.30684  -0.30427
 Alpha  occ. eigenvalues --   -0.28427  -0.27261  -0.26289  -0.25700  -0.25346
 Alpha  occ. eigenvalues --   -0.25095  -0.25050  -0.23478  -0.22976  -0.21070
 Alpha  occ. eigenvalues --   -0.18570
 Alpha virt. eigenvalues --   -0.10783  -0.05871  -0.04878  -0.03150  -0.01362
 Alpha virt. eigenvalues --   -0.00235   0.01231   0.02406   0.03723   0.04322
 Alpha virt. eigenvalues --    0.04464   0.04952   0.05374   0.05477   0.05739

 Mulliken charges:
               1
     1  O   -0.270525
     2  O   -0.239738
     3  O   -0.155730
     4  O   -0.208656
     5  O   -0.255066
     6  O   -0.215239
     7  N   -0.159433
     8  N    0.244130
     9  N   -0.151211
    10  N   -0.359335
    11  C   -0.105266
    12  C    0.097728
    13  C   -0.163229
    14  C    0.049406
    15  C   -0.038902
    16  C    0.063689
    17  C    0.106029
    18  C   -0.124554
    19  C    0.090280
    20  C   -0.113927
    21  C    0.083867
    22  C   -0.100522
    23  C   -0.029526
    24  C   -0.004714
    25  C   -0.122781
    26  C    0.105786
    27  C    0.138147
    28  C   -0.052664
    29  C   -0.012042
    30  C    0.181613
    31  C   -0.146674
    32  C    0.070982
    33  C   -0.080394
    34  C    0.093565
    35  C   -0.121621
    36  C   -0.262746
    37  C    0.164042
    38  C   -0.012104
    39  C    0.134612
    40  C    0.327304
    41  C    0.151490
    42  C    0.162278
    43  C    0.041554
    44  H    0.165552
    45  H   -0.133936
    46  H    0.034319
    47  H    0.042705
    48  H    0.062877
    49  H    0.030968
    50  H    0.024613
    51  H    0.057309
    52  H    0.008504
    53  H    0.027123
    54  H    0.067456
    55  H   -0.018120
    56  H    0.152767
    57  H    0.058511
    58  H    0.071527
    59  H    0.022617
    60  H    0.031184
    61  H    0.002781
    62  H   -0.006339
    63  H    0.015271
    64  H    0.013032
    65  H    0.013787
    66  H    0.058305
    67  H   -0.012601
    68  H    0.006869
    69  H    0.075695
    70  H    0.013975
    71  H    0.066639
    72  H   -0.135673
    73  H    0.002043
    74  H    0.036726
    75  H    0.018944
    76  H   -0.022030
    77  H   -0.039406
    78  H   -0.015469
    79  H    0.034301
    80  H    0.191729
    81  H    0.175543
 Sum of Mulliken charges =  -0.00000

 Dipole moment (field-independent basis, Debye):
    X=              3.9788    Y=              1.6495    Z=              0.1897  Tot=              4.3114
 Quadrupole moment (field-independent basis, Debye-Ang):
   XX=           -251.3357   YY=           -247.2190   ZZ=           -255.2199
   XY=            -17.7407   XZ=             15.4064   YZ=             18.8274

 Normal termination of Gaussian 16 at Thu Jun 27 23:23:19 2019.
