 Gaussian 16, Revision A.03,
 Gaussian 16:  ES64L-G16RevA.03 25-Dec-2016

 --------------------------
 # td=(NStates=1) B3LYP/SVP
 --------------------------

 --
 TD
 --
 Symbolic Z-matrix:
 Charge =  0 Multiplicity = 1

                         Standard orientation:
 ---------------------------------------------------------------------
 Center     Atomic      Atomic             Coordinates (Angstroms)
 Number     Number       Type             X           Y           Z
 ---------------------------------------------------------------------
      1          8           0        3.805720   -5.005059   -1.867470
      2          8           0       -3.290023   -4.765798   -1.039389
      3          8           0       -6.815479   -1.485983   -1.901545
      4          8           0       -3.906897   -2.993746    0.140858
      5          8           0       -7.694419   -0.295966   -0.100235
      6          8           0        3.160525    2.363339    0.471362
      7          7           0        0.271909   -0.482270    0.768119
      8          7           0       -1.456196    1.874378    0.521972
      9          7           0        3.137345   -3.131931   -0.657097
     10          7           0        0.839514    2.890437    0.180834
     11          6           0       -0.653738   -2.348223    1.499311
     12          6           0       -0.974016   -1.069273    1.067829
     13          6           0        0.737309   -2.554381    1.379400
     14          6           0        1.321970   -1.327786    0.812568
     15          6           0       -3.681332    1.683510    0.315099
     16          6           0       -2.461036    0.983222    0.566640
     17          6           0       -2.224660   -0.374728    1.028377
     18          6           0       -3.428180    2.965207   -0.150802
     19          6           0       -1.681307   -3.323023    2.047118
     20          6           0        5.233689   -2.989131   -1.462686
     21          6           0        3.561820   -1.870880   -0.148366
     22          6           0       -2.021812    3.092392    0.028748
     23          6           0        4.884880   -1.775910   -0.650017
     24          6           0       -5.089776    0.966391    0.305827
     25          6           0        2.607861   -1.083735    0.482862
     26          6           0        1.421024   -3.867440    1.861274
     27          6           0        4.044123   -3.876752   -1.352266
     28          6           0       -2.045862   -4.496678    1.009319
     29          6           0       -5.325376    0.047339   -0.896337
     30          6           0       -4.364626    3.931695   -0.624444
     31          6           0       -1.188964    4.215243   -0.228653
     32          6           0        6.630959   -3.703371   -1.129158
     33          6           0        5.825011   -0.782351   -0.260041
     34          6           0        0.279194    4.010867   -0.142118
     35          6           0        1.209914    5.099154   -0.427857
     36          6           0        2.512380    4.543314   -0.355167
     37          6           0       -3.171686   -3.998372    0.058073
     38          6           0        5.578487    0.328293    0.627971
     39          6           0       -6.757749   -0.557569   -0.895613
     40          6           0        3.855862    5.079150   -0.318647
     41          6           0        2.259009    3.128785    0.123673
     42          6           0        0.828251    6.573003   -0.924550
     43          6           0        4.556551    5.423849    1.021594
     44          1           0        0.314439    0.097777   -0.235871
     45          1           0       -3.108965   -1.180902    0.959011
     46          1           0       -2.770022   -2.871282    2.214183
     47          1           0       -1.535589   -3.675485    3.068813
     48          1           0        5.515061   -2.478382   -2.431889
     49          1           0       -5.164356    0.320773    1.183006
     50          1           0       -5.810641    1.661879    0.348664
     51          1           0        2.983706   -0.037504    0.804042
     52          1           0       -0.414622    1.954347    0.400978
     53          1           0        0.893472   -4.781329    1.186528
     54          1           0        2.569871   -3.603495    2.033031
     55          1           0        0.894772   -4.118128    2.734342
     56          1           0        2.207469   -3.758792   -0.483980
     57          1           0       -1.187043   -4.681162    0.240732
     58          1           0       -2.243509   -5.610114    1.189649
     59          1           0       -4.628010   -0.633968   -1.158258
     60          1           0       -5.283130    0.729130   -1.888835
     61          1           0       -4.356011    4.773196   -0.015749
     62          1           0       -5.355809    3.373213   -0.353210
     63          1           0       -4.392875    4.288880   -1.415379
     64          1           0       -1.653827    5.268287   -0.509576
     65          1           0        7.331121   -2.815112   -1.014063
     66          1           0        6.993866   -4.377424   -1.599306
     67          1           0        6.712205   -3.883108   -0.108533
     68          1           0        6.822265   -0.785940   -0.706272
     69          1           0        5.132304    1.222358    0.214172
     70          1           0        6.575200    0.729532    1.100205
     71          1           0        5.073134    0.231125    1.439966
     72          1           0        3.690709    6.123360   -0.897121
     73          1           0        4.668861    4.496382   -0.834059
     74          1           0       -0.016210    6.399540   -1.687258
     75          1           0        1.705514    7.105077   -1.307164
     76          1           0        0.181324    6.983483   -0.088290
     77          1           0        3.998595    6.136166    1.716640
     78          1           0        5.391239    6.142062    0.848605
     79          1           0        4.918969    4.511583    1.501960
     80          1           0       -4.094036   -4.608467   -1.586157
     81          1           0       -7.851914   -1.667038   -1.802769
 ---------------------------------------------------------------------

 SCF Done:  E(RB3LYP) =  -1948.97237358     A.U. after   17 cycles

 Excitation energies and oscillator strengths:

 Excited State   1:      Singlet-A      1.6406 eV  755.74 nm  f=0.3272  <S**2>=0.000
     156 ->157         0.71365
     156 <-157        -0.14416
 This state for optimization and/or second-order correction.
 Total Energy, E(TD-HF/TD-DFT) =  -1948.91208384
 Copying the excited state density for this state as the 1-particle RhoCI density.

 The electronic state is 1-A.
 Alpha  occ. eigenvalues --  -19.19641 -19.19372 -19.14208 -19.13649 -19.11281
 Alpha  occ. eigenvalues --  -19.10025 -14.37599 -14.37231 -14.34055 -14.29368
 Alpha  occ. eigenvalues --  -10.34294 -10.32972 -10.28550 -10.27179 -10.25232
 Alpha  occ. eigenvalues --  -10.24205 -10.23404 -10.23225 -10.23022 -10.23013
 Alpha  occ. eigenvalues --  -10.22862 -10.22525 -10.22044 -10.21655 -10.21365
 Alpha  occ. eigenvalues --  -10.21131 -10.21093 -10.21068 -10.20826 -10.20790
 Alpha  occ. eigenvalues --  -10.20223 -10.20198 -10.20137 -10.20069 -10.20066
 Alpha  occ. eigenvalues --  -10.19487 -10.19292 -10.19283 -10.19080 -10.18426
 Alpha  occ. eigenvalues --  -10.17499 -10.17489 -10.16906  -1.10329  -1.08433
 Alpha  occ. eigenvalues --   -1.01330  -1.01073  -1.00186  -0.99192  -0.98014
 Alpha  occ. eigenvalues --   -0.96750  -0.94143  -0.92589  -0.82195  -0.81782
 Alpha  occ. eigenvalues --   -0.81502  -0.80386  -0.79404  -0.78999  -0.77164
 Alpha  occ. eigenvalues --   -0.76890  -0.76253  -0.74795  -0.74255  -0.72559
 Alpha  occ. eigenvalues --   -0.71769  -0.70789  -0.69106  -0.68337  -0.67855
 Alpha  occ. eigenvalues --   -0.67331  -0.65778  -0.64477  -0.62822  -0.61603
 Alpha  occ. eigenvalues --   -0.61148  -0.59186  -0.57846  -0.57486  -0.56196
 Alpha  occ. eigenvalues --   -0.56012  -0.55075  -0.54839  -0.54645  -0.52245
 Alpha  occ. eigenvalues --   -0.52045  -0.51777  -0.50975  -0.49613  -0.49349
 Alpha  occ. eigenvalues --   -0.49132  -0.48585  -0.48277  -0.48056  -0.47831
 Alpha  occ. eigenvalues --   -0.47280  -0.46981  -0.46422  -0.45727  -0.45262
 Alpha  occ. eigenvalues --   -0.44882  -0.44174  -0.44133  -0.43730  -0.43346
 Alpha  occ. eigenvalues --   -0.43287  -0.43066  -0.42908  -0.42634  -0.42531
 Alpha  occ. eigenvalues --   -0.41969  -0.41718  -0.41420  -0.41303  -0.40778
 Alpha  occ. eigenvalues --   -0.40616  -0.40350  -0.39842  -0.39732  -0.39480
 Alpha  occ. eigenvalues --   -0.39047  -0.38441  -0.38274  -0.38201  -0.37962
 Alpha  occ. eigenvalues --   -0.37754  -0.37567  -0.37417  -0.36881  -0.36687
 Alpha  occ. eigenvalues --   -0.36315  -0.35486  -0.34790  -0.34600  -0.34490
 Alpha  occ. eigenvalues --   -0.34446  -0.33981  -0.33591  -0.33422  -0.33240
 Alpha  occ. eigenvalues --   -0.33089  -0.32731  -0.32381  -0.29572  -0.29272
 Alpha  occ. eigenvalues --   -0.28754  -0.28511  -0.26454  -0.25383  -0.25243
 Alpha  occ. eigenvalues --   -0.24990  -0.24770  -0.24084  -0.22954  -0.21445
 Alpha  occ. eigenvalues --   -0.17074
 Alpha virt. eigenvalues --   -0.10664  -0.06797  -0.05111  -0.02375  -0.01188
 Alpha virt. eigenvalues --   -0.00784   0.01009   0.01630   0.03000   0.03731
 Alpha virt. eigenvalues --    0.04097   0.04180   0.04643   0.05123   0.05921

 Mulliken charges:
               1
     1  O   -0.272649
     2  O   -0.191806
     3  O   -0.224145
     4  O   -0.256804
     5  O   -0.269169
     6  O   -0.216478
     7  N   -0.099610
     8  N   -0.097302
     9  N   -0.207587
    10  N   -0.277095
    11  C   -0.023840
    12  C   -0.000146
    13  C   -0.199718
    14  C    0.103292
    15  C   -0.121937
    16  C    0.052017
    17  C   -0.067660
    18  C   -0.135927
    19  C    0.034987
    20  C   -0.079490
    21  C    0.139722
    22  C    0.070620
    23  C   -0.049254
    24  C    0.191704
    25  C   -0.209171
    26  C    0.067113
    27  C    0.176523
    28  C   -0.055025
    29  C    0.014766
    30  C    0.306826
    31  C   -0.149166
    32  C    0.205418
    33  C   -0.124846
    34  C    0.067613
    35  C   -0.135912
    36  C   -0.137222
    37  C    0.146952
    38  C    0.125453
    39  C    0.181453
    40  C    0.007854
    41  C    0.175487
    42  C    0.089618
    43  C   -0.005159
    44  H    0.195611
    45  H    0.078181
    46  H    0.046694
    47  H    0.021970
    48  H    0.059800
    49  H    0.015894
    50  H   -0.035167
    51  H    0.057281
    52  H    0.138457
    53  H    0.035436
    54  H    0.078194
    55  H   -0.004333
    56  H    0.183898
    57  H    0.058927
    58  H    0.060830
    59  H   -0.001925
    60  H    0.035868
    61  H   -0.011883
    62  H    0.008313
    63  H   -0.102766
    64  H    0.008781
    65  H   -0.017031
    66  H   -0.050217
    67  H   -0.024981
    68  H    0.006123
    69  H    0.054028
    70  H   -0.002107
    71  H   -0.027655
    72  H    0.000599
    73  H    0.023640
    74  H    0.029181
    75  H    0.039798
    76  H    0.030847
    77  H    0.008071
    78  H    0.004407
    79  H    0.037705
    80  H    0.204692
    81  H    0.204535
 Sum of Mulliken charges =  -0.00000

 Dipole moment (field-independent basis, Debye):
    X=             -1.4653    Y=              0.5231    Z=             -1.1189  Tot=              1.9164
 Quadrupole moment (field-independent basis, Debye-Ang):
   XX=           -244.7585   YY=           -239.8258   ZZ=           -256.3693
   XY=             19.0175   XZ=             17.0841   YZ=            -17.4714

 Normal termination of Gaussian 16 at Sat Jun 29 04:41:04 2019.
