 Gaussian 16, Revision A.03,
 Gaussian 16:  ES64L-G16RevA.03 25-Dec-2016

 --------------------------
 # td=(NStates=1) B3LYP/SVP
 --------------------------

 --
 TD
 --
 Symbolic Z-matrix:
 Charge =  0 Multiplicity = 1

                         Standard orientation:
 ---------------------------------------------------------------------
 Center     Atomic      Atomic             Coordinates (Angstroms)
 Number     Number       Type             X           Y           Z
 ---------------------------------------------------------------------
      1          8           0        4.475615   -4.802360   -1.771891
      2          8           0       -2.809658   -5.269309   -0.963789
      3          8           0       -6.937520   -1.919369   -1.628819
      4          8           0       -3.382199   -3.206778   -0.100409
      5          8           0       -7.686565   -0.643682    0.112460
      6          8           0        2.829706    2.515710    0.309751
      7          7           0        0.280830   -0.442415    0.468995
      8          7           0       -1.604478    1.743879    0.282987
      9          7           0        3.505538   -3.105014   -0.800629
     10          7           0        0.695878    2.875149    0.029855
     11          6           0       -0.464364   -2.331525    1.465836
     12          6           0       -0.932213   -1.097913    0.918225
     13          6           0        0.893289   -2.497414    1.287606
     14          6           0        1.363356   -1.373033    0.567443
     15          6           0       -3.880316    1.393470    0.169767
     16          6           0       -2.558228    0.760555    0.543872
     17          6           0       -2.163187   -0.491074    0.840710
     18          6           0       -3.790297    2.709944   -0.089498
     19          6           0       -1.490173   -3.301082    2.028682
     20          6           0        5.651418   -2.687384   -1.220996
     21          6           0        3.652717   -1.752382   -0.330645
     22          6           0       -2.262312    2.975795   -0.065061
     23          6           0        5.061467   -1.453182   -0.469356
     24          6           0       -5.199110    0.559222    0.305335
     25          6           0        2.696555   -0.965988    0.275804
     26          6           0        1.734012   -3.644448    1.765546
     27          6           0        4.477250   -3.599538   -1.378724
     28          6           0       -1.775894   -4.528984    1.040298
     29          6           0       -5.391708   -0.404391   -0.880667
     30          6           0       -4.710817    3.816421   -0.497424
     31          6           0       -1.472308    4.090036   -0.314798
     32          6           0        6.889540   -3.305332   -0.591020
     33          6           0        5.791615   -0.347678   -0.175052
     34          6           0       -0.063384    4.073788   -0.173901
     35          6           0        0.762436    5.266893   -0.401827
     36          6           0        2.132333    4.787725   -0.255213
     37          6           0       -2.862072   -4.324595   -0.030611
     38          6           0        5.463794    0.811950    0.611385
     39          6           0       -6.798498   -0.973161   -0.704413
     40          6           0        3.483894    5.365229   -0.291740
     41          6           0        1.982340    3.339894    0.047762
     42          6           0        0.385308    6.636200   -0.819547
     43          6           0        4.134920    5.776151    1.082929
     44          1           0        0.255730    0.443398    0.178925
     45          1           0       -2.956580   -1.109955    0.944591
     46          1           0       -2.529396   -2.892145    2.327663
     47          1           0       -1.029933   -3.585636    2.953877
     48          1           0        5.852506   -2.253268   -2.426631
     49          1           0       -5.327348    0.110582    1.342260
     50          1           0       -5.905720    1.422269    0.328192
     51          1           0        3.006881    0.159037    0.425385
     52          1           0       -0.572042    1.926560    0.687016
     53          1           0        1.598576   -4.496360    1.193723
     54          1           0        2.635249   -3.323559    1.969553
     55          1           0        1.455475   -3.974602    2.853405
     56          1           0        2.494453   -3.385320   -0.916433
     57          1           0       -0.838008   -4.677042    0.593231
     58          1           0       -2.200510   -5.440384    1.594497
     59          1           0       -4.755155   -1.334973   -0.827888
     60          1           0       -5.287056    0.149756   -1.948698
     61          1           0       -4.931197    4.602286    0.342460
     62          1           0       -5.796583    3.544278   -0.815105
     63          1           0       -4.268254    4.200285   -1.458835
     64          1           0       -1.873318    5.101843   -0.565689
     65          1           0        7.754112   -2.778392   -0.521318
     66          1           0        7.296395   -4.248840   -1.054091
     67          1           0        6.568640   -3.729773    0.470730
     68          1           0        6.692978   -0.299959   -0.648355
     69          1           0        4.844297    1.551579    0.120375
     70          1           0        6.469548    1.165271    0.940021
     71          1           0        4.821410    0.516535    1.459174
     72          1           0        3.499353    6.174761   -1.029899
     73          1           0        4.203680    4.473827   -0.552544
     74          1           0       -0.340558    6.653604   -1.613504
     75          1           0        1.332042    7.269722   -0.907065
     76          1           0       -0.115726    7.075228   -0.108938
     77          1           0        3.457838    6.522184    1.885752
     78          1           0        5.186486    6.060587    1.110354
     79          1           0        4.179000    4.887625    1.604007
     80          1           0       -3.478906   -4.893577   -1.542302
     81          1           0       -7.905939   -2.187339   -1.479015
 ---------------------------------------------------------------------

 SCF Done:  E(RB3LYP) =  -1949.08649431     A.U. after   18 cycles

 Excitation energies and oscillator strengths:

 Excited State   1:      Singlet-A      1.6952 eV  731.38 nm  f=0.2628  <S**2>=0.000
     156 ->157         0.70598
     156 <-157        -0.11194
 This state for optimization and/or second-order correction.
 Total Energy, E(TD-HF/TD-DFT) =  -1949.02419617
 Copying the excited state density for this state as the 1-particle RhoCI density.

 The electronic state is 1-A.
 Alpha  occ. eigenvalues --  -19.21884 -19.19725 -19.15057 -19.13199 -19.09743
 Alpha  occ. eigenvalues --  -19.07330 -14.37210 -14.36097 -14.35788 -14.28814
 Alpha  occ. eigenvalues --  -10.34343 -10.32503 -10.26621 -10.25462 -10.25160
 Alpha  occ. eigenvalues --  -10.23939 -10.23776 -10.23386 -10.23097 -10.22541
 Alpha  occ. eigenvalues --  -10.22213 -10.22054 -10.21736 -10.21720 -10.21482
 Alpha  occ. eigenvalues --  -10.21454 -10.21452 -10.20936 -10.20790 -10.20206
 Alpha  occ. eigenvalues --  -10.19986 -10.19795 -10.19731 -10.19637 -10.19624
 Alpha  occ. eigenvalues --  -10.19371 -10.19216 -10.19162 -10.19029 -10.18681
 Alpha  occ. eigenvalues --  -10.18461 -10.18316 -10.17048  -1.13433  -1.10374
 Alpha  occ. eigenvalues --   -1.02858  -1.02831  -1.02050  -0.99587  -0.96160
 Alpha  occ. eigenvalues --   -0.94831  -0.93232  -0.89772  -0.82123  -0.81716
 Alpha  occ. eigenvalues --   -0.81356  -0.81268  -0.79546  -0.79002  -0.77248
 Alpha  occ. eigenvalues --   -0.77175  -0.76908  -0.75765  -0.75132  -0.72840
 Alpha  occ. eigenvalues --   -0.71555  -0.70341  -0.69502  -0.68878  -0.67790
 Alpha  occ. eigenvalues --   -0.66938  -0.65948  -0.64651  -0.63049  -0.61524
 Alpha  occ. eigenvalues --   -0.60807  -0.59238  -0.58528  -0.58048  -0.57528
 Alpha  occ. eigenvalues --   -0.55838  -0.54990  -0.53700  -0.53394  -0.53039
 Alpha  occ. eigenvalues --   -0.52554  -0.52035  -0.51258  -0.50912  -0.49451
 Alpha  occ. eigenvalues --   -0.49306  -0.49080  -0.48889  -0.47875  -0.47673
 Alpha  occ. eigenvalues --   -0.47369  -0.46626  -0.46268  -0.45950  -0.45651
 Alpha  occ. eigenvalues --   -0.44845  -0.44830  -0.44468  -0.44152  -0.44031
 Alpha  occ. eigenvalues --   -0.43515  -0.43048  -0.42714  -0.42533  -0.41894
 Alpha  occ. eigenvalues --   -0.41694  -0.41410  -0.41125  -0.40996  -0.40770
 Alpha  occ. eigenvalues --   -0.40596  -0.40337  -0.40194  -0.39981  -0.39849
 Alpha  occ. eigenvalues --   -0.39599  -0.39303  -0.38869  -0.38530  -0.38363
 Alpha  occ. eigenvalues --   -0.37841  -0.37518  -0.37345  -0.37005  -0.36798
 Alpha  occ. eigenvalues --   -0.36033  -0.35389  -0.35243  -0.35039  -0.34684
 Alpha  occ. eigenvalues --   -0.34186  -0.34027  -0.33595  -0.33204  -0.32696
 Alpha  occ. eigenvalues --   -0.32486  -0.32362  -0.31719  -0.29631  -0.29409
 Alpha  occ. eigenvalues --   -0.28651  -0.27778  -0.26365  -0.25477  -0.25277
 Alpha  occ. eigenvalues --   -0.24437  -0.24302  -0.23202  -0.22323  -0.21727
 Alpha  occ. eigenvalues --   -0.17810
 Alpha virt. eigenvalues --   -0.10886  -0.06412  -0.03914  -0.02875  -0.00869
 Alpha virt. eigenvalues --    0.00678   0.01299   0.02921   0.03565   0.03818
 Alpha virt. eigenvalues --    0.04071   0.04374   0.04753   0.05231   0.06583

 Mulliken charges:
               1
     1  O   -0.290758
     2  O   -0.122038
     3  O   -0.174930
     4  O   -0.241524
     5  O   -0.270786
     6  O   -0.198110
     7  N   -0.092273
     8  N   -0.218551
     9  N    0.009882
    10  N   -0.316077
    11  C   -0.087999
    12  C    0.096903
    13  C   -0.183955
    14  C    0.079159
    15  C   -0.103392
    16  C    0.087210
    17  C    0.023731
    18  C   -0.053589
    19  C    0.107810
    20  C   -0.106833
    21  C    0.065304
    22  C    0.107872
    23  C    0.003526
    24  C    0.073502
    25  C   -0.150098
    26  C    0.191181
    27  C    0.044705
    28  C    0.013190
    29  C   -0.050934
    30  C    0.014174
    31  C   -0.129075
    32  C    0.079747
    33  C   -0.144400
    34  C    0.078720
    35  C   -0.151851
    36  C   -0.165853
    37  C    0.134888
    38  C    0.097282
    39  C    0.145387
    40  C    0.045811
    41  C    0.128817
    42  C    0.222210
    43  C   -0.009209
    44  H    0.063542
    45  H   -0.066566
    46  H    0.021486
    47  H   -0.006216
    48  H    0.056497
    49  H    0.041187
    50  H    0.010024
    51  H    0.072666
    52  H    0.206537
    53  H    0.018093
    54  H   -0.019731
    55  H    0.008575
    56  H    0.149270
    57  H    0.026693
    58  H    0.042880
    59  H    0.072671
    60  H    0.072338
    61  H    0.056764
    62  H    0.029453
    63  H    0.046669
    64  H   -0.024258
    65  H   -0.012755
    66  H    0.024087
    67  H    0.022100
    68  H   -0.043356
    69  H    0.065202
    70  H    0.011861
    71  H    0.023734
    72  H    0.009876
    73  H    0.037403
    74  H    0.013928
    75  H    0.028067
    76  H   -0.039403
    77  H    0.019518
    78  H    0.015763
    79  H   -0.002956
    80  H    0.169554
    81  H    0.190026
 Sum of Mulliken charges =  -0.00000

 Dipole moment (field-independent basis, Debye):
    X=             -4.5011    Y=              2.2712    Z=             -0.0416  Tot=              5.0418
 Quadrupole moment (field-independent basis, Debye-Ang):
   XX=           -249.0186   YY=           -241.2678   ZZ=           -254.7285
   XY=             24.6798   XZ=             19.2925   YZ=            -15.1962

 Normal termination of Gaussian 16 at Wed Jul  3 06:16:45 2019.
