 Gaussian 16, Revision A.03,
 Gaussian 16:  ES64L-G16RevA.03 25-Dec-2016

 --------------------------
 # td=(NStates=1) B3LYP/SVP
 --------------------------

 --
 TD
 --
 Symbolic Z-matrix:
 Charge =  0 Multiplicity = 1

                         Standard orientation:
 ---------------------------------------------------------------------
 Center     Atomic      Atomic             Coordinates (Angstroms)
 Number     Number       Type             X           Y           Z
 ---------------------------------------------------------------------
      1          8           0        4.035271   -5.039581   -1.811833
      2          8           0       -3.254585   -5.003732   -1.096875
      3          8           0       -7.158025   -1.404546   -1.800913
      4          8           0       -3.644452   -2.918403   -0.059159
      5          8           0       -7.619392   -0.277560    0.078734
      6          8           0        3.191922    2.377318    0.383944
      7          7           0        0.269024   -0.581014    0.626650
      8          7           0       -1.448216    1.887421    0.519397
      9          7           0        3.198831   -3.222374   -0.561423
     10          7           0        0.919307    3.009379   -0.000951
     11          6           0       -0.718175   -2.381467    1.379559
     12          6           0       -0.985411   -1.003614    1.055162
     13          6           0        0.713943   -2.655983    1.319029
     14          6           0        1.264150   -1.446945    0.862707
     15          6           0       -3.732784    1.625962    0.283046
     16          6           0       -2.418492    0.982014    0.651912
     17          6           0       -2.187183   -0.359940    0.926252
     18          6           0       -3.361284    2.903068   -0.166860
     19          6           0       -1.771897   -3.410503    2.031371
     20          6           0        5.270379   -2.958248   -1.448311
     21          6           0        3.502298   -1.976109   -0.173220
     22          6           0       -1.971751    3.155203   -0.036137
     23          6           0        4.888308   -1.787297   -0.507306
     24          6           0       -5.041914    0.888936    0.344572
     25          6           0        2.632881   -1.070960    0.394236
     26          6           0        1.387295   -3.910763    1.899801
     27          6           0        4.112058   -3.915756   -1.227596
     28          6           0       -2.128256   -4.535603    1.010171
     29          6           0       -5.373749   -0.075731   -0.926552
     30          6           0       -4.400577    3.895792   -0.663002
     31          6           0       -1.197660    4.190957   -0.488077
     32          6           0        6.699478   -3.501866   -1.131995
     33          6           0        5.685818   -0.796684   -0.190975
     34          6           0        0.261423    4.042035   -0.291788
     35          6           0        1.219236    5.143030   -0.422795
     36          6           0        2.533143    4.635313   -0.167617
     37          6           0       -3.041530   -4.056995   -0.067229
     38          6           0        5.524697    0.509433    0.671657
     39          6           0       -6.810779   -0.515464   -0.842927
     40          6           0        3.767013    5.287208   -0.234781
     41          6           0        2.252026    3.219651    0.118577
     42          6           0        0.840770    6.602140   -0.792288
     43          6           0        4.392106    5.356857    1.133223
     44          1           0        0.552111    0.381312    0.321224
     45          1           0       -3.151176   -1.038717    1.053172
     46          1           0       -2.796952   -2.718321    2.288407
     47          1           0       -1.456302   -3.902214    2.979046
     48          1           0        5.395694   -2.563939   -2.448168
     49          1           0       -5.158163    0.394372    1.282380
     50          1           0       -5.912097    1.604074    0.424492
     51          1           0        2.926046   -0.074296    0.389919
     52          1           0       -0.365388    2.208829    0.531310
     53          1           0        1.385199   -4.739782    1.165443
     54          1           0        2.538254   -3.597389    2.077910
     55          1           0        0.839557   -4.358923    2.700356
     56          1           0        2.134997   -3.376392   -0.906777
     57          1           0       -1.243632   -4.901186    0.680041
     58          1           0       -2.513951   -5.490741    1.544866
     59          1           0       -4.577363   -0.880798   -0.842741
     60          1           0       -4.982170    0.609865   -1.805262
     61          1           0       -4.469775    4.841617   -0.116620
     62          1           0       -5.536488    3.384521   -0.417014
     63          1           0       -4.149917    4.436803   -1.672654
     64          1           0       -1.790587    5.041061   -0.734413
     65          1           0        7.551096   -2.602969   -1.411600
     66          1           0        6.925708   -4.218978   -2.010495
     67          1           0        7.006081   -4.138875   -0.104327
     68          1           0        6.547938   -0.724294   -0.825291
     69          1           0        4.977253    1.266088    0.171310
     70          1           0        6.518603    0.845860    1.135950
     71          1           0        4.751744    0.162805    1.508957
     72          1           0        3.660222    6.369488   -0.601109
     73          1           0        4.490627    4.626588   -0.844341
     74          1           0        0.302028    6.665198   -1.722571
     75          1           0        1.702002    7.313360   -1.041666
     76          1           0        0.352663    7.044710    0.025099
     77          1           0        3.698315    5.887857    1.869244
     78          1           0        5.432271    5.843671    1.081939
     79          1           0        4.591448    4.387360    1.725690
     80          1           0       -3.894595   -4.475562   -1.494361
     81          1           0       -8.093329   -1.499958   -1.405147
 ---------------------------------------------------------------------

 SCF Done:  E(RB3LYP) =  -1949.07127755     A.U. after   19 cycles

 Excitation energies and oscillator strengths:

 Excited State   1:      Singlet-A      1.6778 eV  738.96 nm  f=0.3105  <S**2>=0.000
     156 ->157         0.71218
     156 <-157        -0.14907
 This state for optimization and/or second-order correction.
 Total Energy, E(TD-HF/TD-DFT) =  -1949.00961901
 Copying the excited state density for this state as the 1-particle RhoCI density.

 The electronic state is 1-A.
 Alpha  occ. eigenvalues --  -19.20386 -19.19309 -19.16096 -19.13826 -19.11256
 Alpha  occ. eigenvalues --  -19.11027 -14.38705 -14.38032 -14.35156 -14.30616
 Alpha  occ. eigenvalues --  -10.35670 -10.33468 -10.29513 -10.27773 -10.24272
 Alpha  occ. eigenvalues --  -10.24140 -10.24065 -10.23893 -10.23749 -10.23463
 Alpha  occ. eigenvalues --  -10.23250 -10.22631 -10.22523 -10.21733 -10.21599
 Alpha  occ. eigenvalues --  -10.21531 -10.21348 -10.21141 -10.20956 -10.20860
 Alpha  occ. eigenvalues --  -10.20711 -10.20554 -10.20384 -10.20343 -10.20315
 Alpha  occ. eigenvalues --  -10.19428 -10.19413 -10.19198 -10.19157 -10.19065
 Alpha  occ. eigenvalues --  -10.18830 -10.18623 -10.18531  -1.10715  -1.10531
 Alpha  occ. eigenvalues --   -1.02967  -1.00808  -1.00478  -0.99579  -0.98983
 Alpha  occ. eigenvalues --   -0.96445  -0.96238  -0.94594  -0.82126  -0.81598
 Alpha  occ. eigenvalues --   -0.81467  -0.81140  -0.80569  -0.79464  -0.78123
 Alpha  occ. eigenvalues --   -0.77104  -0.76552  -0.75052  -0.73594  -0.72028
 Alpha  occ. eigenvalues --   -0.70461  -0.69315  -0.69174  -0.67912  -0.67262
 Alpha  occ. eigenvalues --   -0.66985  -0.66073  -0.64662  -0.63599  -0.62035
 Alpha  occ. eigenvalues --   -0.61020  -0.59690  -0.58235  -0.57915  -0.56335
 Alpha  occ. eigenvalues --   -0.56249  -0.55728  -0.55217  -0.54143  -0.53058
 Alpha  occ. eigenvalues --   -0.52804  -0.52299  -0.51587  -0.51254  -0.50246
 Alpha  occ. eigenvalues --   -0.49711  -0.48940  -0.48526  -0.48162  -0.47874
 Alpha  occ. eigenvalues --   -0.47323  -0.46731  -0.46290  -0.45914  -0.45387
 Alpha  occ. eigenvalues --   -0.45220  -0.44892  -0.44347  -0.44190  -0.43711
 Alpha  occ. eigenvalues --   -0.43463  -0.43291  -0.43050  -0.42791  -0.42518
 Alpha  occ. eigenvalues --   -0.41990  -0.41556  -0.41443  -0.41361  -0.40932
 Alpha  occ. eigenvalues --   -0.40406  -0.40199  -0.39928  -0.39683  -0.39266
 Alpha  occ. eigenvalues --   -0.38756  -0.38440  -0.38313  -0.38044  -0.37865
 Alpha  occ. eigenvalues --   -0.37701  -0.37539  -0.37012  -0.36788  -0.36563
 Alpha  occ. eigenvalues --   -0.36259  -0.35680  -0.35316  -0.34856  -0.34526
 Alpha  occ. eigenvalues --   -0.34342  -0.33972  -0.33857  -0.33644  -0.33347
 Alpha  occ. eigenvalues --   -0.32477  -0.32450  -0.31515  -0.31002  -0.30384
 Alpha  occ. eigenvalues --   -0.29492  -0.28034  -0.27150  -0.26336  -0.25423
 Alpha  occ. eigenvalues --   -0.25112  -0.25039  -0.24687  -0.23257  -0.22418
 Alpha  occ. eigenvalues --   -0.17997
 Alpha virt. eigenvalues --   -0.11574  -0.06932  -0.05113  -0.04272  -0.02349
 Alpha virt. eigenvalues --   -0.02273   0.01650   0.02791   0.03079   0.04244
 Alpha virt. eigenvalues --    0.04628   0.04690   0.04947   0.05455   0.05826

 Mulliken charges:
               1
     1  O   -0.262712
     2  O   -0.162693
     3  O   -0.189183
     4  O   -0.285573
     5  O   -0.280152
     6  O   -0.273353
     7  N   -0.070542
     8  N   -0.199243
     9  N   -0.063853
    10  N   -0.213767
    11  C   -0.108664
    12  C    0.117879
    13  C   -0.196598
    14  C    0.028639
    15  C   -0.075912
    16  C    0.077971
    17  C   -0.112122
    18  C   -0.090518
    19  C   -0.000853
    20  C   -0.043784
    21  C    0.056135
    22  C    0.064790
    23  C    0.020572
    24  C    0.058533
    25  C   -0.045031
    26  C    0.101965
    27  C    0.145526
    28  C    0.059072
    29  C   -0.067972
    30  C    0.002533
    31  C   -0.047972
    32  C   -0.073029
    33  C   -0.171485
    34  C    0.064681
    35  C   -0.151138
    36  C   -0.123236
    37  C    0.202734
    38  C    0.039386
    39  C    0.212102
    40  C    0.092160
    41  C    0.158799
    42  C    0.105250
    43  C   -0.076551
    44  H    0.151987
    45  H    0.066177
    46  H    0.047689
    47  H    0.025617
    48  H    0.040343
    49  H    0.013791
    50  H    0.015222
    51  H   -0.040723
    52  H    0.199809
    53  H    0.015709
    54  H    0.059685
    55  H    0.004148
    56  H    0.191456
    57  H    0.000796
    58  H    0.060005
    59  H    0.079367
    60  H    0.069571
    61  H    0.013494
    62  H    0.048518
    63  H    0.029226
    64  H   -0.029977
    65  H    0.032057
    66  H    0.033286
    67  H    0.058170
    68  H   -0.015882
    69  H    0.061713
    70  H    0.028768
    71  H    0.033183
    72  H    0.012548
    73  H    0.026196
    74  H    0.017379
    75  H    0.008052
    76  H    0.017036
    77  H    0.010570
    78  H    0.016076
    79  H    0.040802
    80  H    0.148507
    81  H    0.186838
 Sum of Mulliken charges =  -0.00000

 Dipole moment (field-independent basis, Debye):
    X=             -2.4534    Y=              1.4401    Z=             -0.2823  Tot=              2.8588
 Quadrupole moment (field-independent basis, Debye-Ang):
   XX=           -260.0863   YY=           -244.8655   ZZ=           -257.3974
   XY=             16.8515   XZ=              6.5201   YZ=            -18.4770

 Normal termination of Gaussian 16 at Wed Jul  3 09:02:48 2019.
