 Gaussian 16, Revision A.03,
 Gaussian 16:  ES64L-G16RevA.03 25-Dec-2016

 --------------------------
 # td=(NStates=1) B3LYP/SVP
 --------------------------

 --
 TD
 --
 Symbolic Z-matrix:
 Charge =  0 Multiplicity = 1

                         Standard orientation:
 ---------------------------------------------------------------------
 Center     Atomic      Atomic             Coordinates (Angstroms)
 Number     Number       Type             X           Y           Z
 ---------------------------------------------------------------------
      1          8           0        4.138310   -4.782063   -1.918979
      2          8           0       -3.004907   -4.881092   -1.005964
      3          8           0       -7.088312   -1.498505   -2.059672
      4          8           0       -3.704475   -3.216380    0.183143
      5          8           0       -7.558675   -0.554775   -0.035470
      6          8           0        3.003453    2.404061    0.314542
      7          7           0        0.288471   -0.477830    0.664386
      8          7           0       -1.594975    1.871308    0.401269
      9          7           0        3.267268   -3.134036   -0.656445
     10          7           0        0.733401    2.956089    0.091317
     11          6           0       -0.635901   -2.389546    1.467469
     12          6           0       -0.901967   -1.070337    1.049345
     13          6           0        0.795351   -2.568501    1.299316
     14          6           0        1.314191   -1.374204    0.745597
     15          6           0       -3.811179    1.472006    0.345859
     16          6           0       -2.532304    0.800907    0.550448
     17          6           0       -2.199443   -0.522966    0.845248
     18          6           0       -3.572967    2.775829   -0.062316
     19          6           0       -1.550150   -3.309150    2.201108
     20          6           0        5.544057   -2.796948   -1.372644
     21          6           0        3.656887   -1.757289   -0.273039
     22          6           0       -2.209115    3.035149    0.022038
     23          6           0        5.036053   -1.584011   -0.538415
     24          6           0       -5.110533    0.695831    0.308770
     25          6           0        2.707932   -0.954174    0.372273
     26          6           0        1.543065   -3.747491    1.730157
     27          6           0        4.337647   -3.785753   -1.324938
     28          6           0       -2.048033   -4.534376    1.085782
     29          6           0       -5.361940   -0.156254   -0.969069
     30          6           0       -4.650790    3.860079   -0.344002
     31          6           0       -1.355874    4.158182   -0.283922
     32          6           0        6.784497   -3.513267   -0.908743
     33          6           0        5.894833   -0.709924   -0.146833
     34          6           0        0.041269    4.060641   -0.189970
     35          6           0        1.053747    5.209087   -0.375863
     36          6           0        2.296997    4.643564   -0.221460
     37          6           0       -2.912666   -4.075946    0.003394
     38          6           0        5.452914    0.547428    0.622854
     39          6           0       -6.766051   -0.781347   -0.920338
     40          6           0        3.627244    5.327686   -0.368799
     41          6           0        2.151554    3.224929    0.107936
     42          6           0        0.733048    6.659215   -0.770118
     43          6           0        4.365883    5.483288    1.003503
     44          1           0        0.430857    0.482360    0.149192
     45          1           0       -2.970826   -1.210494    1.073727
     46          1           0       -2.509323   -2.801468    2.583131
     47          1           0       -1.164665   -3.486167    3.102041
     48          1           0        5.650679   -2.596603   -2.356232
     49          1           0       -5.256183    0.129257    1.158888
     50          1           0       -6.059737    1.390608    0.461207
     51          1           0        2.860111    0.070091    0.490324
     52          1           0       -0.567773    1.853323    0.507819
     53          1           0        1.718032   -4.480615    0.940506
     54          1           0        2.585240   -3.531181    1.963391
     55          1           0        1.084584   -4.100209    2.736609
     56          1           0        2.363142   -3.444325   -0.639851
     57          1           0       -1.282239   -4.995567    0.569478
     58          1           0       -2.565040   -5.383527    1.471929
     59          1           0       -4.531436   -0.950754   -1.008217
     60          1           0       -5.392497    0.389273   -1.962992
     61          1           0       -4.676264    4.778152    0.227351
     62          1           0       -5.594410    3.298615   -0.359807
     63          1           0       -4.499357    4.011603   -1.440812
     64          1           0       -1.601122    5.168717   -0.588419
     65          1           0        7.793647   -2.736001   -1.047953
     66          1           0        7.058779   -4.346987   -1.588646
     67          1           0        6.604481   -3.892152    0.042433
     68          1           0        7.104737   -0.784136   -0.257056
     69          1           0        5.111744    1.436170   -0.025397
     70          1           0        6.349110    1.250477    1.223178
     71          1           0        4.778921    0.670001    1.497536
     72          1           0        3.662429    6.090077   -0.861096
     73          1           0        4.155949    4.770927   -0.922246
     74          1           0        0.138693    6.827096   -1.927229
     75          1           0        1.493931    7.359141   -0.893701
     76          1           0        0.028505    6.946642    0.063071
     77          1           0        3.708890    6.188332    1.566357
     78          1           0        5.462075    5.782783    0.740005
     79          1           0        4.642194    4.315436    1.367710
     80          1           0       -3.645123   -4.719026   -1.514991
     81          1           0       -7.922593   -1.962573   -2.009508
 ---------------------------------------------------------------------

 SCF Done:  E(RB3LYP) =  -1949.04248202     A.U. after   16 cycles

 Excitation energies and oscillator strengths:

 Excited State   1:      Singlet-A      1.8634 eV  665.38 nm  f=0.3268  <S**2>=0.000
     156 ->157         0.70622
     156 <-157        -0.10946
 This state for optimization and/or second-order correction.
 Total Energy, E(TD-HF/TD-DFT) =  -1948.97400445
 Copying the excited state density for this state as the 1-particle RhoCI density.

 The electronic state is 1-A.
 Alpha  occ. eigenvalues --  -19.19076 -19.17800 -19.12968 -19.12936 -19.11217
 Alpha  occ. eigenvalues --  -19.10975 -14.38117 -14.35516 -14.35151 -14.28202
 Alpha  occ. eigenvalues --  -10.32682 -10.32462 -10.28931 -10.26541 -10.24815
 Alpha  occ. eigenvalues --  -10.23965 -10.23641 -10.23442 -10.23062 -10.22495
 Alpha  occ. eigenvalues --  -10.22018 -10.21673 -10.21397 -10.21352 -10.21246
 Alpha  occ. eigenvalues --  -10.21116 -10.20739 -10.20441 -10.20129 -10.20112
 Alpha  occ. eigenvalues --  -10.20094 -10.20061 -10.19897 -10.19821 -10.19622
 Alpha  occ. eigenvalues --  -10.19608 -10.19446 -10.19405 -10.19175 -10.19159
 Alpha  occ. eigenvalues --  -10.18730 -10.18179 -10.15200  -1.15486  -1.08518
 Alpha  occ. eigenvalues --   -1.05281  -1.03939  -1.02672  -1.00638  -0.98050
 Alpha  occ. eigenvalues --   -0.96682  -0.93169  -0.90619  -0.82698  -0.81971
 Alpha  occ. eigenvalues --   -0.81327  -0.80671  -0.79638  -0.78815  -0.77994
 Alpha  occ. eigenvalues --   -0.76902  -0.76189  -0.74698  -0.73762  -0.73228
 Alpha  occ. eigenvalues --   -0.71189  -0.70031  -0.69158  -0.68578  -0.67546
 Alpha  occ. eigenvalues --   -0.67298  -0.65684  -0.64869  -0.64359  -0.61780
 Alpha  occ. eigenvalues --   -0.61348  -0.60177  -0.59054  -0.58095  -0.56588
 Alpha  occ. eigenvalues --   -0.56298  -0.56003  -0.54821  -0.53139  -0.52997
 Alpha  occ. eigenvalues --   -0.52364  -0.51506  -0.51060  -0.50662  -0.49893
 Alpha  occ. eigenvalues --   -0.49665  -0.49134  -0.48720  -0.48359  -0.47510
 Alpha  occ. eigenvalues --   -0.47397  -0.46518  -0.46240  -0.45957  -0.45258
 Alpha  occ. eigenvalues --   -0.45170  -0.44624  -0.44491  -0.44071  -0.43821
 Alpha  occ. eigenvalues --   -0.43588  -0.43560  -0.43257  -0.42369  -0.42252
 Alpha  occ. eigenvalues --   -0.41784  -0.41509  -0.41286  -0.40964  -0.40785
 Alpha  occ. eigenvalues --   -0.40380  -0.40099  -0.39948  -0.39860  -0.39593
 Alpha  occ. eigenvalues --   -0.39410  -0.39358  -0.38931  -0.38512  -0.38396
 Alpha  occ. eigenvalues --   -0.38042  -0.37468  -0.36945  -0.36754  -0.36208
 Alpha  occ. eigenvalues --   -0.36000  -0.35618  -0.35588  -0.34842  -0.34537
 Alpha  occ. eigenvalues --   -0.34352  -0.34242  -0.33734  -0.33417  -0.33287
 Alpha  occ. eigenvalues --   -0.32505  -0.32461  -0.30999  -0.30106  -0.28933
 Alpha  occ. eigenvalues --   -0.28246  -0.27520  -0.27254  -0.25596  -0.25461
 Alpha  occ. eigenvalues --   -0.25227  -0.24671  -0.23899  -0.23196  -0.21354
 Alpha  occ. eigenvalues --   -0.18015
 Alpha virt. eigenvalues --   -0.10452  -0.05764  -0.04368  -0.00638   0.00067
 Alpha virt. eigenvalues --    0.00483   0.02101   0.03717   0.03974   0.04422
 Alpha virt. eigenvalues --    0.04763   0.05014   0.05232   0.05796   0.05957

 Mulliken charges:
               1
     1  O   -0.167736
     2  O   -0.040185
     3  O   -0.215198
     4  O   -0.218488
     5  O   -0.218603
     6  O   -0.181647
     7  N   -0.110272
     8  N   -0.132289
     9  N   -0.159620
    10  N   -0.352144
    11  C   -0.110562
    12  C    0.056175
    13  C   -0.177306
    14  C    0.047777
    15  C   -0.048058
    16  C    0.094464
    17  C   -0.011546
    18  C   -0.174272
    19  C    0.134179
    20  C   -0.017359
    21  C    0.132118
    22  C    0.155339
    23  C    0.095649
    24  C    0.080740
    25  C   -0.061042
    26  C    0.098372
    27  C    0.102343
    28  C    0.073378
    29  C   -0.031912
    30  C    0.140687
    31  C   -0.080229
    32  C    0.020858
    33  C   -0.158783
    34  C    0.027781
    35  C   -0.077151
    36  C   -0.210362
    37  C    0.058463
    38  C   -0.078958
    39  C    0.157748
    40  C    0.344501
    41  C    0.171294
    42  C    0.031905
    43  C   -0.093208
    44  H    0.179451
    45  H   -0.009937
    46  H    0.021392
    47  H   -0.022191
    48  H    0.004309
    49  H   -0.007556
    50  H    0.025160
    51  H   -0.015415
    52  H    0.127127
    53  H    0.015974
    54  H    0.005858
    55  H    0.029642
    56  H    0.098991
    57  H   -0.006590
    58  H    0.032208
    59  H    0.062782
    60  H    0.046172
    61  H    0.044041
    62  H   -0.005582
    63  H    0.012706
    64  H   -0.043772
    65  H    0.034821
    66  H    0.033621
    67  H    0.007911
    68  H    0.049777
    69  H    0.065055
    70  H   -0.011338
    71  H    0.047901
    72  H   -0.119790
    73  H   -0.079782
    74  H    0.042385
    75  H    0.003973
    76  H    0.041771
    77  H    0.040257
    78  H    0.018661
    79  H    0.055346
    80  H    0.100088
    81  H    0.177734
 Sum of Mulliken charges =  -0.00000

 Dipole moment (field-independent basis, Debye):
    X=             -2.1316    Y=             -0.5393    Z=             -0.9595  Tot=              2.3990
 Quadrupole moment (field-independent basis, Debye-Ang):
   XX=           -247.7048   YY=           -234.9782   ZZ=           -253.5442
   XY=             17.5905   XZ=             11.0120   YZ=            -12.6463

 Normal termination of Gaussian 16 at Mon Jul  1 11:32:42 2019.
