 Gaussian 16, Revision A.03,
 Gaussian 16:  ES64L-G16RevA.03 25-Dec-2016

 --------------------------
 # td=(NStates=1) B3LYP/SVP
 --------------------------

 --
 TD
 --
 Symbolic Z-matrix:
 Charge =  0 Multiplicity = 1

                         Standard orientation:
 ---------------------------------------------------------------------
 Center     Atomic      Atomic             Coordinates (Angstroms)
 Number     Number       Type             X           Y           Z
 ---------------------------------------------------------------------
      1          8           0        3.949110   -4.954757   -1.943708
      2          8           0       -2.896363   -4.771505   -1.034739
      3          8           0       -6.836669   -1.430998   -1.929703
      4          8           0       -3.868463   -3.010683    0.042503
      5          8           0       -7.657167   -0.235283   -0.213129
      6          8           0        3.133554    2.262357    0.546820
      7          7           0        0.129807   -0.515724    0.706454
      8          7           0       -1.539829    1.923571    0.363126
      9          7           0        3.196036   -3.158340   -0.625225
     10          7           0        0.869455    2.822740    0.057892
     11          6           0       -0.738427   -2.366933    1.542449
     12          6           0       -1.099898   -1.041042    1.153988
     13          6           0        0.539165   -2.618661    1.243759
     14          6           0        1.187566   -1.459843    0.654541
     15          6           0       -3.711462    1.591906    0.251197
     16          6           0       -2.446457    1.035183    0.640162
     17          6           0       -2.285162   -0.379481    1.011746
     18          6           0       -3.505206    2.941097   -0.142338
     19          6           0       -1.800397   -3.283214    2.191790
     20          6           0        5.352242   -2.935546   -1.523476
     21          6           0        3.440399   -1.893460   -0.277165
     22          6           0       -2.048036    3.114921   -0.094597
     23          6           0        4.895872   -1.772107   -0.535931
     24          6           0       -5.074071    0.859389    0.415573
     25          6           0        2.485157   -1.043196    0.349830
     26          6           0        1.347179   -3.804559    1.791804
     27          6           0        4.070805   -3.821855   -1.416696
     28          6           0       -2.241789   -4.425101    1.200468
     29          6           0       -5.353232    0.029348   -0.940369
     30          6           0       -4.309829    3.981692   -0.643203
     31          6           0       -1.097623    4.172794   -0.386216
     32          6           0        6.726209   -3.538494   -1.130726
     33          6           0        5.837498   -0.828109   -0.146973
     34          6           0        0.316029    3.995290   -0.215510
     35          6           0        1.312892    5.040305   -0.388687
     36          6           0        2.534919    4.582957   -0.156615
     37          6           0       -3.090218   -3.993511   -0.015093
     38          6           0        5.448061    0.286568    0.842847
     39          6           0       -6.746918   -0.509958   -0.880688
     40          6           0        3.939269    5.179066   -0.247900
     41          6           0        2.255068    3.073281    0.201126
     42          6           0        0.944828    6.448347   -0.945957
     43          6           0        4.520966    5.402599    1.184051
     44          1           0        0.304715    0.447313    0.302807
     45          1           0       -3.162792   -0.834990    1.183744
     46          1           0       -2.632880   -2.706317    2.407261
     47          1           0       -1.421586   -3.594558    3.313451
     48          1           0        5.230366   -2.606227   -2.506991
     49          1           0       -4.891354    0.092245    1.283081
     50          1           0       -6.026092    1.532319    0.789895
     51          1           0        2.799068   -0.117021    0.525111
     52          1           0       -0.596879    1.809457    0.517241
     53          1           0        1.513788   -4.613751    0.927846
     54          1           0        2.471010   -3.508953    2.228886
     55          1           0        0.799273   -4.392376    2.644383
     56          1           0        2.204447   -3.321419   -0.744989
     57          1           0       -1.529830   -5.158819    0.974280
     58          1           0       -2.939782   -4.980895    1.760392
     59          1           0       -4.654634   -0.691222   -1.263902
     60          1           0       -5.431373    0.722678   -1.659752
     61          1           0       -4.240802    4.856929    0.085279
     62          1           0       -5.317811    3.876550   -0.844792
     63          1           0       -3.906256    4.361029   -1.566033
     64          1           0       -1.549766    4.981329   -0.839463
     65          1           0        7.470908   -2.765087   -1.533158
     66          1           0        6.811489   -4.588349   -1.462765
     67          1           0        6.702853   -3.678975    0.084167
     68          1           0        6.952074   -0.704624   -0.598398
     69          1           0        4.985289    1.127772    0.478995
     70          1           0        6.446687    0.860121    1.109863
     71          1           0        4.846340    0.087511    1.674760
     72          1           0        3.829620    6.116212   -0.809099
     73          1           0        4.457589    4.455938   -0.890257
     74          1           0        0.618826    6.452438   -2.072017
     75          1           0        1.861100    7.055512   -0.895685
     76          1           0        0.011827    6.889900   -0.438499
     77          1           0        3.946723    6.024414    1.766123
     78          1           0        5.538143    5.917887    1.025574
     79          1           0        4.707155    4.454053    1.708027
     80          1           0       -3.271405   -4.590372   -1.736908
     81          1           0       -7.748733   -1.764466   -1.711686
 ---------------------------------------------------------------------

 SCF Done:  E(RB3LYP) =  -1949.10078049     A.U. after   18 cycles

 Excitation energies and oscillator strengths:

 Excited State   1:      Singlet-A      1.6873 eV  734.80 nm  f=0.3869  <S**2>=0.000
     156 ->157         0.71732
     156 <-157        -0.15794
 This state for optimization and/or second-order correction.
 Total Energy, E(TD-HF/TD-DFT) =  -1949.03877261
 Copying the excited state density for this state as the 1-particle RhoCI density.

 The electronic state is 1-A.
 Alpha  occ. eigenvalues --  -19.20443 -19.16631 -19.13791 -19.13623 -19.11467
 Alpha  occ. eigenvalues --  -19.10510 -14.38384 -14.37713 -14.35583 -14.28862
 Alpha  occ. eigenvalues --  -10.34578 -10.31249 -10.29813 -10.26846 -10.25660
 Alpha  occ. eigenvalues --  -10.24615 -10.23664 -10.23295 -10.22997 -10.22439
 Alpha  occ. eigenvalues --  -10.22357 -10.22272 -10.22142 -10.22008 -10.21217
 Alpha  occ. eigenvalues --  -10.20933 -10.20880 -10.20872 -10.20732 -10.20336
 Alpha  occ. eigenvalues --  -10.20279 -10.20110 -10.20030 -10.19854 -10.19472
 Alpha  occ. eigenvalues --  -10.19228 -10.19228 -10.18857 -10.18715 -10.18553
 Alpha  occ. eigenvalues --  -10.18408 -10.17852 -10.16866  -1.15390  -1.10135
 Alpha  occ. eigenvalues --   -1.03286  -1.01397  -1.00920  -1.00160  -0.99769
 Alpha  occ. eigenvalues --   -0.97408  -0.96833  -0.91748  -0.82291  -0.81751
 Alpha  occ. eigenvalues --   -0.81410  -0.80767  -0.79467  -0.78972  -0.78558
 Alpha  occ. eigenvalues --   -0.77530  -0.76154  -0.74486  -0.73980  -0.72917
 Alpha  occ. eigenvalues --   -0.72417  -0.70888  -0.69175  -0.68227  -0.67723
 Alpha  occ. eigenvalues --   -0.66844  -0.66127  -0.65175  -0.64305  -0.62958
 Alpha  occ. eigenvalues --   -0.61984  -0.60089  -0.59481  -0.58272  -0.57023
 Alpha  occ. eigenvalues --   -0.56701  -0.54937  -0.54835  -0.53425  -0.52725
 Alpha  occ. eigenvalues --   -0.51946  -0.51579  -0.51439  -0.50228  -0.49838
 Alpha  occ. eigenvalues --   -0.49442  -0.49207  -0.48778  -0.48451  -0.48035
 Alpha  occ. eigenvalues --   -0.47301  -0.46932  -0.46500  -0.45774  -0.45207
 Alpha  occ. eigenvalues --   -0.44611  -0.44479  -0.44290  -0.43782  -0.43754
 Alpha  occ. eigenvalues --   -0.43476  -0.43165  -0.42976  -0.42453  -0.42295
 Alpha  occ. eigenvalues --   -0.42156  -0.41750  -0.41278  -0.41212  -0.40965
 Alpha  occ. eigenvalues --   -0.40551  -0.40184  -0.39995  -0.39424  -0.39324
 Alpha  occ. eigenvalues --   -0.39024  -0.38704  -0.38517  -0.38425  -0.38251
 Alpha  occ. eigenvalues --   -0.38108  -0.37770  -0.37702  -0.37349  -0.36998
 Alpha  occ. eigenvalues --   -0.36737  -0.36120  -0.35889  -0.35259  -0.35123
 Alpha  occ. eigenvalues --   -0.35061  -0.34502  -0.34138  -0.33636  -0.33446
 Alpha  occ. eigenvalues --   -0.32620  -0.32442  -0.32277  -0.30165  -0.29233
 Alpha  occ. eigenvalues --   -0.29045  -0.27864  -0.26886  -0.26165  -0.25784
 Alpha  occ. eigenvalues --   -0.24865  -0.24503  -0.23860  -0.23538  -0.21934
 Alpha  occ. eigenvalues --   -0.17118
 Alpha virt. eigenvalues --   -0.10753  -0.06044  -0.04409  -0.01696  -0.00994
 Alpha virt. eigenvalues --    0.01530   0.02151   0.03334   0.04143   0.04333
 Alpha virt. eigenvalues --    0.04775   0.05154   0.05401   0.06037   0.06477

 Mulliken charges:
               1
     1  O   -0.247965
     2  O   -0.012757
     3  O   -0.239116
     4  O   -0.266123
     5  O   -0.169258
     6  O   -0.235324
     7  N   -0.179392
     8  N    0.055581
     9  N   -0.015366
    10  N   -0.303626
    11  C   -0.091149
    12  C    0.131288
    13  C   -0.124846
    14  C    0.121499
    15  C   -0.114771
    16  C   -0.003666
    17  C    0.027075
    18  C   -0.077179
    19  C    0.106178
    20  C   -0.039946
    21  C    0.012148
    22  C    0.013180
    23  C   -0.047784
    24  C   -0.031390
    25  C    0.011571
    26  C   -0.040911
    27  C    0.095136
    28  C    0.086647
    29  C    0.125943
    30  C    0.116351
    31  C   -0.079613
    32  C    0.023458
    33  C   -0.147075
    34  C    0.127196
    35  C   -0.098254
    36  C   -0.209678
    37  C    0.104239
    38  C    0.066009
    39  C    0.104560
    40  C    0.106294
    41  C    0.166264
    42  C    0.049665
    43  C    0.021085
    44  H    0.148137
    45  H   -0.077861
    46  H   -0.020004
    47  H    0.041841
    48  H    0.023751
    49  H    0.037938
    50  H    0.063635
    51  H   -0.077468
    52  H    0.083524
    53  H    0.038462
    54  H    0.064194
    55  H    0.033074
    56  H    0.135870
    57  H    0.001838
    58  H    0.018915
    59  H    0.030014
    60  H   -0.005917
    61  H    0.023235
    62  H   -0.015374
    63  H    0.014132
    64  H   -0.064998
    65  H    0.048211
    66  H    0.041132
    67  H    0.038720
    68  H    0.045999
    69  H    0.021495
    70  H   -0.004728
    71  H    0.019891
    72  H   -0.010282
    73  H    0.018937
    74  H    0.031378
    75  H    0.016260
    76  H    0.030522
    77  H   -0.000782
    78  H    0.012267
    79  H    0.035891
    80  H    0.095609
    81  H    0.166363
 Sum of Mulliken charges =  -0.00000

 Dipole moment (field-independent basis, Debye):
    X=             -1.6066    Y=             -0.1563    Z=             -0.7727  Tot=              1.7896
 Quadrupole moment (field-independent basis, Debye-Ang):
   XX=           -255.2753   YY=           -243.2428   ZZ=           -252.2819
   XY=             16.8256   XZ=              6.2303   YZ=            -14.1442

 Normal termination of Gaussian 16 at Sat Jun 29 23:36:23 2019.
