 Gaussian 16, Revision A.03,
 Gaussian 16:  ES64L-G16RevA.03 25-Dec-2016

 --------------------------
 # td=(NStates=1) B3LYP/SVP
 --------------------------

 --
 TD
 --
 Symbolic Z-matrix:
 Charge =  0 Multiplicity = 1

                         Standard orientation:
 ---------------------------------------------------------------------
 Center     Atomic      Atomic             Coordinates (Angstroms)
 Number     Number       Type             X           Y           Z
 ---------------------------------------------------------------------
      1          8           0        4.235204   -4.924332   -1.847991
      2          8           0       -3.234989   -4.799042   -1.037718
      3          8           0       -7.009613   -1.544079   -1.871747
      4          8           0       -3.886091   -3.166391    0.244460
      5          8           0       -7.726048   -0.345862   -0.077260
      6          8           0        3.080372    2.415818    0.381250
      7          7           0        0.262415   -0.538401    0.568866
      8          7           0       -1.543159    1.845973    0.306844
      9          7           0        3.274650   -3.134965   -0.742140
     10          7           0        0.834000    2.823151    0.026246
     11          6           0       -0.595172   -2.400452    1.479518
     12          6           0       -0.870706   -1.092262    0.952601
     13          6           0        0.717358   -2.552954    1.272487
     14          6           0        1.266164   -1.396155    0.738604
     15          6           0       -3.850390    1.593481    0.340514
     16          6           0       -2.453772    0.891996    0.551803
     17          6           0       -2.196159   -0.462391    0.873746
     18          6           0       -3.484774    2.778288   -0.066169
     19          6           0       -1.561197   -3.408414    1.969616
     20          6           0        5.485317   -2.877288   -1.369890
     21          6           0        3.539742   -1.890107   -0.241000
     22          6           0       -2.098745    3.056798   -0.057923
     23          6           0        4.955427   -1.634973   -0.582611
     24          6           0       -5.141944    0.860870    0.331333
     25          6           0        2.672892   -1.050444    0.453250
     26          6           0        1.555090   -3.701250    1.980687
     27          6           0        4.381271   -3.799392   -1.277151
     28          6           0       -2.021708   -4.495432    0.943286
     29          6           0       -5.436382   -0.139222   -0.861371
     30          6           0       -4.625943    3.869799   -0.332994
     31          6           0       -1.256461    4.061414   -0.400067
     32          6           0        6.807359   -3.419083   -1.075353
     33          6           0        5.784750   -0.633248   -0.154777
     34          6           0        0.191467    4.053405   -0.234345
     35          6           0        1.157918    5.229752   -0.379374
     36          6           0        2.453305    4.615408   -0.232993
     37          6           0       -3.129603   -3.996246   -0.018317
     38          6           0        5.613373    0.491806    0.902022
     39          6           0       -6.839995   -0.656896   -0.861210
     40          6           0        3.795169    5.209377   -0.380940
     41          6           0        2.250701    3.261682    0.098286
     42          6           0        0.727959    6.503515   -0.876697
     43          6           0        4.350136    5.644826    0.989508
     44          1           0        0.350281    0.396901    0.024268
     45          1           0       -3.114614   -1.052883    0.982572
     46          1           0       -2.351766   -2.858584    2.585966
     47          1           0       -1.098739   -3.943393    2.752099
     48          1           0        5.466730   -2.807740   -2.364603
     49          1           0       -5.413689    0.448957    1.441890
     50          1           0       -5.930417    1.628113    0.222342
     51          1           0        2.904934    0.019394    0.576132
     52          1           0       -0.622945    1.786236    0.590217
     53          1           0        1.730833   -4.554547    1.288595
     54          1           0        2.348358   -3.420912    2.394016
     55          1           0        1.027642   -4.001181    2.861713
     56          1           0        2.368808   -3.589114   -0.774671
     57          1           0       -1.072462   -4.683142    0.278811
     58          1           0       -2.555963   -5.360995    1.474399
     59          1           0       -4.631081   -0.998712   -0.901160
     60          1           0       -5.343046    0.361148   -1.775338
     61          1           0       -4.262959    4.724235    0.192208
     62          1           0       -5.583913    3.545317   -0.034189
     63          1           0       -4.497696    4.111932   -1.494546
     64          1           0       -1.631218    5.078629   -0.616266
     65          1           0        7.555649   -2.622813   -0.913555
     66          1           0        6.966969   -4.137517   -1.877969
     67          1           0        6.601811   -4.282812   -0.110385
     68          1           0        6.727471   -0.909258   -0.622149
     69          1           0        4.890893    1.333483    0.681883
     70          1           0        6.682017    0.848719    1.275679
     71          1           0        4.936327   -0.042183    1.599036
     72          1           0        3.643996    6.101483   -0.992042
     73          1           0        4.321072    4.392869   -0.761971
     74          1           0       -0.011072    6.397582   -1.671857
     75          1           0        1.452737    7.406739   -0.926069
     76          1           0        0.055180    6.848805   -0.260311
     77          1           0        3.462742    6.003059    1.613651
     78          1           0        5.172936    6.481912    0.877370
     79          1           0        4.964691    4.744431    1.570768
     80          1           0       -3.892677   -4.565305   -1.717039
     81          1           0       -7.938527   -1.985320   -1.760648
 ---------------------------------------------------------------------

 SCF Done:  E(RB3LYP) =  -1949.08386533     A.U. after   16 cycles

 Excitation energies and oscillator strengths:

 Excited State   1:      Singlet-A      1.6191 eV  765.78 nm  f=0.2523  <S**2>=0.000
     156 ->157         0.70896
     156 <-157        -0.12979
 This state for optimization and/or second-order correction.
 Total Energy, E(TD-HF/TD-DFT) =  -1949.02436605
 Copying the excited state density for this state as the 1-particle RhoCI density.

 The electronic state is 1-A.
 Alpha  occ. eigenvalues --  -19.18992 -19.18990 -19.13310 -19.12926 -19.11001
 Alpha  occ. eigenvalues --  -19.10243 -14.38018 -14.36983 -14.35852 -14.29380
 Alpha  occ. eigenvalues --  -10.32437 -10.32149 -10.28818 -10.26350 -10.24047
 Alpha  occ. eigenvalues --  -10.23923 -10.23848 -10.23245 -10.22300 -10.22257
 Alpha  occ. eigenvalues --  -10.22193 -10.21954 -10.21621 -10.21370 -10.20884
 Alpha  occ. eigenvalues --  -10.20528 -10.20311 -10.20241 -10.20172 -10.19945
 Alpha  occ. eigenvalues --  -10.19878 -10.19830 -10.19784 -10.19763 -10.19578
 Alpha  occ. eigenvalues --  -10.19428 -10.19213 -10.19188 -10.18691 -10.18619
 Alpha  occ. eigenvalues --  -10.18147 -10.17836 -10.17411  -1.12851  -1.08941
 Alpha  occ. eigenvalues --   -1.03801  -1.02051  -1.01530  -1.00552  -1.00039
 Alpha  occ. eigenvalues --   -0.99035  -0.94326  -0.89053  -0.82631  -0.82556
 Alpha  occ. eigenvalues --   -0.81914  -0.80992  -0.80032  -0.78538  -0.77856
 Alpha  occ. eigenvalues --   -0.77240  -0.76945  -0.75910  -0.73523  -0.71602
 Alpha  occ. eigenvalues --   -0.70682  -0.70114  -0.69504  -0.69218  -0.68676
 Alpha  occ. eigenvalues --   -0.67910  -0.65659  -0.64904  -0.62413  -0.62069
 Alpha  occ. eigenvalues --   -0.61307  -0.59825  -0.59205  -0.57817  -0.57673
 Alpha  occ. eigenvalues --   -0.57072  -0.55648  -0.54886  -0.54578  -0.53068
 Alpha  occ. eigenvalues --   -0.51831  -0.50833  -0.50204  -0.50099  -0.49791
 Alpha  occ. eigenvalues --   -0.49545  -0.49447  -0.48647  -0.48389  -0.47920
 Alpha  occ. eigenvalues --   -0.47417  -0.46839  -0.46698  -0.46403  -0.45332
 Alpha  occ. eigenvalues --   -0.44832  -0.44798  -0.44279  -0.44056  -0.43704
 Alpha  occ. eigenvalues --   -0.43372  -0.43094  -0.42771  -0.42211  -0.41918
 Alpha  occ. eigenvalues --   -0.41522  -0.41231  -0.41076  -0.40953  -0.40713
 Alpha  occ. eigenvalues --   -0.40481  -0.40407  -0.40224  -0.40090  -0.39787
 Alpha  occ. eigenvalues --   -0.39753  -0.39296  -0.38788  -0.38741  -0.38194
 Alpha  occ. eigenvalues --   -0.38038  -0.37684  -0.37060  -0.36944  -0.36651
 Alpha  occ. eigenvalues --   -0.36050  -0.35741  -0.35246  -0.34474  -0.34132
 Alpha  occ. eigenvalues --   -0.34066  -0.33789  -0.33667  -0.33353  -0.32856
 Alpha  occ. eigenvalues --   -0.32629  -0.32163  -0.32135  -0.29243  -0.28797
 Alpha  occ. eigenvalues --   -0.28673  -0.28435  -0.26581  -0.26015  -0.25805
 Alpha  occ. eigenvalues --   -0.25460  -0.24741  -0.24549  -0.22731  -0.21170
 Alpha  occ. eigenvalues --   -0.17066
 Alpha virt. eigenvalues --   -0.10602  -0.05962  -0.03490  -0.00633  -0.00267
 Alpha virt. eigenvalues --    0.01099   0.02052   0.02921   0.03614   0.04006
 Alpha virt. eigenvalues --    0.04216   0.04715   0.05139   0.05791   0.06420

 Mulliken charges:
               1
     1  O   -0.274135
     2  O   -0.153643
     3  O   -0.227308
     4  O   -0.167856
     5  O   -0.236422
     6  O   -0.187777
     7  N   -0.000329
     8  N   -0.020571
     9  N   -0.091767
    10  N   -0.377678
    11  C   -0.122179
    12  C   -0.005465
    13  C   -0.190845
    14  C   -0.001651
    15  C   -0.057758
    16  C   -0.042478
    17  C   -0.039403
    18  C   -0.138280
    19  C    0.163060
    20  C    0.101273
    21  C    0.125892
    22  C    0.142697
    23  C   -0.076561
    24  C    0.054094
    25  C   -0.111957
    26  C    0.196626
    27  C    0.060488
    28  C   -0.023025
    29  C    0.010572
    30  C    0.098986
    31  C   -0.098273
    32  C    0.009495
    33  C   -0.108457
    34  C    0.026108
    35  C   -0.096243
    36  C   -0.221059
    37  C    0.075317
    38  C    0.025629
    39  C    0.152813
    40  C    0.187553
    41  C    0.165907
    42  C    0.205881
    43  C   -0.091357
    44  H    0.171933
    45  H    0.013812
    46  H    0.014121
    47  H   -0.035321
    48  H   -0.001910
    49  H    0.053186
    50  H   -0.004033
    51  H    0.014957
    52  H    0.101796
    53  H    0.014414
    54  H   -0.052550
    55  H   -0.012927
    56  H    0.128573
    57  H    0.053373
    58  H    0.060398
    59  H    0.072356
    60  H    0.016429
    61  H    0.015725
    62  H    0.019615
    63  H    0.032143
    64  H   -0.040956
    65  H    0.038881
    66  H    0.026515
    67  H    0.029249
    68  H   -0.029117
    69  H    0.078879
    70  H    0.042947
    71  H    0.026785
    72  H   -0.004306
    73  H    0.002698
    74  H    0.016864
    75  H    0.036731
    76  H   -0.047017
    77  H    0.031366
    78  H    0.026832
    79  H    0.049494
    80  H    0.186467
    81  H    0.211686
 Sum of Mulliken charges =  -0.00000

 Dipole moment (field-independent basis, Debye):
    X=             -3.0116    Y=              2.3686    Z=             -1.3400  Tot=              4.0590
 Quadrupole moment (field-independent basis, Debye-Ang):
   XX=           -252.6677   YY=           -235.1349   ZZ=           -253.5395
   XY=             22.7604   XZ=             15.3001   YZ=             -9.9113

 Normal termination of Gaussian 16 at Thu Jun 27 15:02:41 2019.
