 Gaussian 16, Revision A.03,
 Gaussian 16:  ES64L-G16RevA.03 25-Dec-2016

 --------------------------
 # td=(NStates=1) B3LYP/SVP
 --------------------------

 --
 TD
 --
 Symbolic Z-matrix:
 Charge =  0 Multiplicity = 1

                         Standard orientation:
 ---------------------------------------------------------------------
 Center     Atomic      Atomic             Coordinates (Angstroms)
 Number     Number       Type             X           Y           Z
 ---------------------------------------------------------------------
      1          8           0        4.532004   -4.864671   -1.733615
      2          8           0       -2.752122   -4.953449   -1.151096
      3          8           0       -7.031023   -1.618756   -1.908026
      4          8           0       -3.717764   -3.169698   -0.129693
      5          8           0       -7.536459   -0.744306    0.157180
      6          8           0        3.026022    2.624370    0.620739
      7          7           0        0.260479   -0.519607    0.577033
      8          7           0       -1.583276    1.792734    0.402686
      9          7           0        3.316488   -3.116077   -0.703316
     10          7           0        0.759466    2.897433    0.062896
     11          6           0       -0.665622   -2.464343    1.345931
     12          6           0       -0.923109   -1.107383    0.949231
     13          6           0        0.744146   -2.649705    1.263034
     14          6           0        1.257756   -1.464235    0.756639
     15          6           0       -3.808864    1.490400    0.327105
     16          6           0       -2.499665    0.803778    0.589284
     17          6           0       -2.232082   -0.528339    0.866913
     18          6           0       -3.608433    2.762543   -0.005413
     19          6           0       -1.595092   -3.468216    1.931768
     20          6           0        5.556307   -2.587600   -1.308736
     21          6           0        3.579066   -1.879302   -0.230803
     22          6           0       -2.242144    2.945037   -0.015273
     23          6           0        4.922438   -1.533778   -0.443511
     24          6           0       -5.089663    0.788121    0.403172
     25          6           0        2.627068   -1.031403    0.463740
     26          6           0        1.510726   -3.821950    1.862139
     27          6           0        4.520319   -3.668357   -1.355962
     28          6           0       -1.933644   -4.579597    0.955313
     29          6           0       -5.356048   -0.166793   -0.814737
     30          6           0       -4.554391    3.892433   -0.416439
     31          6           0       -1.370947    4.038961   -0.383258
     32          6           0        6.984233   -3.115899   -1.057518
     33          6           0        5.774573   -0.550320    0.026985
     34          6           0        0.039417    3.979125   -0.239997
     35          6           0        0.889057    5.160459   -0.518151
     36          6           0        2.168961    4.760453   -0.303902
     37          6           0       -2.849577   -4.106775   -0.089646
     38          6           0        5.398953    0.655941    0.751311
     39          6           0       -6.775682   -0.888249   -0.785937
     40          6           0        3.491818    5.550421   -0.348331
     41          6           0        2.063327    3.344652    0.128372
     42          6           0        0.467697    6.443682   -0.945821
     43          6           0        4.204325    5.467751    1.018371
     44          1           0        0.507821    0.435157    0.270484
     45          1           0       -3.246424   -1.007540    1.347101
     46          1           0       -2.430253   -2.846316    2.345581
     47          1           0       -1.057329   -3.858965    2.918548
     48          1           0        5.637719   -2.184067   -2.421599
     49          1           0       -4.928974    0.159910    1.207011
     50          1           0       -5.942113    1.530024    0.485886
     51          1           0        3.019636   -0.051519    0.765085
     52          1           0       -0.710936    1.816915    0.581072
     53          1           0        1.554000   -4.567043    1.210182
     54          1           0        2.417959   -3.539105    2.241965
     55          1           0        0.871479   -4.029917    2.797733
     56          1           0        2.474290   -3.563471   -0.813561
     57          1           0       -1.045114   -5.045726    0.273900
     58          1           0       -2.378292   -5.463520    1.303623
     59          1           0       -4.391781   -0.838713   -1.088710
     60          1           0       -5.236997    0.382590   -1.552649
     61          1           0       -4.400408    5.002642    0.037012
     62          1           0       -5.769131    3.923669   -0.210888
     63          1           0       -4.347230    3.909644   -1.547113
     64          1           0       -1.560294    5.025877   -0.989392
     65          1           0        7.799108   -2.295571   -1.076814
     66          1           0        7.317813   -3.951256   -1.694499
     67          1           0        7.002163   -3.444591    0.058587
     68          1           0        6.939927   -0.757102   -0.183025
     69          1           0        4.894754    1.459868    0.108696
     70          1           0        6.376752    1.164801    1.136174
     71          1           0        4.723907    0.591537    1.448147
     72          1           0        3.281175    6.470085   -0.737946
     73          1           0        4.209471    4.945906   -0.993889
     74          1           0       -0.089231    6.380653   -1.838292
     75          1           0        1.413120    7.088578   -1.099836
     76          1           0       -0.201123    6.934932   -0.326198
     77          1           0        3.646984    6.031010    1.900881
     78          1           0        5.095574    6.041387    0.890612
     79          1           0        4.359851    4.500401    1.515400
     80          1           0       -3.396981   -4.801114   -1.854717
     81          1           0       -8.019594   -1.948435   -1.888803
 ---------------------------------------------------------------------

 SCF Done:  E(RB3LYP) =  -1949.07748225     A.U. after   23 cycles

 Excitation energies and oscillator strengths:

 Excited State   1:      Singlet-A      1.6321 eV  759.65 nm  f=0.2635  <S**2>=0.000
     156 ->157         0.70655
     156 <-157        -0.11525
 This state for optimization and/or second-order correction.
 Total Energy, E(TD-HF/TD-DFT) =  -1949.01750247
 Copying the excited state density for this state as the 1-particle RhoCI density.

 The electronic state is 1-A.
 Alpha  occ. eigenvalues --  -19.19100 -19.18815 -19.13444 -19.12882 -19.12231
 Alpha  occ. eigenvalues --  -19.09015 -14.37533 -14.36856 -14.35503 -14.28248
 Alpha  occ. eigenvalues --  -10.33590 -10.32797 -10.30505 -10.25678 -10.24498
 Alpha  occ. eigenvalues --  -10.24359 -10.23518 -10.23356 -10.22872 -10.22842
 Alpha  occ. eigenvalues --  -10.22766 -10.22372 -10.22074 -10.22045 -10.21985
 Alpha  occ. eigenvalues --  -10.20957 -10.20620 -10.20617 -10.20092 -10.19809
 Alpha  occ. eigenvalues --  -10.19763 -10.19755 -10.19486 -10.19447 -10.18970
 Alpha  occ. eigenvalues --  -10.18819 -10.18688 -10.18535 -10.18513 -10.18292
 Alpha  occ. eigenvalues --  -10.18044 -10.17199 -10.16861  -1.09162  -1.08180
 Alpha  occ. eigenvalues --   -1.02218  -1.00026  -0.99613  -0.98476  -0.97758
 Alpha  occ. eigenvalues --   -0.97225  -0.95559  -0.90883  -0.83781  -0.83052
 Alpha  occ. eigenvalues --   -0.82450  -0.81063  -0.80061  -0.79114  -0.78006
 Alpha  occ. eigenvalues --   -0.76974  -0.76369  -0.75259  -0.73615  -0.72636
 Alpha  occ. eigenvalues --   -0.71080  -0.70319  -0.69784  -0.69175  -0.68309
 Alpha  occ. eigenvalues --   -0.67527  -0.65488  -0.64680  -0.62304  -0.61590
 Alpha  occ. eigenvalues --   -0.61313  -0.60389  -0.59298  -0.57427  -0.56933
 Alpha  occ. eigenvalues --   -0.56456  -0.55524  -0.55136  -0.54108  -0.53510
 Alpha  occ. eigenvalues --   -0.52305  -0.51657  -0.51289  -0.50097  -0.49930
 Alpha  occ. eigenvalues --   -0.49590  -0.49073  -0.47741  -0.47630  -0.47542
 Alpha  occ. eigenvalues --   -0.46549  -0.46115  -0.45904  -0.45586  -0.45515
 Alpha  occ. eigenvalues --   -0.45143  -0.44541  -0.44350  -0.43934  -0.43805
 Alpha  occ. eigenvalues --   -0.43570  -0.42938  -0.42828  -0.42510  -0.42006
 Alpha  occ. eigenvalues --   -0.41797  -0.41252  -0.41005  -0.40818  -0.40457
 Alpha  occ. eigenvalues --   -0.40133  -0.39952  -0.39585  -0.39484  -0.39276
 Alpha  occ. eigenvalues --   -0.39124  -0.38914  -0.38590  -0.38320  -0.38104
 Alpha  occ. eigenvalues --   -0.37872  -0.37590  -0.37297  -0.36836  -0.36379
 Alpha  occ. eigenvalues --   -0.36048  -0.35783  -0.35273  -0.35146  -0.35006
 Alpha  occ. eigenvalues --   -0.34344  -0.33886  -0.33575  -0.33489  -0.32444
 Alpha  occ. eigenvalues --   -0.32227  -0.31783  -0.31324  -0.29352  -0.28362
 Alpha  occ. eigenvalues --   -0.28239  -0.27268  -0.26965  -0.26275  -0.25567
 Alpha  occ. eigenvalues --   -0.25299  -0.24368  -0.23230  -0.22664  -0.20686
 Alpha  occ. eigenvalues --   -0.17241
 Alpha virt. eigenvalues --   -0.10473  -0.05497  -0.04577  -0.02418  -0.02213
 Alpha virt. eigenvalues --    0.00111   0.01886   0.02854   0.03316   0.03943
 Alpha virt. eigenvalues --    0.04535   0.04832   0.05219   0.05396   0.05549

 Mulliken charges:
               1
     1  O   -0.230813
     2  O   -0.197308
     3  O   -0.229013
     4  O   -0.278615
     5  O   -0.231194
     6  O   -0.301296
     7  N   -0.083796
     8  N    0.022853
     9  N   -0.096498
    10  N   -0.260287
    11  C   -0.150897
    12  C    0.087379
    13  C   -0.203917
    14  C    0.068501
    15  C   -0.152853
    16  C    0.016711
    17  C   -0.066255
    18  C   -0.040765
    19  C    0.097532
    20  C   -0.076593
    21  C    0.075203
    22  C    0.116752
    23  C   -0.028351
    24  C    0.177953
    25  C   -0.123107
    26  C    0.218363
    27  C    0.151625
    28  C    0.037710
    29  C    0.025244
    30  C   -0.043122
    31  C   -0.141378
    32  C    0.000778
    33  C   -0.159314
    34  C    0.022828
    35  C   -0.132121
    36  C   -0.174089
    37  C    0.144507
    38  C    0.094071
    39  C    0.193385
    40  C    0.170466
    41  C    0.156625
    42  C    0.156573
    43  C   -0.033645
    44  H    0.150274
    45  H    0.069219
    46  H    0.023597
    47  H    0.029046
    48  H    0.070989
    49  H   -0.016678
    50  H    0.022977
    51  H    0.013088
    52  H    0.028054
    53  H   -0.013762
    54  H   -0.000904
    55  H    0.009762
    56  H    0.105057
    57  H    0.070207
    58  H    0.032390
    59  H    0.065892
    60  H   -0.062334
    61  H    0.050365
    62  H    0.050179
    63  H    0.050050
    64  H   -0.005714
    65  H    0.034109
    66  H    0.045388
    67  H    0.025814
    68  H    0.027245
    69  H    0.072923
    70  H    0.010575
    71  H   -0.001282
    72  H   -0.041795
    73  H    0.016760
    74  H    0.003948
    75  H    0.019986
    76  H   -0.005209
    77  H   -0.001146
    78  H   -0.003664
    79  H    0.051674
    80  H    0.187075
    81  H    0.216014
 Sum of Mulliken charges =  -0.00000

 Dipole moment (field-independent basis, Debye):
    X=             -2.8548    Y=             -0.2047    Z=             -1.8689  Tot=              3.4183
 Quadrupole moment (field-independent basis, Debye-Ang):
   XX=           -244.4678   YY=           -238.7811   ZZ=           -251.4343
   XY=             10.8624   XZ=             13.7094   YZ=            -12.2478

 Normal termination of Gaussian 16 at Thu Jun 27 20:37:53 2019.
