 Gaussian 16, Revision A.03,
 Gaussian 16:  ES64L-G16RevA.03 25-Dec-2016

 --------------------------
 # td=(NStates=1) B3LYP/SVP
 --------------------------

 --
 TD
 --
 Symbolic Z-matrix:
 Charge =  0 Multiplicity = 1

                         Standard orientation:
 ---------------------------------------------------------------------
 Center     Atomic      Atomic             Coordinates (Angstroms)
 Number     Number       Type             X           Y           Z
 ---------------------------------------------------------------------
      1          8           0        4.274713   -4.821730   -1.932589
      2          8           0       -3.248013   -4.689585   -1.120755
      3          8           0       -7.061455   -1.468133   -1.682683
      4          8           0       -4.158101   -3.214596    0.305526
      5          8           0       -7.511755   -0.649519    0.340705
      6          8           0        3.065706    2.288174    0.357872
      7          7           0        0.168953   -0.597096    0.401451
      8          7           0       -1.519756    1.869632    0.174233
      9          7           0        3.411185   -3.126495   -0.568733
     10          7           0        0.800085    2.875711   -0.098434
     11          6           0       -0.714862   -2.439197    1.294790
     12          6           0       -1.035134   -1.089540    0.842584
     13          6           0        0.748103   -2.629608    1.098011
     14          6           0        1.227452   -1.474234    0.528743
     15          6           0       -3.775230    1.590817    0.158258
     16          6           0       -2.505633    0.968101    0.493294
     17          6           0       -2.266595   -0.395210    0.796706
     18          6           0       -3.400750    2.921388   -0.194408
     19          6           0       -1.696506   -3.344166    1.873647
     20          6           0        5.576883   -2.794313   -1.219458
     21          6           0        3.749987   -1.900605   -0.118765
     22          6           0       -2.096371    3.059074   -0.208840
     23          6           0        5.118885   -1.724491   -0.410574
     24          6           0       -5.104327    0.964093    0.379830
     25          6           0        2.686171   -1.099104    0.331876
     26          6           0        1.429836   -3.775888    1.683040
     27          6           0        4.356280   -3.755046   -1.289491
     28          6           0       -2.184297   -4.395264    0.906047
     29          6           0       -5.450814   -0.011415   -0.832853
     30          6           0       -4.506977    4.045010   -0.479849
     31          6           0       -1.180874    4.099249   -0.519299
     32          6           0        6.862936   -3.553185   -0.866329
     33          6           0        5.899091   -0.642983    0.025408
     34          6           0        0.237975    3.957511   -0.384663
     35          6           0        1.195824    5.103852   -0.527190
     36          6           0        2.451131    4.597347   -0.275686
     37          6           0       -3.276518   -4.022853   -0.011829
     38          6           0        5.552341    0.500527    0.909777
     39          6           0       -6.807696   -0.675999   -0.628429
     40          6           0        3.787175    5.137696   -0.158177
     41          6           0        2.181581    3.167831    0.050275
     42          6           0        0.882445    6.557380   -0.726088
     43          6           0        4.188289    5.494682    1.337309
     44          1           0        0.545364    0.323574   -0.119963
     45          1           0       -3.326872   -0.906009    1.089494
     46          1           0       -2.536020   -2.951634    2.370682
     47          1           0       -1.091471   -3.810953    2.785085
     48          1           0        5.631714   -2.567946   -2.231896
     49          1           0       -5.091565    0.394604    1.355986
     50          1           0       -5.773850    1.585093    0.465621
     51          1           0        2.920302    0.022268    0.524412
     52          1           0       -0.414847    2.002547    0.360868
     53          1           0        1.543650   -4.567392    0.926797
     54          1           0        2.342617   -3.411496    2.065910
     55          1           0        0.970098   -4.219294    2.555617
     56          1           0        2.455390   -3.386673   -0.672949
     57          1           0       -1.189554   -4.864285    0.535411
     58          1           0       -2.575471   -5.026383    1.706532
     59          1           0       -4.890558   -1.009950   -0.927937
     60          1           0       -5.423292    0.381320   -1.803270
     61          1           0       -3.947480    5.091236   -0.024224
     62          1           0       -5.501081    3.859439    0.024207
     63          1           0       -4.395438    4.043266   -1.477949
     64          1           0       -1.630183    5.036445   -0.958980
     65          1           0        7.747783   -2.896204   -1.192281
     66          1           0        6.926151   -4.550023   -1.490863
     67          1           0        6.922586   -3.776767    0.351280
     68          1           0        6.803021   -0.669468   -0.283962
     69          1           0        4.778150    1.363446    0.311991
     70          1           0        6.475693    1.159914    1.256519
     71          1           0        5.185701   -0.023786    1.880995
     72          1           0        3.787766    6.047039   -0.817153
     73          1           0        4.648742    4.418149   -0.546485
     74          1           0       -0.117622    6.604409   -1.416495
     75          1           0        1.611644    7.111548   -1.048519
     76          1           0        0.306237    7.049583    0.276200
     77          1           0        3.356631    6.158676    1.642911
     78          1           0        5.305822    5.977110    1.367648
     79          1           0        4.216211    4.608137    1.857758
     80          1           0       -4.123109   -4.235912   -1.667424
     81          1           0       -8.143700   -1.721521   -1.681794
 ---------------------------------------------------------------------

 SCF Done:  E(RB3LYP) =  -1949.02423527     A.U. after   16 cycles

 Excitation energies and oscillator strengths:

 Excited State   1:      Singlet-A      1.6756 eV  739.92 nm  f=0.2824  <S**2>=0.000
     156 ->157         0.70619
     156 <-157        -0.11889
 This state for optimization and/or second-order correction.
 Total Energy, E(TD-HF/TD-DFT) =  -1948.96265686
 Copying the excited state density for this state as the 1-particle RhoCI density.

 The electronic state is 1-A.
 Alpha  occ. eigenvalues --  -19.21603 -19.18420 -19.13712 -19.12294 -19.10895
 Alpha  occ. eigenvalues --  -19.10539 -14.38059 -14.36957 -14.33769 -14.29903
 Alpha  occ. eigenvalues --  -10.33505 -10.31420 -10.28637 -10.27466 -10.24181
 Alpha  occ. eigenvalues --  -10.23996 -10.23969 -10.22859 -10.22824 -10.22791
 Alpha  occ. eigenvalues --  -10.22060 -10.21525 -10.21030 -10.20963 -10.20943
 Alpha  occ. eigenvalues --  -10.20919 -10.20732 -10.20676 -10.20531 -10.20471
 Alpha  occ. eigenvalues --  -10.19898 -10.19860 -10.19853 -10.19762 -10.19546
 Alpha  occ. eigenvalues --  -10.19500 -10.19362 -10.19332 -10.19218 -10.19018
 Alpha  occ. eigenvalues --  -10.18978 -10.18885 -10.18874  -1.11906  -1.08783
 Alpha  occ. eigenvalues --   -1.02902  -1.00957  -0.99752  -0.99745  -0.97778
 Alpha  occ. eigenvalues --   -0.97035  -0.96633  -0.93862  -0.83022  -0.82874
 Alpha  occ. eigenvalues --   -0.81819  -0.80894  -0.80665  -0.78919  -0.77503
 Alpha  occ. eigenvalues --   -0.76779  -0.76109  -0.75027  -0.73839  -0.72370
 Alpha  occ. eigenvalues --   -0.71177  -0.69903  -0.69248  -0.68421  -0.68018
 Alpha  occ. eigenvalues --   -0.67844  -0.65264  -0.63755  -0.62637  -0.61727
 Alpha  occ. eigenvalues --   -0.60638  -0.58952  -0.58652  -0.58067  -0.56684
 Alpha  occ. eigenvalues --   -0.55898  -0.55032  -0.54878  -0.54615  -0.53256
 Alpha  occ. eigenvalues --   -0.52261  -0.51582  -0.51280  -0.50305  -0.49809
 Alpha  occ. eigenvalues --   -0.49651  -0.49417  -0.48854  -0.47863  -0.47630
 Alpha  occ. eigenvalues --   -0.47118  -0.46649  -0.46213  -0.45579  -0.45411
 Alpha  occ. eigenvalues --   -0.45295  -0.44772  -0.44395  -0.44259  -0.44023
 Alpha  occ. eigenvalues --   -0.43827  -0.43181  -0.42945  -0.42221  -0.42027
 Alpha  occ. eigenvalues --   -0.41830  -0.41596  -0.41386  -0.41026  -0.40833
 Alpha  occ. eigenvalues --   -0.40707  -0.39958  -0.39731  -0.39695  -0.39515
 Alpha  occ. eigenvalues --   -0.39245  -0.38718  -0.38590  -0.38051  -0.37837
 Alpha  occ. eigenvalues --   -0.37700  -0.37519  -0.37190  -0.36930  -0.36422
 Alpha  occ. eigenvalues --   -0.36083  -0.35966  -0.35406  -0.34983  -0.34895
 Alpha  occ. eigenvalues --   -0.34038  -0.33955  -0.33830  -0.33242  -0.33125
 Alpha  occ. eigenvalues --   -0.32784  -0.32116  -0.31673  -0.30185  -0.29615
 Alpha  occ. eigenvalues --   -0.28536  -0.27837  -0.26095  -0.25618  -0.25017
 Alpha  occ. eigenvalues --   -0.24554  -0.24478  -0.24188  -0.23516  -0.21153
 Alpha  occ. eigenvalues --   -0.17781
 Alpha virt. eigenvalues --   -0.10935  -0.06468  -0.04985  -0.01727  -0.00467
 Alpha virt. eigenvalues --    0.00329   0.00451   0.02056   0.02312   0.03451
 Alpha virt. eigenvalues --    0.03661   0.04140   0.04846   0.05699   0.06101

 Mulliken charges:
               1
     1  O   -0.249288
     2  O   -0.184509
     3  O   -0.267936
     4  O   -0.269076
     5  O   -0.214173
     6  O   -0.277759
     7  N   -0.130484
     8  N   -0.164233
     9  N   -0.034561
    10  N   -0.236134
    11  C   -0.099650
    12  C    0.121296
    13  C   -0.168313
    14  C    0.016631
    15  C   -0.121157
    16  C    0.034357
    17  C   -0.086346
    18  C   -0.158085
    19  C    0.024858
    20  C    0.010550
    21  C    0.056636
    22  C    0.096885
    23  C   -0.026579
    24  C    0.279721
    25  C   -0.144774
    26  C    0.139111
    27  C    0.082349
    28  C    0.053849
    29  C   -0.032435
    30  C    0.076051
    31  C   -0.148956
    32  C   -0.034459
    33  C   -0.014191
    34  C    0.068719
    35  C   -0.106700
    36  C   -0.135369
    37  C    0.149908
    38  C   -0.060574
    39  C    0.128802
    40  C    0.012298
    41  C    0.182333
    42  C    0.086349
    43  C    0.003667
    44  H    0.194946
    45  H    0.065432
    46  H   -0.004149
    47  H    0.015894
    48  H    0.015379
    49  H    0.034859
    50  H   -0.112120
    51  H    0.052590
    52  H    0.192693
    53  H    0.025158
    54  H    0.011738
    55  H   -0.000711
    56  H    0.120677
    57  H    0.039358
    58  H    0.041392
    59  H    0.058537
    60  H    0.013310
    61  H    0.039093
    62  H    0.054485
    63  H    0.010073
    64  H   -0.021945
    65  H    0.030153
    66  H    0.056461
    67  H    0.039846
    68  H   -0.092281
    69  H    0.145312
    70  H    0.019539
    71  H    0.047880
    72  H    0.001644
    73  H    0.030897
    74  H    0.028473
    75  H   -0.018858
    76  H    0.048403
    77  H    0.021790
    78  H    0.033792
    79  H    0.015219
    80  H    0.248730
    81  H    0.237681
 Sum of Mulliken charges =  -0.00000

 Dipole moment (field-independent basis, Debye):
    X=             -2.8281    Y=              1.4600    Z=             -0.8031  Tot=              3.2825
 Quadrupole moment (field-independent basis, Debye-Ang):
   XX=           -243.9847   YY=           -247.1729   ZZ=           -254.7825
   XY=             16.6883   XZ=             20.6876   YZ=            -13.1527

 Normal termination of Gaussian 16 at Mon Jul  1 06:38:25 2019.
