 Gaussian 16, Revision A.03,
 Gaussian 16:  ES64L-G16RevA.03 25-Dec-2016

 --------------------------
 # td=(NStates=1) B3LYP/SVP
 --------------------------

 --
 TD
 --
 Symbolic Z-matrix:
 Charge =  0 Multiplicity = 1

                         Standard orientation:
 ---------------------------------------------------------------------
 Center     Atomic      Atomic             Coordinates (Angstroms)
 Number     Number       Type             X           Y           Z
 ---------------------------------------------------------------------
      1          8           0        4.478039   -4.966173   -1.757985
      2          8           0       -2.748164   -4.716134   -1.205449
      3          8           0       -6.967999   -1.484337   -1.922419
      4          8           0       -3.898101   -3.288353    0.169561
      5          8           0       -7.708533   -0.493727   -0.017297
      6          8           0        3.083845    2.360069    0.507331
      7          7           0        0.331005   -0.470104    0.664456
      8          7           0       -1.546341    1.889047    0.404720
      9          7           0        3.248991   -3.122313   -0.682144
     10          7           0        0.778670    2.868373   -0.004473
     11          6           0       -0.604066   -2.336861    1.503865
     12          6           0       -0.958359   -1.066602    1.003493
     13          6           0        0.713525   -2.600829    1.260866
     14          6           0        1.327833   -1.370162    0.803875
     15          6           0       -3.791386    1.472078    0.299774
     16          6           0       -2.522217    0.828110    0.546122
     17          6           0       -2.189755   -0.481516    0.953957
     18          6           0       -3.521853    2.721995   -0.145319
     19          6           0       -1.594790   -3.391248    1.986720
     20          6           0        5.478513   -2.752345   -1.348461
     21          6           0        3.541757   -1.844296   -0.267774
     22          6           0       -2.114248    2.963204   -0.055057
     23          6           0        5.012154   -1.531941   -0.575273
     24          6           0       -5.074930    0.697138    0.460888
     25          6           0        2.578229   -1.079849    0.369720
     26          6           0        1.458159   -3.752962    1.741992
     27          6           0        4.374485   -3.838468   -1.339163
     28          6           0       -1.983967   -4.463620    1.138683
     29          6           0       -5.442080   -0.071751   -0.820601
     30          6           0       -4.546645    3.678212   -0.725515
     31          6           0       -1.245565    4.041421   -0.405041
     32          6           0        6.746176   -3.354802   -0.955978
     33          6           0        5.770287   -0.554600   -0.256241
     34          6           0        0.212415    4.069646   -0.207784
     35          6           0        1.079412    5.132539   -0.411176
     36          6           0        2.346958    4.650039   -0.121838
     37          6           0       -2.984023   -4.120406   -0.031717
     38          6           0        5.430440    0.625330    0.570807
     39          6           0       -6.787486   -0.738146   -0.856121
     40          6           0        3.630779    5.369833   -0.209110
     41          6           0        2.123209    3.189697    0.198743
     42          6           0        0.569540    6.476783   -0.866865
     43          6           0        4.238440    5.705627    1.068515
     44          1           0        0.426958    0.351053    0.055418
     45          1           0       -3.237642   -0.990351    1.401877
     46          1           0       -2.484224   -3.074452    2.316445
     47          1           0       -1.296279   -3.834801    2.926974
     48          1           0        5.408201   -2.368010   -2.472736
     49          1           0       -5.223075    0.136820    1.335238
     50          1           0       -5.920213    1.232511    0.775619
     51          1           0        3.005089   -0.128230    0.507646
     52          1           0       -0.410722    2.164051    0.729313
     53          1           0        1.370064   -4.657192    1.103906
     54          1           0        2.640495   -3.743384    1.787238
     55          1           0        1.070270   -4.039033    2.763573
     56          1           0        2.439222   -3.700662   -0.619414
     57          1           0       -1.165781   -5.158056    0.701743
     58          1           0       -2.649628   -5.052898    1.658269
     59          1           0       -4.759207   -0.973121   -1.278531
     60          1           0       -5.452140    0.665190   -1.690081
     61          1           0       -4.439048    4.745122   -0.150924
     62          1           0       -5.492959    3.625743   -0.541414
     63          1           0       -4.510168    4.121160   -1.667368
     64          1           0       -1.839471    4.922263   -0.711109
     65          1           0        7.588094   -2.525207   -0.730961
     66          1           0        6.980727   -4.203057   -1.711939
     67          1           0        6.745659   -3.613036    0.257588
     68          1           0        6.883460   -0.723754   -0.556368
     69          1           0        4.696373    1.387324    0.250624
     70          1           0        6.410886    1.272675    0.923732
     71          1           0        4.814883    0.275362    1.450081
     72          1           0        3.390518    6.489006   -0.798841
     73          1           0        4.540353    4.652421   -0.760092
     74          1           0       -0.062596    6.122838   -1.573319
     75          1           0        1.518940    6.948523   -1.023266
     76          1           0        0.009707    6.953282   -0.162741
     77          1           0        3.519506    6.441103    1.583948
     78          1           0        5.072132    6.275689    0.809583
     79          1           0        4.440211    4.861105    1.925397
     80          1           0       -3.368348   -4.224129   -1.839508
     81          1           0       -7.884841   -1.707147   -1.697360
 ---------------------------------------------------------------------

 SCF Done:  E(RB3LYP) =  -1949.01224774     A.U. after   18 cycles

 Excitation energies and oscillator strengths:

 Excited State   1:      Singlet-A      1.7221 eV  719.98 nm  f=0.3002  <S**2>=0.000
     156 ->157         0.71149
     156 <-157        -0.12673
 This state for optimization and/or second-order correction.
 Total Energy, E(TD-HF/TD-DFT) =  -1948.94896334
 Copying the excited state density for this state as the 1-particle RhoCI density.

 The electronic state is 1-A.
 Alpha  occ. eigenvalues --  -19.21172 -19.20023 -19.13976 -19.13889 -19.12394
 Alpha  occ. eigenvalues --  -19.09580 -14.37861 -14.37851 -14.34250 -14.29536
 Alpha  occ. eigenvalues --  -10.33802 -10.32395 -10.30969 -10.26835 -10.25885
 Alpha  occ. eigenvalues --  -10.24103 -10.23520 -10.22775 -10.22692 -10.22582
 Alpha  occ. eigenvalues --  -10.22302 -10.21937 -10.21661 -10.21564 -10.21268
 Alpha  occ. eigenvalues --  -10.21202 -10.20884 -10.20543 -10.20216 -10.20017
 Alpha  occ. eigenvalues --  -10.19900 -10.19819 -10.19750 -10.19727 -10.19676
 Alpha  occ. eigenvalues --  -10.19248 -10.19183 -10.19144 -10.18624 -10.18247
 Alpha  occ. eigenvalues --  -10.17919 -10.17911 -10.17633  -1.12193  -1.10948
 Alpha  occ. eigenvalues --   -1.05078  -1.00566  -0.98573  -0.98171  -0.97734
 Alpha  occ. eigenvalues --   -0.96836  -0.95476  -0.91892  -0.84420  -0.82914
 Alpha  occ. eigenvalues --   -0.82292  -0.81256  -0.80547  -0.79760  -0.78448
 Alpha  occ. eigenvalues --   -0.77404  -0.77172  -0.76238  -0.74609  -0.72306
 Alpha  occ. eigenvalues --   -0.71568  -0.69977  -0.69525  -0.68914  -0.68675
 Alpha  occ. eigenvalues --   -0.67540  -0.65697  -0.65011  -0.63220  -0.61793
 Alpha  occ. eigenvalues --   -0.60674  -0.59109  -0.58719  -0.57436  -0.56513
 Alpha  occ. eigenvalues --   -0.56213  -0.55765  -0.55440  -0.53785  -0.53027
 Alpha  occ. eigenvalues --   -0.52469  -0.51581  -0.51018  -0.50442  -0.50098
 Alpha  occ. eigenvalues --   -0.49999  -0.49734  -0.48983  -0.48635  -0.47658
 Alpha  occ. eigenvalues --   -0.47254  -0.46942  -0.46465  -0.45987  -0.45721
 Alpha  occ. eigenvalues --   -0.45361  -0.45311  -0.44971  -0.44283  -0.44018
 Alpha  occ. eigenvalues --   -0.43830  -0.43403  -0.42878  -0.42670  -0.42384
 Alpha  occ. eigenvalues --   -0.42214  -0.41895  -0.41844  -0.41542  -0.41116
 Alpha  occ. eigenvalues --   -0.40858  -0.40682  -0.40451  -0.39785  -0.39519
 Alpha  occ. eigenvalues --   -0.39415  -0.38880  -0.38765  -0.38497  -0.38361
 Alpha  occ. eigenvalues --   -0.38041  -0.37546  -0.37342  -0.37157  -0.36466
 Alpha  occ. eigenvalues --   -0.36132  -0.35694  -0.35601  -0.35356  -0.34526
 Alpha  occ. eigenvalues --   -0.33864  -0.33544  -0.33471  -0.32783  -0.31996
 Alpha  occ. eigenvalues --   -0.31808  -0.31714  -0.31000  -0.30505  -0.28901
 Alpha  occ. eigenvalues --   -0.28309  -0.27854  -0.27647  -0.26733  -0.26301
 Alpha  occ. eigenvalues --   -0.25546  -0.24249  -0.23692  -0.23348  -0.21722
 Alpha  occ. eigenvalues --   -0.17576
 Alpha virt. eigenvalues --   -0.10613  -0.06609  -0.03731  -0.01894  -0.00790
 Alpha virt. eigenvalues --   -0.00552   0.02209   0.02362   0.03316   0.03458
 Alpha virt. eigenvalues --    0.03905   0.04733   0.04875   0.05161   0.05363

 Mulliken charges:
               1
     1  O   -0.179538
     2  O   -0.168439
     3  O   -0.127418
     4  O   -0.275444
     5  O   -0.306321
     6  O   -0.304984
     7  N   -0.099641
     8  N   -0.180122
     9  N   -0.182411
    10  N   -0.314575
    11  C   -0.057012
    12  C    0.126499
    13  C   -0.140578
    14  C    0.173686
    15  C   -0.035561
    16  C   -0.008064
    17  C   -0.097123
    18  C   -0.085173
    19  C    0.199464
    20  C   -0.076981
    21  C    0.052236
    22  C    0.012286
    23  C    0.067987
    24  C    0.167066
    25  C   -0.077320
    26  C    0.010239
    27  C    0.165845
    28  C    0.074167
    29  C   -0.042023
    30  C    0.154138
    31  C   -0.082699
    32  C   -0.023909
    33  C   -0.181379
    34  C    0.082317
    35  C   -0.160266
    36  C   -0.118908
    37  C    0.101678
    38  C   -0.004423
    39  C    0.142279
    40  C   -0.075682
    41  C    0.205599
    42  C    0.258534
    43  C    0.014558
    44  H    0.155250
    45  H    0.082177
    46  H   -0.054725
    47  H   -0.017103
    48  H    0.062621
    49  H   -0.013037
    50  H   -0.020546
    51  H   -0.045370
    52  H    0.231936
    53  H    0.011708
    54  H    0.046546
    55  H    0.033027
    56  H    0.123611
    57  H    0.026363
    58  H    0.003466
    59  H    0.056392
    60  H    0.051064
    61  H   -0.007682
    62  H   -0.050599
    63  H   -0.002309
    64  H   -0.036357
    65  H    0.028428
    66  H    0.067723
    67  H    0.025517
    68  H    0.010055
    69  H    0.079468
    70  H    0.022149
    71  H    0.029899
    72  H    0.030685
    73  H    0.042604
    74  H    0.005429
    75  H   -0.004571
    76  H   -0.004794
    77  H   -0.003176
    78  H   -0.001225
    79  H    0.057943
    80  H    0.207567
    81  H    0.167281
 Sum of Mulliken charges =  -0.00000

 Dipole moment (field-independent basis, Debye):
    X=             -1.8599    Y=             -0.7409    Z=             -0.7134  Tot=              2.1253
 Quadrupole moment (field-independent basis, Debye-Ang):
   XX=           -262.4470   YY=           -241.4186   ZZ=           -251.9183
   XY=             11.0901   XZ=             12.9388   YZ=            -10.6014

 Normal termination of Gaussian 16 at Wed Jul  3 01:15:25 2019.
