 Gaussian 16, Revision A.03,
 Gaussian 16:  ES64L-G16RevA.03 25-Dec-2016

 --------------------------
 # td=(NStates=1) B3LYP/SVP
 --------------------------

 --
 TD
 --
 Symbolic Z-matrix:
 Charge =  0 Multiplicity = 1

                         Standard orientation:
 ---------------------------------------------------------------------
 Center     Atomic      Atomic             Coordinates (Angstroms)
 Number     Number       Type             X           Y           Z
 ---------------------------------------------------------------------
      1          8           0        4.394498   -4.662229   -2.019907
      2          8           0       -3.030621   -4.931553   -0.946620
      3          8           0       -7.017175   -1.875391   -1.761869
      4          8           0       -3.743902   -3.203689    0.340949
      5          8           0       -7.835747   -0.344983   -0.190812
      6          8           0        2.898998    2.314023    0.250692
      7          7           0        0.294753   -0.526683    0.518386
      8          7           0       -1.557136    1.741201    0.365666
      9          7           0        3.392369   -2.934898   -0.796845
     10          7           0        0.686864    2.877732   -0.033012
     11          6           0       -0.591436   -2.395020    1.415904
     12          6           0       -0.932255   -1.104972    0.936400
     13          6           0        0.870376   -2.538945    1.231959
     14          6           0        1.383437   -1.411125    0.625652
     15          6           0       -3.870704    1.435417    0.322191
     16          6           0       -2.565012    0.842666    0.466243
     17          6           0       -2.280041   -0.492275    0.777880
     18          6           0       -3.564515    2.676499   -0.149487
     19          6           0       -1.496762   -3.346300    2.046541
     20          6           0        5.664828   -2.613645   -1.280070
     21          6           0        3.640278   -1.730309   -0.238413
     22          6           0       -2.201210    2.983105   -0.048888
     23          6           0        5.158032   -1.530996   -0.441036
     24          6           0       -5.202257    0.793687    0.334826
     25          6           0        2.669120   -0.949585    0.240461
     26          6           0        1.711046   -3.715276    1.655483
     27          6           0        4.460178   -3.533046   -1.439654
     28          6           0       -1.851576   -4.506565    1.104722
     29          6           0       -5.404648   -0.236079   -0.810645
     30          6           0       -4.575711    3.804128   -0.462512
     31          6           0       -1.363630    3.995810   -0.360621
     32          6           0        6.889858   -3.397954   -0.753403
     33          6           0        5.916352   -0.388050   -0.000425
     34          6           0        0.074396    3.977844   -0.209166
     35          6           0        0.963302    5.108617   -0.417223
     36          6           0        2.263755    4.609311   -0.304350
     37          6           0       -2.955860   -4.130446    0.122719
     38          6           0        5.461766    0.781455    0.730059
     39          6           0       -6.922494   -0.736156   -0.855522
     40          6           0        3.553854    5.320500   -0.257007
     41          6           0        2.098816    3.153962    0.080943
     42          6           0        0.580672    6.486522   -0.755409
     43          6           0        4.116936    5.469900    1.109375
     44          1           0        0.369200    0.300029    0.077438
     45          1           0       -3.034763   -1.187105    0.853681
     46          1           0       -2.309462   -2.847982    2.541491
     47          1           0       -0.976669   -3.741603    2.993513
     48          1           0        6.058324   -2.397712   -2.272616
     49          1           0       -5.204584    0.073291    1.314276
     50          1           0       -6.086477    1.387227    0.527688
     51          1           0        2.690149    0.258180    0.365441
     52          1           0       -0.497773    1.727529    0.534199
     53          1           0        1.495336   -4.485821    0.909438
     54          1           0        2.745458   -3.410799    1.687446
     55          1           0        1.516491   -4.016762    2.666827
     56          1           0        2.437944   -3.279214   -0.957798
     57          1           0       -0.823958   -4.757292    0.606042
     58          1           0       -2.230820   -5.458456    1.705103
     59          1           0       -4.771508   -1.121527   -0.583540
     60          1           0       -5.197041    0.425367   -1.670046
     61          1           0       -4.324508    4.547609    0.140325
     62          1           0       -5.598289    3.317754   -0.263555
     63          1           0       -4.388253    4.069407   -1.536262
     64          1           0       -1.785870    5.006646   -0.459494
     65          1           0        7.829540   -2.691596   -0.670044
     66          1           0        7.060080   -4.192229   -1.395735
     67          1           0        6.744688   -3.856272    0.303212
     68          1           0        6.986359   -0.610699   -0.367419
     69          1           0        4.970836    1.678376    0.269026
     70          1           0        6.276260    1.201968    1.376716
     71          1           0        4.800260    0.573716    1.500090
     72          1           0        3.578949    6.272283   -0.875653
     73          1           0        4.242256    4.515986   -0.861041
     74          1           0       -0.075952    6.465084   -1.585813
     75          1           0        1.227777    7.243878   -0.923344
     76          1           0       -0.088080    6.841151    0.245236
     77          1           0        3.607331    6.322921    1.750524
     78          1           0        5.246012    5.620662    1.318555
     79          1           0        3.966721    4.438574    1.825183
     80          1           0       -3.786324   -4.597316   -1.567732
     81          1           0       -7.909339   -2.202216   -1.785340
 ---------------------------------------------------------------------

 SCF Done:  E(RB3LYP) =  -1949.14392915     A.U. after   16 cycles

 Excitation energies and oscillator strengths:

 Excited State   1:      Singlet-A      1.6120 eV  769.12 nm  f=0.2433  <S**2>=0.000
     156 ->157         0.70619
     156 <-157        -0.11744
 This state for optimization and/or second-order correction.
 Total Energy, E(TD-HF/TD-DFT) =  -1949.08468795
 Copying the excited state density for this state as the 1-particle RhoCI density.

 The electronic state is 1-A.
 Alpha  occ. eigenvalues --  -19.20392 -19.17007 -19.14939 -19.14000 -19.12889
 Alpha  occ. eigenvalues --  -19.10373 -14.37128 -14.35474 -14.34766 -14.29066
 Alpha  occ. eigenvalues --  -10.33802 -10.33420 -10.29065 -10.27940 -10.23656
 Alpha  occ. eigenvalues --  -10.23254 -10.23021 -10.22967 -10.22925 -10.22884
 Alpha  occ. eigenvalues --  -10.22020 -10.21775 -10.21194 -10.21114 -10.21057
 Alpha  occ. eigenvalues --  -10.20945 -10.20807 -10.20631 -10.20553 -10.20482
 Alpha  occ. eigenvalues --  -10.20264 -10.20129 -10.20019 -10.19770 -10.19639
 Alpha  occ. eigenvalues --  -10.19477 -10.19419 -10.19075 -10.18675 -10.18588
 Alpha  occ. eigenvalues --  -10.18429 -10.18333 -10.17241  -1.10306  -1.08110
 Alpha  occ. eigenvalues --   -1.06081  -1.01273  -1.00966  -1.00592  -0.97023
 Alpha  occ. eigenvalues --   -0.95806  -0.94816  -0.93874  -0.82464  -0.81714
 Alpha  occ. eigenvalues --   -0.81517  -0.81002  -0.80402  -0.78923  -0.77034
 Alpha  occ. eigenvalues --   -0.76791  -0.76492  -0.75628  -0.74157  -0.71975
 Alpha  occ. eigenvalues --   -0.71138  -0.69605  -0.69492  -0.68413  -0.67641
 Alpha  occ. eigenvalues --   -0.67094  -0.65407  -0.64304  -0.62157  -0.61485
 Alpha  occ. eigenvalues --   -0.60551  -0.59091  -0.58569  -0.58020  -0.56258
 Alpha  occ. eigenvalues --   -0.55919  -0.55398  -0.54404  -0.54046  -0.53295
 Alpha  occ. eigenvalues --   -0.52366  -0.51479  -0.50792  -0.50196  -0.49828
 Alpha  occ. eigenvalues --   -0.49409  -0.48727  -0.48427  -0.47939  -0.47782
 Alpha  occ. eigenvalues --   -0.47246  -0.46828  -0.46386  -0.46086  -0.45733
 Alpha  occ. eigenvalues --   -0.45478  -0.44882  -0.44611  -0.44049  -0.43519
 Alpha  occ. eigenvalues --   -0.43430  -0.43043  -0.42743  -0.42579  -0.42270
 Alpha  occ. eigenvalues --   -0.41839  -0.41634  -0.41355  -0.41179  -0.40995
 Alpha  occ. eigenvalues --   -0.40769  -0.40590  -0.40259  -0.40096  -0.39994
 Alpha  occ. eigenvalues --   -0.39464  -0.39183  -0.38773  -0.38505  -0.38300
 Alpha  occ. eigenvalues --   -0.37695  -0.37654  -0.37471  -0.37081  -0.36814
 Alpha  occ. eigenvalues --   -0.36393  -0.35602  -0.35440  -0.35243  -0.35120
 Alpha  occ. eigenvalues --   -0.34084  -0.33504  -0.33391  -0.33324  -0.33172
 Alpha  occ. eigenvalues --   -0.32669  -0.32499  -0.32149  -0.29762  -0.29486
 Alpha  occ. eigenvalues --   -0.29400  -0.29194  -0.26224  -0.25752  -0.25414
 Alpha  occ. eigenvalues --   -0.24943  -0.24188  -0.23596  -0.23522  -0.21074
 Alpha  occ. eigenvalues --   -0.17195
 Alpha virt. eigenvalues --   -0.10601  -0.06100  -0.04308  -0.01888  -0.01050
 Alpha virt. eigenvalues --   -0.00928   0.02109   0.02580   0.03494   0.03630
 Alpha virt. eigenvalues --    0.04514   0.05188   0.05362   0.05723   0.06181

 Mulliken charges:
               1
     1  O   -0.268745
     2  O   -0.193583
     3  O   -0.260169
     4  O   -0.249617
     5  O   -0.181222
     6  O   -0.139340
     7  N   -0.083308
     8  N   -0.167978
     9  N   -0.084005
    10  N   -0.287418
    11  C   -0.130642
    12  C    0.055909
    13  C   -0.224345
    14  C    0.059889
    15  C   -0.026014
    16  C    0.110717
    17  C   -0.021384
    18  C   -0.181070
    19  C    0.112525
    20  C   -0.044551
    21  C    0.123046
    22  C    0.159616
    23  C   -0.052683
    24  C    0.004896
    25  C   -0.193127
    26  C    0.134831
    27  C    0.133137
    28  C   -0.029229
    29  C   -0.003928
    30  C    0.146618
    31  C   -0.121762
    32  C    0.012628
    33  C   -0.091415
    34  C    0.049619
    35  C   -0.088797
    36  C   -0.192461
    37  C    0.161726
    38  C    0.097757
    39  C    0.170264
    40  C    0.065728
    41  C    0.165104
    42  C    0.121943
    43  C   -0.091420
    44  H    0.070077
    45  H   -0.055147
    46  H    0.001254
    47  H    0.004738
    48  H    0.038712
    49  H    0.025502
    50  H    0.026476
    51  H    0.088795
    52  H    0.166412
    53  H    0.026433
    54  H    0.014583
    55  H    0.006084
    56  H    0.137443
    57  H    0.056470
    58  H    0.065544
    59  H    0.075450
    60  H    0.046623
    61  H   -0.001445
    62  H    0.026305
    63  H    0.027916
    64  H   -0.034194
    65  H    0.030926
    66  H    0.017321
    67  H    0.021629
    68  H    0.000183
    69  H    0.068869
    70  H   -0.007218
    71  H   -0.002528
    72  H    0.018784
    73  H    0.031339
    74  H    0.020408
    75  H   -0.016179
    76  H    0.037218
    77  H    0.024461
    78  H    0.033079
    79  H    0.038329
    80  H    0.223394
    81  H    0.168213
 Sum of Mulliken charges =  -0.00000

 Dipole moment (field-independent basis, Debye):
    X=             -2.0918    Y=              2.5898    Z=             -0.0317  Tot=              3.3292
 Quadrupole moment (field-independent basis, Debye-Ang):
   XX=           -252.1157   YY=           -236.9731   ZZ=           -254.8749
   XY=             23.1466   XZ=             15.1589   YZ=            -11.9811

 Normal termination of Gaussian 16 at Thu Jun 27 18:59:53 2019.
