 Gaussian 16, Revision A.03,
 Gaussian 16:  ES64L-G16RevA.03 25-Dec-2016

 --------------------------
 # td=(NStates=1) B3LYP/SVP
 --------------------------

 --
 TD
 --
 Symbolic Z-matrix:
 Charge =  0 Multiplicity = 1

                         Standard orientation:
 ---------------------------------------------------------------------
 Center     Atomic      Atomic             Coordinates (Angstroms)
 Number     Number       Type             X           Y           Z
 ---------------------------------------------------------------------
      1          8           0        4.461666   -4.726405   -1.763594
      2          8           0       -2.604904   -4.974661   -1.138282
      3          8           0       -6.977507   -1.825781   -1.750361
      4          8           0       -3.766950   -3.448777    0.065302
      5          8           0       -7.741317   -0.471205   -0.025911
      6          8           0        2.871531    2.436745    0.419235
      7          7           0        0.237136   -0.482037    0.528838
      8          7           0       -1.613606    1.868691    0.498636
      9          7           0        3.378357   -2.978070   -0.687245
     10          7           0        0.681987    2.871045    0.177197
     11          6           0       -0.537559   -2.379160    1.378746
     12          6           0       -0.866496   -1.122477    1.004439
     13          6           0        0.829635   -2.624235    1.196397
     14          6           0        1.381825   -1.322535    0.634772
     15          6           0       -3.813137    1.381216    0.372582
     16          6           0       -2.443533    0.804413    0.635358
     17          6           0       -2.220603   -0.545206    1.071765
     18          6           0       -3.645525    2.658217   -0.150748
     19          6           0       -1.502950   -3.357615    1.906721
     20          6           0        5.623787   -2.591376   -1.338884
     21          6           0        3.710911   -1.699346   -0.264336
     22          6           0       -2.171784    3.005577   -0.010295
     23          6           0        5.117737   -1.480971   -0.531619
     24          6           0       -5.086872    0.584110    0.357610
     25          6           0        2.684958   -0.877805    0.335957
     26          6           0        1.636644   -3.834505    1.692555
     27          6           0        4.466378   -3.610695   -1.276814
     28          6           0       -1.867798   -4.522989    1.018588
     29          6           0       -5.468086   -0.208184   -0.837967
     30          6           0       -4.642728    3.697851   -0.664265
     31          6           0       -1.432045    4.173447   -0.282056
     32          6           0        7.053735   -3.263743   -0.882903
     33          6           0        5.886940   -0.421113   -0.068599
     34          6           0       -0.036007    4.020391   -0.281490
     35          6           0        0.860873    5.162974   -0.423981
     36          6           0        2.195092    4.684929   -0.294142
     37          6           0       -2.847151   -4.235138   -0.044324
     38          6           0        5.364329    0.716347    0.724345
     39          6           0       -6.856975   -0.798747   -0.871001
     40          6           0        3.547755    5.418172   -0.339137
     41          6           0        2.013440    3.332993    0.125418
     42          6           0        0.386172    6.495986   -0.786033
     43          6           0        4.072795    5.630455    0.985528
     44          1           0        0.403954    0.323167   -0.108386
     45          1           0       -2.944622   -1.059714    1.414174
     46          1           0       -2.537676   -3.125300    2.483540
     47          1           0       -0.838003   -3.901285    2.791171
     48          1           0        5.599180   -2.283448   -2.240125
     49          1           0       -5.020929    0.235509    1.375266
     50          1           0       -5.850064    1.433409    0.649203
     51          1           0        2.834114    0.333504    0.439440
     52          1           0       -0.691594    1.827047    0.941638
     53          1           0        1.482182   -4.787104    1.224891
     54          1           0        2.694086   -3.386620    1.691946
     55          1           0        1.369447   -4.263596    2.703970
     56          1           0        2.424369   -3.477456   -0.756426
     57          1           0       -1.026769   -5.143227    0.753643
     58          1           0       -2.373221   -5.414082    1.462251
     59          1           0       -4.792212   -1.007920   -1.101210
     60          1           0       -5.563244    0.230989   -1.733672
     61          1           0       -4.605490    4.821618   -0.231470
     62          1           0       -5.567924    3.168771   -0.166106
     63          1           0       -4.628436    3.582072   -1.869101
     64          1           0       -2.063214    5.039229   -0.670082
     65          1           0        7.919062   -2.473391   -0.942661
     66          1           0        7.072605   -4.288472   -1.444622
     67          1           0        7.051102   -3.501940    0.190436
     68          1           0        6.818084   -0.282215   -0.588555
     69          1           0        4.757319    1.367089    0.263756
     70          1           0        6.145742    1.431305    1.032239
     71          1           0        4.757315    0.431395    1.640588
     72          1           0        3.536338    6.331844   -1.045619
     73          1           0        4.245929    4.806341   -0.789370
     74          1           0       -0.189238    6.620929   -1.817644
     75          1           0        1.422688    7.024738   -0.909413
     76          1           0       -0.460662    7.132245   -0.130205
     77          1           0        3.462968    6.358224    1.503360
     78          1           0        5.100051    6.265374    1.008143
     79          1           0        4.191760    4.735869    1.771676
     80          1           0       -3.402847   -4.890245   -1.707572
     81          1           0       -7.821972   -2.318813   -1.715317
 ---------------------------------------------------------------------

 SCF Done:  E(RB3LYP) =  -1949.04733921     A.U. after   24 cycles

 Excitation energies and oscillator strengths:

 Excited State   1:      Singlet-A      1.5399 eV  805.12 nm  f=0.2772  <S**2>=0.000
     156 ->157         0.71111
     156 <-157        -0.13780
 This state for optimization and/or second-order correction.
 Total Energy, E(TD-HF/TD-DFT) =  -1948.99074745
 Copying the excited state density for this state as the 1-particle RhoCI density.

 The electronic state is 1-A.
 Alpha  occ. eigenvalues --  -19.19547 -19.19028 -19.13592 -19.12000 -19.11224
 Alpha  occ. eigenvalues --  -19.09013 -14.37763 -14.37493 -14.36632 -14.28100
 Alpha  occ. eigenvalues --  -10.32851 -10.32568 -10.29111 -10.25381 -10.25268
 Alpha  occ. eigenvalues --  -10.24311 -10.24217 -10.23865 -10.23035 -10.22576
 Alpha  occ. eigenvalues --  -10.22510 -10.22169 -10.21735 -10.21348 -10.21148
 Alpha  occ. eigenvalues --  -10.20827 -10.20718 -10.20704 -10.20677 -10.20605
 Alpha  occ. eigenvalues --  -10.20590 -10.20574 -10.20127 -10.20014 -10.19968
 Alpha  occ. eigenvalues --  -10.19891 -10.19787 -10.19661 -10.19601 -10.19431
 Alpha  occ. eigenvalues --  -10.19161 -10.18655 -10.16145  -1.10849  -1.08351
 Alpha  occ. eigenvalues --   -1.03510  -1.01618  -0.98502  -0.98200  -0.98046
 Alpha  occ. eigenvalues --   -0.97199  -0.95591  -0.88942  -0.82979  -0.82255
 Alpha  occ. eigenvalues --   -0.81967  -0.80496  -0.79591  -0.78314  -0.78212
 Alpha  occ. eigenvalues --   -0.77631  -0.76293  -0.75618  -0.74158  -0.72519
 Alpha  occ. eigenvalues --   -0.71243  -0.69490  -0.68903  -0.68362  -0.67884
 Alpha  occ. eigenvalues --   -0.66785  -0.65393  -0.64479  -0.62110  -0.61966
 Alpha  occ. eigenvalues --   -0.61192  -0.60580  -0.59349  -0.58408  -0.56401
 Alpha  occ. eigenvalues --   -0.55796  -0.55294  -0.54600  -0.54231  -0.53485
 Alpha  occ. eigenvalues --   -0.52256  -0.51555  -0.50666  -0.49860  -0.49649
 Alpha  occ. eigenvalues --   -0.49336  -0.48629  -0.48290  -0.48136  -0.47645
 Alpha  occ. eigenvalues --   -0.47238  -0.47146  -0.45941  -0.45706  -0.44765
 Alpha  occ. eigenvalues --   -0.44445  -0.44240  -0.44117  -0.43982  -0.43830
 Alpha  occ. eigenvalues --   -0.43497  -0.43309  -0.42990  -0.42396  -0.42074
 Alpha  occ. eigenvalues --   -0.41630  -0.41178  -0.40868  -0.40755  -0.40713
 Alpha  occ. eigenvalues --   -0.40607  -0.39942  -0.39762  -0.39579  -0.39487
 Alpha  occ. eigenvalues --   -0.39225  -0.38985  -0.38353  -0.38041  -0.37706
 Alpha  occ. eigenvalues --   -0.37540  -0.37268  -0.36824  -0.36454  -0.36315
 Alpha  occ. eigenvalues --   -0.35937  -0.35298  -0.35138  -0.34501  -0.34019
 Alpha  occ. eigenvalues --   -0.33669  -0.33460  -0.33270  -0.32962  -0.32598
 Alpha  occ. eigenvalues --   -0.31980  -0.31802  -0.31541  -0.29485  -0.28837
 Alpha  occ. eigenvalues --   -0.27120  -0.26587  -0.26456  -0.25841  -0.25441
 Alpha  occ. eigenvalues --   -0.25219  -0.24586  -0.23507  -0.22711  -0.20812
 Alpha  occ. eigenvalues --   -0.17178
 Alpha virt. eigenvalues --   -0.10983  -0.06977  -0.04927  -0.00599  -0.00317
 Alpha virt. eigenvalues --    0.00126   0.02028   0.02766   0.03078   0.03359
 Alpha virt. eigenvalues --    0.03802   0.04042   0.04666   0.04946   0.06037

 Mulliken charges:
               1
     1  O   -0.214121
     2  O   -0.174340
     3  O   -0.200242
     4  O   -0.231297
     5  O   -0.274548
     6  O   -0.267205
     7  N   -0.108514
     8  N   -0.040391
     9  N   -0.145636
    10  N   -0.340444
    11  C   -0.029035
    12  C    0.060422
    13  C   -0.139253
    14  C    0.041024
    15  C   -0.180559
    16  C    0.054070
    17  C    0.084278
    18  C   -0.118520
    19  C    0.002833
    20  C    0.062083
    21  C    0.086041
    22  C    0.077035
    23  C   -0.062821
    24  C    0.127723
    25  C   -0.197450
    26  C    0.042308
    27  C    0.091836
    28  C    0.046749
    29  C    0.178527
    30  C   -0.014720
    31  C   -0.126509
    32  C    0.002152
    33  C   -0.097944
    34  C    0.132546
    35  C   -0.087708
    36  C   -0.138492
    37  C    0.106427
    38  C    0.108678
    39  C    0.127419
    40  C    0.170468
    41  C    0.146072
    42  C   -0.039325
    43  C   -0.058690
    44  H    0.163364
    45  H   -0.112203
    46  H    0.055520
    47  H    0.014398
    48  H   -0.023045
    49  H    0.005024
    50  H    0.013791
    51  H    0.104498
    52  H    0.150791
    53  H    0.015099
    54  H    0.062727
    55  H    0.016313
    56  H    0.174670
    57  H   -0.007505
    58  H    0.033035
    59  H    0.028199
    60  H   -0.020276
    61  H    0.064375
    62  H    0.033551
    63  H    0.061294
    64  H    0.002097
    65  H    0.041407
    66  H    0.064200
    67  H    0.015650
    68  H   -0.011499
    69  H    0.008682
    70  H   -0.011394
    71  H    0.034071
    72  H    0.011684
    73  H   -0.020629
    74  H    0.041182
    75  H    0.034915
    76  H    0.054153
    77  H   -0.008765
    78  H    0.010015
    79  H    0.059141
    80  H    0.184487
    81  H    0.196056
 Sum of Mulliken charges =  -0.00000

 Dipole moment (field-independent basis, Debye):
    X=             -2.3943    Y=             -0.3728    Z=             -1.6433  Tot=              2.9278
 Quadrupole moment (field-independent basis, Debye-Ang):
   XX=           -258.7418   YY=           -232.7067   ZZ=           -252.6494
   XY=             20.7941   XZ=             15.2797   YZ=            -12.8584

 Normal termination of Gaussian 16 at Thu Jun 27 12:06:25 2019.
