 Gaussian 16, Revision A.03,
 Gaussian 16:  ES64L-G16RevA.03 25-Dec-2016

 --------------------------
 # td=(NStates=1) B3LYP/SVP
 --------------------------

 --
 TD
 --
 Symbolic Z-matrix:
 Charge =  0 Multiplicity = 1

                         Standard orientation:
 ---------------------------------------------------------------------
 Center     Atomic      Atomic             Coordinates (Angstroms)
 Number     Number       Type             X           Y           Z
 ---------------------------------------------------------------------
      1          8           0        4.221452   -4.914736   -1.802316
      2          8           0       -2.753429   -4.883145   -1.307652
      3          8           0       -6.828952   -1.563875   -2.020044
      4          8           0       -3.662857   -3.207609   -0.150490
      5          8           0       -7.330107   -0.829193    0.068261
      6          8           0        2.955507    2.376665    0.365426
      7          7           0        0.197169   -0.450299    0.767613
      8          7           0       -1.524830    1.902322    0.410447
      9          7           0        3.231372   -3.141767   -0.548879
     10          7           0        0.743456    2.935219    0.274454
     11          6           0       -0.618409   -2.357099    1.541866
     12          6           0       -0.961746   -1.031746    1.072260
     13          6           0        0.775932   -2.576861    1.370011
     14          6           0        1.307764   -1.321382    0.772025
     15          6           0       -3.776427    1.591333    0.281605
     16          6           0       -2.520673    0.938887    0.682054
     17          6           0       -2.237962   -0.362427    1.066335
     18          6           0       -3.635247    2.798031    0.058052
     19          6           0       -1.688019   -3.321145    2.043726
     20          6           0        5.426665   -2.701548   -1.415113
     21          6           0        3.465133   -1.882147   -0.129751
     22          6           0       -2.093222    3.040719    0.035442
     23          6           0        4.877251   -1.577136   -0.522597
     24          6           0       -5.096699    0.751120    0.399095
     25          6           0        2.584609   -0.902472    0.365294
     26          6           0        1.521407   -3.716305    1.862652
     27          6           0        4.275349   -3.765787   -1.336542
     28          6           0       -2.047401   -4.507747    1.046735
     29          6           0       -5.355017   -0.071253   -0.908455
     30          6           0       -4.633391    3.838981   -0.557820
     31          6           0       -1.365491    4.195216   -0.225694
     32          6           0        6.801947   -3.368722   -0.985743
     33          6           0        5.767393   -0.541451   -0.224986
     34          6           0        0.081563    4.020749   -0.194471
     35          6           0        0.967832    5.087002   -0.587930
     36          6           0        2.231312    4.654653   -0.311141
     37          6           0       -2.858412   -4.146664   -0.076196
     38          6           0        5.530906    0.613635    0.775104
     39          6           0       -6.658330   -0.839030   -0.902513
     40          6           0        3.734650    5.103416   -0.443617
     41          6           0        2.095573    3.186854    0.168944
     42          6           0        0.672843    6.534806   -0.826510
     43          6           0        4.342944    5.420900    0.846101
     44          1           0        0.375231    0.457869    0.210975
     45          1           0       -3.200183   -1.066169    1.190225
     46          1           0       -2.667483   -2.632549    2.512693
     47          1           0       -1.127883   -3.835387    2.928885
     48          1           0        5.544929   -2.361200   -2.351695
     49          1           0       -5.051161    0.124279    1.272650
     50          1           0       -6.122556    1.310837    0.474597
     51          1           0        2.867156    0.249086    0.389664
     52          1           0       -0.524075    1.892571    0.512689
     53          1           0        1.765957   -4.371642    0.986980
     54          1           0        2.460940   -3.415533    2.414254
     55          1           0        0.889924   -4.228635    2.576675
     56          1           0        2.353577   -3.588519   -0.586916
     57          1           0       -1.185645   -4.845165    0.816587
     58          1           0       -2.636825   -5.290868    1.669729
     59          1           0       -4.325509   -0.632621   -1.283275
     60          1           0       -5.514099    0.637084   -1.860278
     61          1           0       -4.560639    4.899872   -0.051355
     62          1           0       -5.633960    3.473760   -0.517621
     63          1           0       -4.343015    3.927785   -1.742137
     64          1           0       -1.823562    5.104714   -0.364753
     65          1           0        7.582704   -2.832496   -1.299550
     66          1           0        6.827181   -4.329722   -1.467651
     67          1           0        6.781134   -3.349978    0.123678
     68          1           0        6.684196   -0.788042   -0.547171
     69          1           0        4.836030    1.363219    0.179661
     70          1           0        6.451057    1.125274    1.040808
     71          1           0        4.634221    0.323704    1.509581
     72          1           0        3.631941    6.031578   -1.036008
     73          1           0        4.204891    4.158894   -0.894089
     74          1           0       -0.047377    6.740678   -1.803774
     75          1           0        1.588470    7.159875   -1.196370
     76          1           0        0.132615    7.112531   -0.100399
     77          1           0        3.681090    6.244266    1.581871
     78          1           0        5.426687    5.955434    0.879666
     79          1           0        4.307512    4.494732    1.547080
     80          1           0       -3.407099   -4.286770   -1.772673
     81          1           0       -7.687219   -2.188221   -1.923518
 ---------------------------------------------------------------------

 SCF Done:  E(RB3LYP) =  -1949.07498581     A.U. after   16 cycles

 Excitation energies and oscillator strengths:

 Excited State   1:      Singlet-A      1.6497 eV  751.57 nm  f=0.2468  <S**2>=0.000
     156 ->157         0.70842
     156 <-157        -0.10453
 This state for optimization and/or second-order correction.
 Total Energy, E(TD-HF/TD-DFT) =  -1949.01436171
 Copying the excited state density for this state as the 1-particle RhoCI density.

 The electronic state is 1-A.
 Alpha  occ. eigenvalues --  -19.19027 -19.17653 -19.14168 -19.12692 -19.12658
 Alpha  occ. eigenvalues --  -19.11831 -14.37708 -14.37656 -14.36043 -14.29312
 Alpha  occ. eigenvalues --  -10.33401 -10.31791 -10.30635 -10.27034 -10.24782
 Alpha  occ. eigenvalues --  -10.24502 -10.23825 -10.23581 -10.23529 -10.23247
 Alpha  occ. eigenvalues --  -10.22911 -10.22065 -10.22001 -10.21864 -10.21830
 Alpha  occ. eigenvalues --  -10.21131 -10.20872 -10.20570 -10.20238 -10.20210
 Alpha  occ. eigenvalues --  -10.20141 -10.20015 -10.19932 -10.19880 -10.19851
 Alpha  occ. eigenvalues --  -10.19825 -10.19780 -10.19769 -10.19523 -10.19305
 Alpha  occ. eigenvalues --  -10.19046 -10.19012 -10.18132  -1.09560  -1.08533
 Alpha  occ. eigenvalues --   -1.03969  -1.02881  -1.01562  -0.99083  -0.98634
 Alpha  occ. eigenvalues --   -0.97481  -0.95873  -0.92579  -0.83043  -0.82370
 Alpha  occ. eigenvalues --   -0.81176  -0.80781  -0.79621  -0.78953  -0.78204
 Alpha  occ. eigenvalues --   -0.76487  -0.76160  -0.75217  -0.73838  -0.72457
 Alpha  occ. eigenvalues --   -0.70538  -0.69611  -0.68460  -0.67790  -0.67372
 Alpha  occ. eigenvalues --   -0.66908  -0.65336  -0.64207  -0.63093  -0.60761
 Alpha  occ. eigenvalues --   -0.59543  -0.58727  -0.58406  -0.58041  -0.57622
 Alpha  occ. eigenvalues --   -0.56005  -0.54612  -0.53950  -0.53771  -0.53551
 Alpha  occ. eigenvalues --   -0.52458  -0.51958  -0.50899  -0.49594  -0.49284
 Alpha  occ. eigenvalues --   -0.48937  -0.48755  -0.48407  -0.47993  -0.47975
 Alpha  occ. eigenvalues --   -0.47232  -0.46957  -0.46046  -0.45879  -0.45096
 Alpha  occ. eigenvalues --   -0.44829  -0.44665  -0.44431  -0.44023  -0.43718
 Alpha  occ. eigenvalues --   -0.43341  -0.43072  -0.42872  -0.42404  -0.42314
 Alpha  occ. eigenvalues --   -0.41713  -0.41624  -0.41192  -0.40758  -0.40738
 Alpha  occ. eigenvalues --   -0.40591  -0.40474  -0.40225  -0.39771  -0.39463
 Alpha  occ. eigenvalues --   -0.39322  -0.39219  -0.38931  -0.38919  -0.38620
 Alpha  occ. eigenvalues --   -0.38210  -0.37803  -0.37572  -0.37138  -0.36777
 Alpha  occ. eigenvalues --   -0.36552  -0.35924  -0.35545  -0.34810  -0.34565
 Alpha  occ. eigenvalues --   -0.34373  -0.34016  -0.33439  -0.33125  -0.32962
 Alpha  occ. eigenvalues --   -0.32627  -0.31957  -0.31184  -0.30052  -0.29196
 Alpha  occ. eigenvalues --   -0.28822  -0.28552  -0.27642  -0.26942  -0.26135
 Alpha  occ. eigenvalues --   -0.24834  -0.24725  -0.24390  -0.23791  -0.21904
 Alpha  occ. eigenvalues --   -0.17079
 Alpha virt. eigenvalues --   -0.10263  -0.06072  -0.03605  -0.03062  -0.01501
 Alpha virt. eigenvalues --    0.00649   0.02023   0.02483   0.03337   0.03501
 Alpha virt. eigenvalues --    0.04174   0.04586   0.05056   0.05448   0.06316

 Mulliken charges:
               1
     1  O   -0.221879
     2  O   -0.248766
     3  O   -0.231108
     4  O   -0.261748
     5  O   -0.197875
     6  O   -0.189159
     7  N   -0.094470
     8  N   -0.050264
     9  N   -0.116669
    10  N   -0.308225
    11  C   -0.109192
    12  C    0.048077
    13  C   -0.191680
    14  C    0.059548
    15  C   -0.006409
    16  C    0.063394
    17  C   -0.084638
    18  C   -0.135540
    19  C   -0.033717
    20  C   -0.057928
    21  C    0.116241
    22  C    0.060138
    23  C   -0.106488
    24  C    0.088249
    25  C   -0.153866
    26  C    0.121443
    27  C    0.167269
    28  C    0.173631
    29  C   -0.131534
    30  C    0.034527
    31  C   -0.074520
    32  C    0.097087
    33  C   -0.049826
    34  C    0.092814
    35  C   -0.080013
    36  C   -0.205373
    37  C    0.153825
    38  C    0.008630
    39  C    0.167576
    40  C    0.153115
    41  C    0.149560
    42  C    0.016551
    43  C   -0.123669
    44  H    0.162360
    45  H    0.060479
    46  H    0.061261
    47  H    0.024336
    48  H    0.008726
    49  H    0.022500
    50  H    0.030167
    51  H    0.074338
    52  H    0.112238
    53  H    0.011330
    54  H    0.041968
    55  H   -0.006088
    56  H    0.125520
    57  H   -0.045539
    58  H    0.073256
    59  H    0.077020
    60  H    0.038235
    61  H    0.046430
    62  H    0.014311
    63  H    0.052651
    64  H   -0.055833
    65  H   -0.012846
    66  H    0.028561
    67  H    0.023829
    68  H   -0.063578
    69  H    0.079939
    70  H    0.021181
    71  H    0.052745
    72  H   -0.001836
    73  H    0.048889
    74  H    0.011365
    75  H    0.032346
    76  H    0.031290
    77  H    0.015421
    78  H    0.041927
    79  H    0.044480
    80  H    0.186106
    81  H    0.223394
 Sum of Mulliken charges =  -0.00000

 Dipole moment (field-independent basis, Debye):
    X=             -2.1616    Y=              1.6429    Z=             -0.7360  Tot=              2.8130
 Quadrupole moment (field-independent basis, Debye-Ang):
   XX=           -244.0925   YY=           -245.1601   ZZ=           -256.8397
   XY=             11.1602   XZ=             10.5716   YZ=            -16.0119

 Normal termination of Gaussian 16 at Wed Jul  3 08:07:45 2019.
