 Gaussian 16, Revision A.03,
 Gaussian 16:  ES64L-G16RevA.03 25-Dec-2016

 --------------------------
 # td=(NStates=1) B3LYP/SVP
 --------------------------

 --
 TD
 --
 Symbolic Z-matrix:
 Charge =  0 Multiplicity = 1

                         Standard orientation:
 ---------------------------------------------------------------------
 Center     Atomic      Atomic             Coordinates (Angstroms)
 Number     Number       Type             X           Y           Z
 ---------------------------------------------------------------------
      1          8           0        4.009213   -5.019055   -1.732048
      2          8           0       -2.724273   -4.736233   -1.155243
      3          8           0       -6.738695   -1.913946   -1.693618
      4          8           0       -3.873468   -3.121628   -0.117998
      5          8           0       -7.475449   -0.571340    0.005597
      6          8           0        2.973841    2.447104    0.428927
      7          7           0        0.287022   -0.522287    0.560323
      8          7           0       -1.643373    1.873886    0.284459
      9          7           0        3.274450   -3.214933   -0.482070
     10          7           0        0.756471    2.933641   -0.040774
     11          6           0       -0.640164   -2.314655    1.562258
     12          6           0       -0.884909   -0.952234    0.960111
     13          6           0        0.743939   -2.546815    1.274652
     14          6           0        1.360691   -1.377326    0.795588
     15          6           0       -3.752242    1.607848    0.166139
     16          6           0       -2.465014    0.922294    0.429936
     17          6           0       -2.164130   -0.373207    0.893641
     18          6           0       -3.505850    2.902565   -0.203144
     19          6           0       -1.691365   -3.280385    2.052358
     20          6           0        5.389652   -2.964646   -1.379671
     21          6           0        3.596251   -1.857821   -0.131267
     22          6           0       -2.110564    3.140075    0.008807
     23          6           0        4.931614   -1.647850   -0.539436
     24          6           0       -5.075925    0.858726    0.298363
     25          6           0        2.591480   -1.079819    0.373903
     26          6           0        1.368054   -3.670018    1.978849
     27          6           0        4.229865   -3.928180   -1.319399
     28          6           0       -2.090551   -4.441176    1.122106
     29          6           0       -5.312240   -0.231976   -0.836105
     30          6           0       -4.488821    3.978008   -0.498275
     31          6           0       -1.247553    4.185713   -0.309643
     32          6           0        6.783334   -3.551070   -1.025006
     33          6           0        5.729729   -0.642442   -0.230841
     34          6           0        0.135961    4.018266   -0.342996
     35          6           0        1.030783    5.143103   -0.537748
     36          6           0        2.334171    4.704713   -0.213383
     37          6           0       -2.974125   -3.940100   -0.121388
     38          6           0        5.444813    0.625752    0.517709
     39          6           0       -6.591064   -0.995961   -0.680924
     40          6           0        3.690064    5.395158   -0.095588
     41          6           0        2.122395    3.233120    0.222946
     42          6           0        0.652106    6.472602   -1.132576
     43          6           0        4.296933    5.552761    1.324930
     44          1           0        0.444971    0.217003   -0.260140
     45          1           0       -3.096747   -0.917900    1.186117
     46          1           0       -2.471115   -2.836510    2.456226
     47          1           0       -1.142651   -3.708849    2.965982
     48          1           0        5.365647   -2.708626   -2.383367
     49          1           0       -5.201278    0.357249    1.262556
     50          1           0       -5.879372    1.590572    0.383570
     51          1           0        2.793237    0.037346    0.419028
     52          1           0       -0.543180    1.856884    0.601979
     53          1           0        1.799015   -4.470969    1.107719
     54          1           0        2.293027   -3.411371    2.536731
     55          1           0        0.612542   -4.358902    2.724500
     56          1           0        2.244764   -3.360199   -0.455049
     57          1           0       -1.252727   -5.104863    0.893685
     58          1           0       -2.819045   -5.132601    1.668862
     59          1           0       -4.529299   -1.066752   -1.025161
     60          1           0       -5.241329    0.284188   -1.606198
     61          1           0       -4.550561    4.654395    0.556703
     62          1           0       -5.417453    3.647649   -0.547040
     63          1           0       -4.059063    4.432182   -1.503860
     64          1           0       -1.742504    5.087129   -0.714496
     65          1           0        7.556437   -2.772732   -1.008459
     66          1           0        6.858764   -4.449950   -1.632235
     67          1           0        6.871289   -4.112643    0.050665
     68          1           0        6.777132   -0.563866   -0.695763
     69          1           0        4.982592    1.451143   -0.064908
     70          1           0        6.336012    1.079109    1.008164
     71          1           0        4.637828    0.474563    1.329427
     72          1           0        3.541745    6.260699   -0.420567
     73          1           0        4.521594    4.810763   -0.602353
     74          1           0        0.309409    6.148426   -2.237589
     75          1           0        1.400490    7.389839   -1.252975
     76          1           0       -0.301422    6.974312   -0.522254
     77          1           0        3.648860    6.160247    1.968741
     78          1           0        5.218027    6.037843    1.231305
     79          1           0        4.372106    4.373610    1.649638
     80          1           0       -3.347231   -4.316709   -1.900360
     81          1           0       -7.705751   -1.873211   -1.616752
 ---------------------------------------------------------------------

 SCF Done:  E(RB3LYP) =  -1949.04256609     A.U. after   17 cycles

 Excitation energies and oscillator strengths:

 Excited State   1:      Singlet-A      1.6331 eV  759.19 nm  f=0.3770  <S**2>=0.000
     156 ->157         0.71879
     156 <-157        -0.16323
 This state for optimization and/or second-order correction.
 Total Energy, E(TD-HF/TD-DFT) =  -1948.98255058
 Copying the excited state density for this state as the 1-particle RhoCI density.

 The electronic state is 1-A.
 Alpha  occ. eigenvalues --  -19.20335 -19.18315 -19.14499 -19.13333 -19.12524
 Alpha  occ. eigenvalues --  -19.11206 -14.38268 -14.35723 -14.35138 -14.28176
 Alpha  occ. eigenvalues --  -10.33762 -10.31808 -10.30200 -10.26557 -10.24040
 Alpha  occ. eigenvalues --  -10.23629 -10.22944 -10.22941 -10.22577 -10.22233
 Alpha  occ. eigenvalues --  -10.22217 -10.21911 -10.21482 -10.21464 -10.21106
 Alpha  occ. eigenvalues --  -10.20532 -10.20524 -10.20512 -10.20511 -10.20483
 Alpha  occ. eigenvalues --  -10.20416 -10.20014 -10.19738 -10.19654 -10.19526
 Alpha  occ. eigenvalues --  -10.19268 -10.18938 -10.18588 -10.18515 -10.18466
 Alpha  occ. eigenvalues --  -10.18353 -10.18132 -10.17724  -1.11140  -1.10351
 Alpha  occ. eigenvalues --   -1.05336  -1.04196  -1.01619  -1.01565  -0.99838
 Alpha  occ. eigenvalues --   -0.98931  -0.93639  -0.92743  -0.82216  -0.81801
 Alpha  occ. eigenvalues --   -0.81092  -0.80811  -0.79978  -0.78765  -0.77535
 Alpha  occ. eigenvalues --   -0.76801  -0.76576  -0.75294  -0.74349  -0.71547
 Alpha  occ. eigenvalues --   -0.70674  -0.69610  -0.68525  -0.67580  -0.67197
 Alpha  occ. eigenvalues --   -0.66640  -0.65829  -0.64692  -0.62099  -0.61198
 Alpha  occ. eigenvalues --   -0.60241  -0.59519  -0.58123  -0.57932  -0.56478
 Alpha  occ. eigenvalues --   -0.55540  -0.55165  -0.54891  -0.52951  -0.52609
 Alpha  occ. eigenvalues --   -0.52071  -0.51755  -0.51079  -0.50379  -0.49960
 Alpha  occ. eigenvalues --   -0.49878  -0.49447  -0.48551  -0.48048  -0.47721
 Alpha  occ. eigenvalues --   -0.46913  -0.46601  -0.46098  -0.45636  -0.45354
 Alpha  occ. eigenvalues --   -0.45036  -0.44778  -0.44675  -0.44244  -0.43890
 Alpha  occ. eigenvalues --   -0.43523  -0.43351  -0.43080  -0.42697  -0.42501
 Alpha  occ. eigenvalues --   -0.42344  -0.42279  -0.41681  -0.41398  -0.40812
 Alpha  occ. eigenvalues --   -0.40550  -0.40463  -0.40046  -0.39848  -0.39270
 Alpha  occ. eigenvalues --   -0.39115  -0.38952  -0.38671  -0.38481  -0.38015
 Alpha  occ. eigenvalues --   -0.37623  -0.37333  -0.37199  -0.37020  -0.36750
 Alpha  occ. eigenvalues --   -0.36023  -0.35711  -0.35327  -0.34915  -0.34648
 Alpha  occ. eigenvalues --   -0.34346  -0.34168  -0.33926  -0.33745  -0.33367
 Alpha  occ. eigenvalues --   -0.33188  -0.32880  -0.32208  -0.30112  -0.29632
 Alpha  occ. eigenvalues --   -0.28464  -0.27844  -0.27657  -0.26551  -0.26248
 Alpha  occ. eigenvalues --   -0.24783  -0.24487  -0.23452  -0.22588  -0.21626
 Alpha  occ. eigenvalues --   -0.16838
 Alpha virt. eigenvalues --   -0.10689  -0.05631  -0.04061  -0.01367  -0.00489
 Alpha virt. eigenvalues --    0.00220   0.02045   0.02493   0.03458   0.03681
 Alpha virt. eigenvalues --    0.04032   0.04587   0.05337   0.05719   0.05894

 Mulliken charges:
               1
     1  O   -0.158507
     2  O   -0.189603
     3  O   -0.190039
     4  O   -0.231984
     5  O   -0.221048
     6  O   -0.167759
     7  N   -0.073351
     8  N   -0.066054
     9  N   -0.226698
    10  N   -0.285749
    11  C   -0.158964
    12  C    0.073271
    13  C   -0.143010
    14  C    0.123506
    15  C   -0.096008
    16  C   -0.020022
    17  C   -0.071230
    18  C   -0.158976
    19  C    0.162357
    20  C   -0.002515
    21  C    0.095607
    22  C    0.071553
    23  C    0.063937
    24  C    0.107175
    25  C   -0.145615
    26  C   -0.033494
    27  C    0.141385
    28  C    0.032652
    29  C    0.059312
    30  C    0.107355
    31  C   -0.124656
    32  C    0.018421
    33  C   -0.206923
    34  C    0.098267
    35  C   -0.083024
    36  C   -0.197370
    37  C    0.138642
    38  C    0.023753
    39  C    0.165533
    40  C    0.184385
    41  C    0.142515
    42  C   -0.047611
    43  C   -0.043016
    44  H    0.186956
    45  H    0.019550
    46  H   -0.039907
    47  H    0.010164
    48  H    0.016244
    49  H    0.005823
    50  H   -0.005066
    51  H    0.032738
    52  H    0.185189
    53  H    0.024012
    54  H    0.039305
    55  H    0.041683
    56  H    0.143185
    57  H    0.027789
    58  H    0.048246
    59  H    0.050477
    60  H   -0.043646
    61  H    0.049790
    62  H   -0.034881
    63  H    0.051449
    64  H   -0.018683
    65  H    0.036934
    66  H    0.032771
    67  H    0.027122
    68  H    0.010385
    69  H    0.062673
    70  H    0.011053
    71  H    0.038768
    72  H   -0.088886
    73  H    0.017337
    74  H    0.051491
    75  H    0.049820
    76  H    0.048466
    77  H    0.013180
    78  H    0.004125
    79  H    0.054392
    80  H    0.214694
    81  H    0.158855
 Sum of Mulliken charges =  -0.00000

 Dipole moment (field-independent basis, Debye):
    X=             -0.7949    Y=              1.0249    Z=             -1.3148  Tot=              1.8469
 Quadrupole moment (field-independent basis, Debye-Ang):
   XX=           -249.0623   YY=           -248.2063   ZZ=           -251.1919
   XY=             11.3051   XZ=              7.4012   YZ=            -11.5132

 Normal termination of Gaussian 16 at Tue Jul  2 18:07:29 2019.
