 Gaussian 16, Revision A.03,
 Gaussian 16:  ES64L-G16RevA.03 25-Dec-2016

 --------------------------
 # td=(NStates=1) B3LYP/SVP
 --------------------------

 --
 TD
 --
 Symbolic Z-matrix:
 Charge =  0 Multiplicity = 1

                         Standard orientation:
 ---------------------------------------------------------------------
 Center     Atomic      Atomic             Coordinates (Angstroms)
 Number     Number       Type             X           Y           Z
 ---------------------------------------------------------------------
      1          8           0        4.247255   -4.978804   -1.801874
      2          8           0       -3.138701   -5.079947   -0.910374
      3          8           0       -6.892818   -1.454021   -1.955741
      4          8           0       -3.784719   -3.253470    0.088366
      5          8           0       -7.722973   -0.476717   -0.098184
      6          8           0        3.063315    2.424264    0.485020
      7          7           0        0.255437   -0.497034    0.659105
      8          7           0       -1.513701    1.859390    0.396821
      9          7           0        3.233652   -3.151688   -0.822903
     10          7           0        0.843149    2.915966   -0.079577
     11          6           0       -0.712317   -2.312327    1.428946
     12          6           0       -0.929514   -0.984140    1.010646
     13          6           0        0.689637   -2.587771    1.204221
     14          6           0        1.278303   -1.413130    0.747321
     15          6           0       -3.747892    1.559261    0.390084
     16          6           0       -2.445556    0.963347    0.614081
     17          6           0       -2.168468   -0.357651    0.903106
     18          6           0       -3.496382    2.880765    0.061837
     19          6           0       -1.608870   -3.303488    1.986667
     20          6           0        5.456553   -2.883956   -1.285369
     21          6           0        3.528042   -1.863493   -0.252527
     22          6           0       -2.037692    3.121251   -0.019283
     23          6           0        4.924945   -1.624995   -0.664128
     24          6           0       -5.100565    0.917720    0.392651
     25          6           0        2.610704   -1.029418    0.246139
     26          6           0        1.364877   -3.727683    1.750658
     27          6           0        4.284146   -3.863339   -1.254713
     28          6           0       -1.951471   -4.567510    1.134633
     29          6           0       -5.397257    0.009283   -0.890867
     30          6           0       -4.543379    3.862596   -0.445204
     31          6           0       -1.241928    4.192203   -0.380229
     32          6           0        6.669895   -3.605761   -0.863361
     33          6           0        5.736419   -0.685929   -0.224472
     34          6           0        0.229900    4.071641   -0.446133
     35          6           0        1.262819    5.174604   -0.568412
     36          6           0        2.453815    4.581674   -0.274748
     37          6           0       -3.042608   -4.210222    0.151537
     38          6           0        5.503078    0.492097    0.618866
     39          6           0       -6.824078   -0.605326   -0.939887
     40          6           0        3.714581    5.295708   -0.185524
     41          6           0        2.173840    3.200876    0.054994
     42          6           0        0.834673    6.524681   -0.905526
     43          6           0        4.228771    5.537207    1.204894
     44          1           0        0.249288    0.465767   -0.007059
     45          1           0       -3.078946   -1.139697    0.847444
     46          1           0       -2.677561   -2.929072    2.197236
     47          1           0       -1.075222   -3.624433    2.973209
     48          1           0        5.536205   -2.575016   -2.417263
     49          1           0       -5.011173    0.266411    1.147479
     50          1           0       -5.862400    1.617705    0.470832
     51          1           0        2.753902    0.052694    0.077463
     52          1           0       -0.516758    1.811665    0.606086
     53          1           0        1.498924   -4.558904    1.174909
     54          1           0        2.330795   -3.354230    2.074266
     55          1           0        0.956612   -4.048620    2.663182
     56          1           0        2.282095   -3.465995   -0.708214
     57          1           0       -0.984759   -4.884860    0.613246
     58          1           0       -2.520003   -5.216821    1.740535
     59          1           0       -4.668617   -0.834952   -0.994024
     60          1           0       -5.306381    0.653068   -1.857600
     61          1           0       -4.158630    4.865808    0.055803
     62          1           0       -5.524084    3.524374   -0.016440
     63          1           0       -4.345044    3.955524   -1.568159
     64          1           0       -1.685362    5.248535   -0.404113
     65          1           0        7.365100   -2.904080   -0.682996
     66          1           0        6.766347   -4.647538   -1.488218
     67          1           0        6.735408   -4.100386    0.150180
     68          1           0        6.754029   -0.806326   -0.466124
     69          1           0        4.509714    1.268493    0.270534
     70          1           0        6.484018    0.911192    0.927671
     71          1           0        5.109413    0.221230    1.666491
     72          1           0        3.745523    6.442118   -0.536728
     73          1           0        4.679282    4.672565   -0.643048
     74          1           0        0.198649    6.736786   -1.725629
     75          1           0        1.668118    7.328982   -1.012998
     76          1           0        0.203613    7.047743   -0.125844
     77          1           0        3.536249    6.005124    1.872719
     78          1           0        5.175434    5.981741    1.304297
     79          1           0        4.476521    4.727611    1.731804
     80          1           0       -3.894745   -4.642564   -1.367829
     81          1           0       -7.788299   -1.961185   -1.880319
 ---------------------------------------------------------------------

 SCF Done:  E(RB3LYP) =  -1949.11122708     A.U. after   17 cycles

 Excitation energies and oscillator strengths:

 Excited State   1:      Singlet-A      1.5885 eV  780.51 nm  f=0.2356  <S**2>=0.000
     156 ->157         0.70662
     156 <-157        -0.12460
 This state for optimization and/or second-order correction.
 Total Energy, E(TD-HF/TD-DFT) =  -1949.05285084
 Copying the excited state density for this state as the 1-particle RhoCI density.

 The electronic state is 1-A.
 Alpha  occ. eigenvalues --  -19.19687 -19.18824 -19.15176 -19.12855 -19.10768
 Alpha  occ. eigenvalues --  -19.09828 -14.38242 -14.37065 -14.36732 -14.29862
 Alpha  occ. eigenvalues --  -10.33979 -10.32765 -10.28174 -10.26977 -10.25231
 Alpha  occ. eigenvalues --  -10.24560 -10.24215 -10.23734 -10.23519 -10.23073
 Alpha  occ. eigenvalues --  -10.22671 -10.22284 -10.21881 -10.21729 -10.21666
 Alpha  occ. eigenvalues --  -10.21102 -10.20864 -10.20727 -10.20683 -10.20546
 Alpha  occ. eigenvalues --  -10.20232 -10.19993 -10.19836 -10.19637 -10.19213
 Alpha  occ. eigenvalues --  -10.19170 -10.19165 -10.18804 -10.18507 -10.18200
 Alpha  occ. eigenvalues --  -10.18134 -10.18111 -10.15384  -1.11614  -1.10044
 Alpha  occ. eigenvalues --   -1.01813  -1.01219  -1.00748  -0.99751  -0.99662
 Alpha  occ. eigenvalues --   -0.98594  -0.94560  -0.92479  -0.83306  -0.82570
 Alpha  occ. eigenvalues --   -0.82184  -0.82132  -0.80830  -0.79857  -0.78661
 Alpha  occ. eigenvalues --   -0.77123  -0.76840  -0.76016  -0.74719  -0.73318
 Alpha  occ. eigenvalues --   -0.71929  -0.70630  -0.70023  -0.69098  -0.68539
 Alpha  occ. eigenvalues --   -0.67958  -0.65854  -0.64509  -0.62799  -0.61876
 Alpha  occ. eigenvalues --   -0.60168  -0.60072  -0.59079  -0.58237  -0.57381
 Alpha  occ. eigenvalues --   -0.56656  -0.56192  -0.54793  -0.54232  -0.53062
 Alpha  occ. eigenvalues --   -0.52438  -0.51889  -0.51463  -0.50794  -0.50583
 Alpha  occ. eigenvalues --   -0.50200  -0.49543  -0.49058  -0.48409  -0.48337
 Alpha  occ. eigenvalues --   -0.47473  -0.47319  -0.46755  -0.46073  -0.45789
 Alpha  occ. eigenvalues --   -0.45362  -0.45168  -0.45083  -0.44671  -0.44242
 Alpha  occ. eigenvalues --   -0.43961  -0.43542  -0.43132  -0.42813  -0.42557
 Alpha  occ. eigenvalues --   -0.42404  -0.41908  -0.41716  -0.41569  -0.41466
 Alpha  occ. eigenvalues --   -0.41341  -0.40653  -0.40291  -0.39990  -0.39828
 Alpha  occ. eigenvalues --   -0.39759  -0.39480  -0.39130  -0.38659  -0.38486
 Alpha  occ. eigenvalues --   -0.38356  -0.38151  -0.37707  -0.37027  -0.36986
 Alpha  occ. eigenvalues --   -0.36453  -0.36319  -0.35940  -0.35366  -0.34194
 Alpha  occ. eigenvalues --   -0.33952  -0.33788  -0.33583  -0.32967  -0.32539
 Alpha  occ. eigenvalues --   -0.32471  -0.32127  -0.30785  -0.30366  -0.30116
 Alpha  occ. eigenvalues --   -0.28373  -0.28217  -0.26899  -0.25766  -0.25211
 Alpha  occ. eigenvalues --   -0.25018  -0.24870  -0.24748  -0.23812  -0.22116
 Alpha  occ. eigenvalues --   -0.17950
 Alpha virt. eigenvalues --   -0.11457  -0.06552  -0.04254  -0.02032  -0.00473
 Alpha virt. eigenvalues --    0.00523   0.01961   0.02618   0.03172   0.03586
 Alpha virt. eigenvalues --    0.03965   0.04160   0.04558   0.05038   0.05504

 Mulliken charges:
               1
     1  O   -0.253392
     2  O   -0.197421
     3  O   -0.192342
     4  O   -0.238375
     5  O   -0.256720
     6  O   -0.262934
     7  N   -0.109251
     8  N   -0.074697
     9  N   -0.092799
    10  N   -0.294002
    11  C   -0.066148
    12  C    0.045541
    13  C   -0.217323
    14  C    0.062488
    15  C   -0.119711
    16  C    0.070816
    17  C   -0.165938
    18  C   -0.161717
    19  C   -0.004428
    20  C   -0.077178
    21  C    0.103462
    22  C    0.127045
    23  C    0.028781
    24  C    0.269240
    25  C   -0.076821
    26  C    0.172563
    27  C    0.121785
    28  C    0.092389
    29  C   -0.085472
    30  C    0.056902
    31  C   -0.130552
    32  C    0.086936
    33  C   -0.141047
    34  C    0.050914
    35  C   -0.053077
    36  C   -0.068534
    37  C    0.102158
    38  C   -0.037555
    39  C    0.154556
    40  C   -0.026825
    41  C    0.163142
    42  C    0.064151
    43  C    0.079176
    44  H    0.197254
    45  H    0.068414
    46  H    0.022748
    47  H    0.031823
    48  H    0.056579
    49  H   -0.023063
    50  H   -0.014562
    51  H    0.011880
    52  H    0.135827
    53  H   -0.001785
    54  H    0.014685
    55  H   -0.018551
    56  H    0.115085
    57  H    0.067685
    58  H    0.029808
    59  H    0.061960
    60  H    0.046866
    61  H    0.034162
    62  H    0.040528
    63  H    0.056930
    64  H    0.009658
    65  H   -0.034382
    66  H    0.066964
    67  H   -0.006236
    68  H   -0.024630
    69  H    0.148521
    70  H    0.001819
    71  H    0.023946
    72  H    0.027817
    73  H    0.032178
    74  H    0.008935
    75  H    0.017510
    76  H    0.018823
    77  H   -0.013259
    78  H   -0.017489
    79  H   -0.031897
    80  H    0.179331
    81  H    0.210334
 Sum of Mulliken charges =  -0.00000

 Dipole moment (field-independent basis, Debye):
    X=             -3.7110    Y=              1.8255    Z=              0.4315  Tot=              4.1581
 Quadrupole moment (field-independent basis, Debye-Ang):
   XX=           -259.1243   YY=           -242.2836   ZZ=           -256.4596
   XY=             18.8655   XZ=             18.7799   YZ=            -17.2544

 Normal termination of Gaussian 16 at Fri Jun 28 03:29:43 2019.
