 Gaussian 16, Revision A.03,
 Gaussian 16:  ES64L-G16RevA.03 25-Dec-2016

 --------------------------
 # td=(NStates=1) B3LYP/SVP
 --------------------------

 --
 TD
 --
 Symbolic Z-matrix:
 Charge =  0 Multiplicity = 1

                         Standard orientation:
 ---------------------------------------------------------------------
 Center     Atomic      Atomic             Coordinates (Angstroms)
 Number     Number       Type             X           Y           Z
 ---------------------------------------------------------------------
      1          8           0        4.425666   -4.735014   -1.837012
      2          8           0       -3.005666   -4.885525   -1.204373
      3          8           0       -6.908158   -1.814368   -1.712242
      4          8           0       -3.842542   -3.228957    0.029245
      5          8           0       -7.749892   -0.493094   -0.041571
      6          8           0        2.999580    2.405857    0.297944
      7          7           0        0.317203   -0.598866    0.545784
      8          7           0       -1.570157    1.822579    0.385486
      9          7           0        3.472192   -3.116546   -0.708265
     10          7           0        0.751031    2.919326    0.083024
     11          6           0       -0.644792   -2.401764    1.472749
     12          6           0       -0.937561   -1.079397    1.012407
     13          6           0        0.742015   -2.581968    1.248495
     14          6           0        1.359190   -1.494910    0.677331
     15          6           0       -3.798863    1.547512    0.418199
     16          6           0       -2.521768    0.821823    0.604394
     17          6           0       -2.183448   -0.435553    0.855099
     18          6           0       -3.604634    2.816233   -0.128519
     19          6           0       -1.607507   -3.515701    1.918573
     20          6           0        5.662519   -2.668783   -1.343851
     21          6           0        3.706767   -1.782453   -0.297568
     22          6           0       -2.138201    3.045005    0.019909
     23          6           0        5.080257   -1.449272   -0.450830
     24          6           0       -5.134879    0.754449    0.426598
     25          6           0        2.666164   -0.969365    0.173074
     26          6           0        1.578516   -3.784850    1.859594
     27          6           0        4.505519   -3.650326   -1.313730
     28          6           0       -1.983396   -4.605388    0.919005
     29          6           0       -5.388159   -0.101582   -0.758274
     30          6           0       -4.591257    3.875710   -0.522842
     31          6           0       -1.395704    4.120957   -0.264250
     32          6           0        6.994038   -3.398419   -0.826739
     33          6           0        5.817191   -0.488952    0.124309
     34          6           0        0.069200    4.036616   -0.317840
     35          6           0        1.023162    5.097249   -0.574701
     36          6           0        2.304240    4.647806   -0.342375
     37          6           0       -3.077763   -4.154515   -0.151387
     38          6           0        5.460653    0.700365    0.953398
     39          6           0       -6.795900   -0.803268   -0.676081
     40          6           0        3.593042    5.323319   -0.331678
     41          6           0        2.107198    3.134762    0.097908
     42          6           0        0.568580    6.575841   -0.921306
     43          6           0        4.022811    5.626236    1.128835
     44          1           0        0.182245    0.267706    0.182228
     45          1           0       -2.994617   -1.096265    1.128962
     46          1           0       -2.648438   -3.042492    2.359815
     47          1           0       -1.259169   -3.961126    2.792685
     48          1           0        5.836082   -2.286990   -2.261284
     49          1           0       -5.318791    0.223455    1.226492
     50          1           0       -5.845080    1.639804    0.507522
     51          1           0        2.945939    0.120967    0.280949
     52          1           0       -0.589404    1.693704    0.756890
     53          1           0        1.583237   -4.765009    1.330944
     54          1           0        2.505836   -3.361989    1.796695
     55          1           0        1.443176   -3.924238    2.873982
     56          1           0        2.526433   -3.553769   -0.969572
     57          1           0       -1.103971   -5.002165    0.227140
     58          1           0       -2.457395   -5.397605    1.304007
     59          1           0       -4.694799   -1.095126   -0.822382
     60          1           0       -5.573192    0.503925   -1.745184
     61          1           0       -4.730826    4.687192    0.161811
     62          1           0       -5.673226    3.473672   -0.718815
     63          1           0       -4.309203    4.309313   -1.533397
     64          1           0       -1.998142    4.983226   -0.595533
     65          1           0        7.799952   -2.810626   -1.165414
     66          1           0        7.054671   -4.266273   -1.199828
     67          1           0        7.033784   -3.267794    0.248561
     68          1           0        6.926831   -0.448568   -0.329515
     69          1           0        5.090900    1.605201    0.219984
     70          1           0        6.379145    1.106676    1.276195
     71          1           0        4.649332    0.695699    1.689594
     72          1           0        3.673694    6.297004   -1.012723
     73          1           0        4.386934    4.605315   -0.636264
     74          1           0       -0.230033    6.433761   -1.799319
     75          1           0        1.526860    7.135772   -1.124713
     76          1           0        0.056423    6.960454   -0.014702
     77          1           0        3.283334    6.179248    1.638166
     78          1           0        5.030481    6.098869    1.143153
     79          1           0        4.079825    4.408493    1.613904
     80          1           0       -3.698996   -4.587760   -1.832694
     81          1           0       -7.757023   -2.282803   -1.523928
 ---------------------------------------------------------------------

 SCF Done:  E(RB3LYP) =  -1949.11215903     A.U. after   16 cycles

 Excitation energies and oscillator strengths:

 Excited State   1:      Singlet-A      1.8029 eV  687.70 nm  f=0.2624  <S**2>=0.000
     156 ->157         0.70381
 This state for optimization and/or second-order correction.
 Total Energy, E(TD-HF/TD-DFT) =  -1949.04590461
 Copying the excited state density for this state as the 1-particle RhoCI density.

 The electronic state is 1-A.
 Alpha  occ. eigenvalues --  -19.21012 -19.16291 -19.13831 -19.13617 -19.12048
 Alpha  occ. eigenvalues --  -19.09183 -14.36574 -14.36263 -14.35831 -14.28771
 Alpha  occ. eigenvalues --  -10.33082 -10.32123 -10.27290 -10.27237 -10.24588
 Alpha  occ. eigenvalues --  -10.24279 -10.23966 -10.23703 -10.22912 -10.22716
 Alpha  occ. eigenvalues --  -10.22414 -10.21812 -10.21740 -10.21515 -10.21364
 Alpha  occ. eigenvalues --  -10.21269 -10.20936 -10.20930 -10.20433 -10.19909
 Alpha  occ. eigenvalues --  -10.19865 -10.19833 -10.19739 -10.19671 -10.19670
 Alpha  occ. eigenvalues --  -10.19624 -10.19558 -10.19478 -10.19198 -10.18875
 Alpha  occ. eigenvalues --  -10.18548 -10.17652 -10.16871  -1.13478  -1.07910
 Alpha  occ. eigenvalues --   -1.05333  -1.03787  -1.02227  -0.99223  -0.97738
 Alpha  occ. eigenvalues --   -0.96551  -0.94694  -0.91622  -0.82056  -0.81921
 Alpha  occ. eigenvalues --   -0.81055  -0.80926  -0.79287  -0.78686  -0.77352
 Alpha  occ. eigenvalues --   -0.77008  -0.76498  -0.74812  -0.74126  -0.72183
 Alpha  occ. eigenvalues --   -0.71275  -0.70097  -0.69150  -0.68440  -0.67624
 Alpha  occ. eigenvalues --   -0.66815  -0.65361  -0.64856  -0.62638  -0.62392
 Alpha  occ. eigenvalues --   -0.60693  -0.59107  -0.58341  -0.57429  -0.56866
 Alpha  occ. eigenvalues --   -0.56192  -0.54856  -0.54223  -0.53986  -0.52919
 Alpha  occ. eigenvalues --   -0.52135  -0.51548  -0.50558  -0.50076  -0.49351
 Alpha  occ. eigenvalues --   -0.49151  -0.49020  -0.48242  -0.47916  -0.47491
 Alpha  occ. eigenvalues --   -0.47103  -0.46273  -0.46236  -0.45493  -0.45259
 Alpha  occ. eigenvalues --   -0.44794  -0.44439  -0.44315  -0.43790  -0.43587
 Alpha  occ. eigenvalues --   -0.43270  -0.42886  -0.42727  -0.42686  -0.42532
 Alpha  occ. eigenvalues --   -0.42011  -0.41710  -0.41440  -0.41273  -0.40933
 Alpha  occ. eigenvalues --   -0.40727  -0.40613  -0.40458  -0.40258  -0.39888
 Alpha  occ. eigenvalues --   -0.39655  -0.39428  -0.38681  -0.38468  -0.38052
 Alpha  occ. eigenvalues --   -0.37545  -0.37414  -0.37318  -0.36917  -0.36804
 Alpha  occ. eigenvalues --   -0.36370  -0.36167  -0.36104  -0.35382  -0.35355
 Alpha  occ. eigenvalues --   -0.34486  -0.34096  -0.33888  -0.33859  -0.33340
 Alpha  occ. eigenvalues --   -0.32480  -0.32456  -0.31758  -0.30727  -0.28791
 Alpha  occ. eigenvalues --   -0.28095  -0.27627  -0.26324  -0.26098  -0.25688
 Alpha  occ. eigenvalues --   -0.24855  -0.24629  -0.23612  -0.22779  -0.21790
 Alpha  occ. eigenvalues --   -0.18077
 Alpha virt. eigenvalues --   -0.10601  -0.06152  -0.04420  -0.00158   0.00362
 Alpha virt. eigenvalues --    0.01303   0.02046   0.03219   0.03707   0.03804
 Alpha virt. eigenvalues --    0.04428   0.04460   0.05259   0.05906   0.06249

 Mulliken charges:
               1
     1  O   -0.225897
     2  O   -0.112112
     3  O   -0.278809
     4  O   -0.235217
     5  O   -0.184618
     6  O   -0.151046
     7  N   -0.051314
     8  N   -0.152697
     9  N   -0.081664
    10  N   -0.307043
    11  C   -0.054806
    12  C   -0.022671
    13  C   -0.232260
    14  C    0.132492
    15  C   -0.081744
    16  C    0.091547
    17  C   -0.011771
    18  C   -0.106783
    19  C    0.111368
    20  C   -0.071529
    21  C    0.064332
    22  C    0.131614
    23  C    0.001079
    24  C    0.172073
    25  C   -0.113030
    26  C    0.146255
    27  C    0.068838
    28  C    0.031392
    29  C   -0.062436
    30  C    0.047252
    31  C   -0.127717
    32  C    0.173818
    33  C   -0.177224
    34  C    0.119446
    35  C   -0.135075
    36  C   -0.182211
    37  C    0.082893
    38  C    0.056926
    39  C    0.137110
    40  C    0.032097
    41  C    0.149446
    42  C    0.070873
    43  C   -0.057308
    44  H    0.064849
    45  H   -0.011880
    46  H    0.026312
    47  H   -0.018611
    48  H    0.007379
    49  H   -0.040427
    50  H    0.009148
    51  H    0.041995
    52  H    0.162826
    53  H    0.021672
    54  H   -0.016973
    55  H   -0.003673
    56  H    0.161796
    57  H    0.053083
    58  H   -0.002565
    59  H    0.093716
    60  H    0.060423
    61  H    0.036636
    62  H    0.032761
    63  H    0.032026
    64  H   -0.025725
    65  H   -0.014797
    66  H   -0.020675
    67  H    0.009650
    68  H    0.018254
    69  H    0.075170
    70  H   -0.006662
    71  H    0.045558
    72  H    0.022390
    73  H    0.013428
    74  H    0.042929
    75  H    0.030729
    76  H    0.034475
    77  H    0.013760
    78  H    0.028269
    79  H    0.046970
    80  H    0.190999
    81  H    0.180910
 Sum of Mulliken charges =  -0.00000

 Dipole moment (field-independent basis, Debye):
    X=             -2.3171    Y=              1.7188    Z=             -0.2138  Tot=              2.8929
 Quadrupole moment (field-independent basis, Debye-Ang):
   XX=           -252.8064   YY=           -238.6670   ZZ=           -255.2164
   XY=             20.6981   XZ=             10.8728   YZ=            -10.0227

 Normal termination of Gaussian 16 at Sun Jun 30 22:35:00 2019.
