 Gaussian 16, Revision A.03,
 Gaussian 16:  ES64L-G16RevA.03 25-Dec-2016

 --------------------------
 # td=(NStates=1) B3LYP/SVP
 --------------------------

 --
 TD
 --
 Symbolic Z-matrix:
 Charge =  0 Multiplicity = 1

                         Standard orientation:
 ---------------------------------------------------------------------
 Center     Atomic      Atomic             Coordinates (Angstroms)
 Number     Number       Type             X           Y           Z
 ---------------------------------------------------------------------
      1          8           0        4.262138   -4.794176   -1.798926
      2          8           0       -2.691723   -4.664548   -1.025774
      3          8           0       -6.849047   -1.747047   -1.931221
      4          8           0       -3.839098   -3.110807    0.232275
      5          8           0       -7.715082   -0.749084   -0.101414
      6          8           0        2.959468    2.332779    0.327942
      7          7           0        0.288957   -0.395579    0.658437
      8          7           0       -1.636994    1.731667    0.290776
      9          7           0        3.337215   -3.048007   -0.742350
     10          7           0        0.733884    2.821841    0.101492
     11          6           0       -0.504907   -2.334228    1.447719
     12          6           0       -0.921441   -1.075405    0.951938
     13          6           0        0.860147   -2.515228    1.251795
     14          6           0        1.292643   -1.334841    0.833097
     15          6           0       -3.869435    1.414799    0.365268
     16          6           0       -2.614452    0.806609    0.555606
     17          6           0       -2.247242   -0.466267    0.942894
     18          6           0       -3.667532    2.753789   -0.117311
     19          6           0       -1.592032   -3.265805    2.045723
     20          6           0        5.566155   -2.732176   -1.338157
     21          6           0        3.640068   -1.789616   -0.277802
     22          6           0       -2.220868    2.918185   -0.073792
     23          6           0        5.057865   -1.534834   -0.560485
     24          6           0       -5.184088    0.653499    0.233261
     25          6           0        2.711403   -1.012961    0.405056
     26          6           0        1.709665   -3.747178    1.688632
     27          6           0        4.409704   -3.752162   -1.311567
     28          6           0       -2.042469   -4.435564    1.185160
     29          6           0       -5.275627   -0.287090   -0.923180
     30          6           0       -4.548816    3.846008   -0.454022
     31          6           0       -1.305375    4.054737   -0.384401
     32          6           0        6.868975   -3.457761   -0.803823
     33          6           0        5.866700   -0.457937   -0.318154
     34          6           0        0.069255    4.008138   -0.238565
     35          6           0        0.930666    5.123640   -0.429383
     36          6           0        2.213205    4.562572   -0.150039
     37          6           0       -3.013294   -3.984011    0.062478
     38          6           0        5.538639    0.729616    0.627799
     39          6           0       -6.701746   -0.944117   -0.856673
     40          6           0        3.503821    5.326779   -0.306702
     41          6           0        2.064042    3.176016    0.132221
     42          6           0        0.560842    6.497464   -0.775110
     43          6           0        4.076257    5.753942    1.093989
     44          1           0        0.288771    0.416667   -0.055053
     45          1           0       -2.974525   -1.437675    0.979482
     46          1           0       -2.573817   -2.690437    2.450307
     47          1           0       -1.215678   -3.523872    3.068680
     48          1           0        5.842996   -2.495072   -2.251673
     49          1           0       -5.256160    0.119373    1.243994
     50          1           0       -5.894644    1.427201    0.187957
     51          1           0        2.866183    0.068400    0.431079
     52          1           0       -0.624293    1.906992    0.409748
     53          1           0        1.599316   -4.426487    0.905092
     54          1           0        2.779710   -3.568066    1.985203
     55          1           0        1.158843   -4.117284    2.739463
     56          1           0        2.468042   -3.560642   -0.832516
     57          1           0       -1.086481   -5.030275    0.841489
     58          1           0       -2.966289   -5.065139    1.849413
     59          1           0       -4.574247   -1.132289   -0.775351
     60          1           0       -5.249195    0.285617   -1.836962
     61          1           0       -4.459237    4.817584    0.276998
     62          1           0       -5.625601    3.654121   -0.661472
     63          1           0       -4.220785    4.284907   -1.554943
     64          1           0       -1.682025    4.989387   -0.814020
     65          1           0        7.648506   -2.571569   -0.881302
     66          1           0        7.154312   -4.355023   -1.619127
     67          1           0        6.889583   -3.739100    0.243430
     68          1           0        6.980132   -0.347742   -0.633265
     69          1           0        4.662295    1.402238    0.139338
     70          1           0        6.424200    1.192388    1.115682
     71          1           0        4.954095    0.376279    1.580662
     72          1           0        3.521624    6.177026   -0.893303
     73          1           0        4.278624    4.607211   -0.777602
     74          1           0        0.249151    6.231361   -1.846286
     75          1           0        1.539949    7.111500   -0.708847
     76          1           0       -0.211079    6.977490   -0.039627
     77          1           0        3.576021    6.417448    1.706978
     78          1           0        5.079122    6.157330    1.103666
     79          1           0        4.290702    4.859267    1.780744
     80          1           0       -3.266462   -4.466720   -1.773355
     81          1           0       -7.830707   -1.850466   -1.887043
 ---------------------------------------------------------------------

 SCF Done:  E(RB3LYP) =  -1949.10754164     A.U. after   19 cycles

 Excitation energies and oscillator strengths:

 Excited State   1:      Singlet-A      1.7099 eV  725.12 nm  f=0.2509  <S**2>=0.000
     156 ->157         0.70167
     156 <-157        -0.10188
 This state for optimization and/or second-order correction.
 Total Energy, E(TD-HF/TD-DFT) =  -1949.04470571
 Copying the excited state density for this state as the 1-particle RhoCI density.

 The electronic state is 1-A.
 Alpha  occ. eigenvalues --  -19.21736 -19.18903 -19.15801 -19.13129 -19.11760
 Alpha  occ. eigenvalues --  -19.08458 -14.37135 -14.36177 -14.35498 -14.27357
 Alpha  occ. eigenvalues --  -10.35096 -10.32896 -10.28720 -10.24759 -10.24595
 Alpha  occ. eigenvalues --  -10.24436 -10.24367 -10.23420 -10.23229 -10.23137
 Alpha  occ. eigenvalues --  -10.22712 -10.22181 -10.22079 -10.21499 -10.21420
 Alpha  occ. eigenvalues --  -10.21349 -10.21040 -10.20923 -10.20836 -10.20820
 Alpha  occ. eigenvalues --  -10.20784 -10.20768 -10.20136 -10.19830 -10.19495
 Alpha  occ. eigenvalues --  -10.19336 -10.19332 -10.19232 -10.18741 -10.18328
 Alpha  occ. eigenvalues --  -10.18097 -10.17746 -10.16715  -1.12987  -1.09722
 Alpha  occ. eigenvalues --   -1.06849  -1.04458  -0.99161  -0.98337  -0.97802
 Alpha  occ. eigenvalues --   -0.97143  -0.95423  -0.90250  -0.82532  -0.81814
 Alpha  occ. eigenvalues --   -0.81100  -0.80817  -0.78971  -0.78696  -0.77773
 Alpha  occ. eigenvalues --   -0.76843  -0.75969  -0.74673  -0.72801  -0.71966
 Alpha  occ. eigenvalues --   -0.71248  -0.69333  -0.68745  -0.68413  -0.67347
 Alpha  occ. eigenvalues --   -0.67108  -0.64862  -0.63201  -0.62407  -0.62065
 Alpha  occ. eigenvalues --   -0.60801  -0.59250  -0.58536  -0.57719  -0.56749
 Alpha  occ. eigenvalues --   -0.56315  -0.55446  -0.54032  -0.53463  -0.52876
 Alpha  occ. eigenvalues --   -0.52223  -0.51731  -0.50807  -0.50564  -0.50025
 Alpha  occ. eigenvalues --   -0.49698  -0.48977  -0.48630  -0.48261  -0.48049
 Alpha  occ. eigenvalues --   -0.46957  -0.46225  -0.45732  -0.45372  -0.45236
 Alpha  occ. eigenvalues --   -0.45093  -0.44433  -0.44328  -0.44145  -0.43936
 Alpha  occ. eigenvalues --   -0.43802  -0.42991  -0.42714  -0.42502  -0.42287
 Alpha  occ. eigenvalues --   -0.42135  -0.41501  -0.41120  -0.40759  -0.40243
 Alpha  occ. eigenvalues --   -0.40064  -0.39702  -0.39488  -0.39397  -0.39231
 Alpha  occ. eigenvalues --   -0.39015  -0.38521  -0.38298  -0.38126  -0.37557
 Alpha  occ. eigenvalues --   -0.37446  -0.37281  -0.36948  -0.36482  -0.36276
 Alpha  occ. eigenvalues --   -0.36033  -0.35628  -0.35155  -0.34944  -0.34505
 Alpha  occ. eigenvalues --   -0.34302  -0.34021  -0.33275  -0.33197  -0.32425
 Alpha  occ. eigenvalues --   -0.32141  -0.32070  -0.31690  -0.30617  -0.29504
 Alpha  occ. eigenvalues --   -0.28205  -0.27253  -0.26446  -0.26309  -0.25655
 Alpha  occ. eigenvalues --   -0.25000  -0.24428  -0.23366  -0.21880  -0.20664
 Alpha  occ. eigenvalues --   -0.18108
 Alpha virt. eigenvalues --   -0.10926  -0.06316  -0.04075  -0.02345  -0.01495
 Alpha virt. eigenvalues --    0.00506   0.01439   0.02542   0.03139   0.03304
 Alpha virt. eigenvalues --    0.03890   0.04707   0.05123   0.05630   0.05835

 Mulliken charges:
               1
     1  O   -0.147694
     2  O   -0.136010
     3  O   -0.179048
     4  O   -0.225762
     5  O   -0.295893
     6  O   -0.246928
     7  N   -0.114086
     8  N   -0.084098
     9  N   -0.134457
    10  N   -0.339424
    11  C   -0.077733
    12  C   -0.036297
    13  C   -0.175211
    14  C    0.048625
    15  C   -0.107291
    16  C    0.144345
    17  C   -0.095025
    18  C   -0.070964
    19  C    0.000309
    20  C   -0.035957
    21  C    0.150598
    22  C    0.043791
    23  C    0.048640
    24  C    0.098712
    25  C   -0.106588
    26  C    0.070967
    27  C    0.113004
    28  C   -0.022016
    29  C    0.054350
    30  C   -0.024046
    31  C   -0.110234
    32  C   -0.034619
    33  C   -0.174513
    34  C    0.092259
    35  C   -0.110588
    36  C   -0.142031
    37  C    0.140806
    38  C   -0.064969
    39  C    0.153783
    40  C    0.097846
    41  C    0.162530
    42  C    0.040659
    43  C   -0.004854
    44  H    0.181486
    45  H    0.090259
    46  H    0.036912
    47  H    0.020206
    48  H   -0.007916
    49  H    0.031400
    50  H   -0.009856
    51  H    0.014629
    52  H    0.138034
    53  H    0.012904
    54  H    0.053762
    55  H    0.039686
    56  H    0.122780
    57  H    0.058939
    58  H    0.069316
    59  H    0.054428
    60  H    0.035236
    61  H    0.059724
    62  H    0.025330
    63  H    0.034350
    64  H   -0.034679
    65  H    0.022312
    66  H    0.060637
    67  H    0.021299
    68  H    0.028157
    69  H    0.124470
    70  H    0.013412
    71  H    0.027967
    72  H   -0.019444
    73  H    0.022224
    74  H    0.056348
    75  H    0.035472
    76  H    0.058735
    77  H   -0.012697
    78  H   -0.011947
    79  H    0.018074
    80  H    0.185019
    81  H    0.178146
 Sum of Mulliken charges =  -0.00000

 Dipole moment (field-independent basis, Debye):
    X=             -2.5535    Y=             -0.6685    Z=             -2.0485  Tot=              3.3413
 Quadrupole moment (field-independent basis, Debye-Ang):
   XX=           -260.7022   YY=           -235.9889   ZZ=           -251.4102
   XY=             10.3080   XZ=             16.3641   YZ=             -9.6720

 Normal termination of Gaussian 16 at Sat Jun 29 06:08:21 2019.
