 Gaussian 16, Revision A.03,
 Gaussian 16:  ES64L-G16RevA.03 25-Dec-2016

 --------------------------
 # td=(NStates=1) B3LYP/SVP
 --------------------------

 --
 TD
 --
 Symbolic Z-matrix:
 Charge =  0 Multiplicity = 1

                         Standard orientation:
 ---------------------------------------------------------------------
 Center     Atomic      Atomic             Coordinates (Angstroms)
 Number     Number       Type             X           Y           Z
 ---------------------------------------------------------------------
      1          8           0        4.206419   -4.963704   -1.906220
      2          8           0       -3.153338   -4.741076   -1.105033
      3          8           0       -6.915144   -1.567763   -1.717735
      4          8           0       -3.922845   -2.996055    0.071804
      5          8           0       -7.473084   -0.568976    0.134096
      6          8           0        3.086682    2.264812    0.504567
      7          7           0        0.146474   -0.478914    0.560187
      8          7           0       -1.525422    1.802415    0.233536
      9          7           0        3.157729   -3.317329   -0.721211
     10          7           0        0.874711    2.814958    0.089465
     11          6           0       -0.811187   -2.303646    1.379618
     12          6           0       -0.964534   -0.993165    0.937587
     13          6           0        0.661842   -2.601206    1.368591
     14          6           0        1.227232   -1.418385    0.801243
     15          6           0       -3.866815    1.736495    0.267113
     16          6           0       -2.558773    1.015928    0.616679
     17          6           0       -2.312719   -0.356004    0.906695
     18          6           0       -3.446345    2.947886   -0.206857
     19          6           0       -1.711930   -3.274557    2.028929
     20          6           0        5.432737   -2.957290   -1.259121
     21          6           0        3.508249   -2.027215   -0.262597
     22          6           0       -1.998168    3.118456   -0.158746
     23          6           0        4.911193   -1.699587   -0.508363
     24          6           0       -5.166165    1.018303    0.338036
     25          6           0        2.596477   -1.193455    0.333673
     26          6           0        1.322124   -3.792500    1.866954
     27          6           0        4.211240   -3.854140   -1.275511
     28          6           0       -2.116521   -4.316378    1.001559
     29          6           0       -5.277320    0.015182   -0.826024
     30          6           0       -4.356587    4.093455   -0.677811
     31          6           0       -1.149101    4.185088   -0.440486
     32          6           0        6.762537   -3.500028   -0.896070
     33          6           0        5.691716   -0.678660   -0.131648
     34          6           0        0.316322    4.013324   -0.353913
     35          6           0        1.254741    5.015381   -0.549576
     36          6           0        2.508692    4.488175   -0.287452
     37          6           0       -3.098720   -3.909317   -0.034390
     38          6           0        5.381828    0.545729    0.699306
     39          6           0       -6.694429   -0.695731   -0.762506
     40          6           0        3.864168    5.095296   -0.115967
     41          6           0        2.251298    3.097396    0.160771
     42          6           0        0.872893    6.430990   -0.983077
     43          6           0        4.416734    5.573139    1.355297
     44          1           0        0.340362    0.474563    0.013969
     45          1           0       -3.133196   -0.944851    1.211277
     46          1           0       -2.668020   -2.674858    2.318856
     47          1           0       -1.529936   -3.527864    3.038672
     48          1           0        5.818655   -2.687391   -2.374250
     49          1           0       -5.247821    0.683657    1.204619
     50          1           0       -6.006357    1.881929    0.197434
     51          1           0        2.880867   -0.236950    0.351803
     52          1           0       -0.509687    1.834764    0.556453
     53          1           0        1.196383   -4.551006    1.249676
     54          1           0        2.365306   -3.747541    2.003454
     55          1           0        0.832727   -4.089104    2.876751
     56          1           0        2.051884   -3.829201   -0.816143
     57          1           0       -1.082930   -4.830633    0.338748
     58          1           0       -2.572581   -5.307998    1.379080
     59          1           0       -4.464427   -0.764886   -0.806291
     60          1           0       -5.217799    0.486885   -1.852524
     61          1           0       -4.315688    4.865468    0.003485
     62          1           0       -5.421877    3.692145   -0.429876
     63          1           0       -4.073905    4.270928   -1.658635
     64          1           0       -1.457502    5.140601   -0.857945
     65          1           0        7.641610   -2.739669   -1.010181
     66          1           0        7.116358   -4.378129   -1.474848
     67          1           0        6.703986   -3.733869    0.068211
     68          1           0        6.775864   -0.813382   -0.500236
     69          1           0        4.809704    1.334842    0.248603
     70          1           0        6.367445    0.703804    1.202988
     71          1           0        4.650185    0.251133    1.507925
     72          1           0        4.091961    5.934975   -1.097429
     73          1           0        4.656518    4.285352   -0.463245
     74          1           0        0.396491    6.306488   -1.932402
     75          1           0        1.739202    7.016512   -1.027355
     76          1           0        0.165619    7.106547   -0.336340
     77          1           0        3.694282    6.434914    1.669700
     78          1           0        5.460369    6.091075    1.309571
     79          1           0        4.271954    4.721775    2.000769
     80          1           0       -3.794310   -4.476761   -1.672798
     81          1           0       -7.711920   -2.263827   -1.418836
 ---------------------------------------------------------------------

 SCF Done:  E(RB3LYP) =  -1949.04789611     A.U. after   19 cycles

 Excitation energies and oscillator strengths:

 Excited State   1:      Singlet-A      1.5014 eV  825.80 nm  f=0.2030  <S**2>=0.000
     155 ->157         0.10528
     156 ->157         0.70508
     156 <-157        -0.11792
 This state for optimization and/or second-order correction.
 Total Energy, E(TD-HF/TD-DFT) =  -1948.99272105
 Copying the excited state density for this state as the 1-particle RhoCI density.

 The electronic state is 1-A.
 Alpha  occ. eigenvalues --  -19.18985 -19.18597 -19.14079 -19.11785 -19.11195
 Alpha  occ. eigenvalues --  -19.08003 -14.38463 -14.37838 -14.36213 -14.29650
 Alpha  occ. eigenvalues --  -10.34000 -10.31466 -10.27486 -10.26942 -10.25100
 Alpha  occ. eigenvalues --  -10.24429 -10.24118 -10.24084 -10.23594 -10.23311
 Alpha  occ. eigenvalues --  -10.23279 -10.22206 -10.21692 -10.21644 -10.21588
 Alpha  occ. eigenvalues --  -10.21240 -10.20898 -10.20740 -10.20699 -10.20589
 Alpha  occ. eigenvalues --  -10.20419 -10.20351 -10.20246 -10.20057 -10.19612
 Alpha  occ. eigenvalues --  -10.19597 -10.19570 -10.19436 -10.19352 -10.18614
 Alpha  occ. eigenvalues --  -10.17726 -10.17706 -10.16972  -1.11556  -1.09821
 Alpha  occ. eigenvalues --   -1.01890  -1.01431  -1.00816  -0.99811  -0.98468
 Alpha  occ. eigenvalues --   -0.96552  -0.93000  -0.91867  -0.82628  -0.82356
 Alpha  occ. eigenvalues --   -0.81267  -0.80796  -0.79367  -0.79192  -0.77404
 Alpha  occ. eigenvalues --   -0.76883  -0.76101  -0.74642  -0.73844  -0.72649
 Alpha  occ. eigenvalues --   -0.71445  -0.69930  -0.69581  -0.69137  -0.67997
 Alpha  occ. eigenvalues --   -0.67536  -0.65987  -0.63890  -0.62477  -0.61829
 Alpha  occ. eigenvalues --   -0.60981  -0.59430  -0.59203  -0.57090  -0.56897
 Alpha  occ. eigenvalues --   -0.56040  -0.55590  -0.55034  -0.53087  -0.52568
 Alpha  occ. eigenvalues --   -0.52089  -0.51469  -0.50679  -0.49963  -0.49464
 Alpha  occ. eigenvalues --   -0.49384  -0.48880  -0.48204  -0.47610  -0.47421
 Alpha  occ. eigenvalues --   -0.47053  -0.46807  -0.46556  -0.46187  -0.45578
 Alpha  occ. eigenvalues --   -0.45208  -0.44892  -0.44663  -0.44254  -0.43911
 Alpha  occ. eigenvalues --   -0.43426  -0.43329  -0.42931  -0.42609  -0.42409
 Alpha  occ. eigenvalues --   -0.42182  -0.41933  -0.41719  -0.41349  -0.40882
 Alpha  occ. eigenvalues --   -0.40823  -0.40717  -0.40324  -0.40093  -0.39978
 Alpha  occ. eigenvalues --   -0.39558  -0.39239  -0.38906  -0.38441  -0.38320
 Alpha  occ. eigenvalues --   -0.37763  -0.37368  -0.37026  -0.36903  -0.36651
 Alpha  occ. eigenvalues --   -0.36139  -0.35696  -0.34841  -0.34248  -0.33957
 Alpha  occ. eigenvalues --   -0.33837  -0.33592  -0.33441  -0.32884  -0.32068
 Alpha  occ. eigenvalues --   -0.32000  -0.31978  -0.31545  -0.29631  -0.29336
 Alpha  occ. eigenvalues --   -0.28705  -0.27773  -0.26314  -0.25906  -0.25138
 Alpha  occ. eigenvalues --   -0.24609  -0.24357  -0.23401  -0.23298  -0.21550
 Alpha  occ. eigenvalues --   -0.17951
 Alpha virt. eigenvalues --   -0.11744  -0.06556  -0.04064  -0.02552  -0.00755
 Alpha virt. eigenvalues --   -0.00028   0.00143   0.01986   0.02779   0.03758
 Alpha virt. eigenvalues --    0.04096   0.04236   0.04628   0.05169   0.05958

 Mulliken charges:
               1
     1  O   -0.298229
     2  O   -0.133856
     3  O   -0.225915
     4  O   -0.249516
     5  O   -0.225142
     6  O   -0.210588
     7  N   -0.077651
     8  N   -0.162172
     9  N   -0.122701
    10  N   -0.348613
    11  C   -0.155652
    12  C    0.056259
    13  C   -0.194586
    14  C    0.070585
    15  C   -0.106707
    16  C    0.052291
    17  C   -0.027353
    18  C   -0.194683
    19  C    0.129852
    20  C   -0.098925
    21  C    0.085624
    22  C    0.162085
    23  C    0.071299
    24  C    0.231521
    25  C   -0.056277
    26  C    0.196964
    27  C    0.114499
    28  C   -0.069102
    29  C   -0.052071
    30  C    0.174458
    31  C   -0.107626
    32  C    0.063956
    33  C   -0.210918
    34  C    0.070199
    35  C   -0.103173
    36  C   -0.127186
    37  C    0.140907
    38  C    0.082244
    39  C    0.134235
    40  C   -0.074022
    41  C    0.165607
    42  C    0.112611
    43  C   -0.010641
    44  H    0.188625
    45  H   -0.011895
    46  H    0.009818
    47  H    0.006077
    48  H    0.058380
    49  H   -0.055265
    50  H    0.025576
    51  H   -0.075952
    52  H    0.175242
    53  H   -0.039406
    54  H    0.006734
    55  H    0.021490
    56  H    0.226255
    57  H    0.063774
    58  H    0.063571
    59  H    0.071928
    60  H    0.035477
    61  H    0.005530
    62  H    0.007939
    63  H    0.023043
    64  H   -0.021223
    65  H    0.020239
    66  H    0.032478
    67  H   -0.030189
    68  H    0.003085
    69  H    0.072014
    70  H    0.011289
    71  H    0.020363
    72  H    0.020402
    73  H    0.038058
    74  H    0.021773
    75  H   -0.000609
    76  H    0.038753
    77  H    0.022525
    78  H    0.046134
    79  H    0.042576
    80  H    0.144417
    81  H    0.239084
 Sum of Mulliken charges =  -0.00000

 Dipole moment (field-independent basis, Debye):
    X=             -3.6243    Y=              2.3413    Z=              0.0931  Tot=              4.3158
 Quadrupole moment (field-independent basis, Debye-Ang):
   XX=           -256.7417   YY=           -237.6948   ZZ=           -255.9741
   XY=             25.1013   XZ=             15.1343   YZ=            -16.4414

 Normal termination of Gaussian 16 at Wed Jul  3 10:42:42 2019.
