 Gaussian 16, Revision A.03,
 Gaussian 16:  ES64L-G16RevA.03 25-Dec-2016

 --------------------------
 # td=(NStates=1) B3LYP/SVP
 --------------------------

 --
 TD
 --
 Symbolic Z-matrix:
 Charge =  0 Multiplicity = 1

                         Standard orientation:
 ---------------------------------------------------------------------
 Center     Atomic      Atomic             Coordinates (Angstroms)
 Number     Number       Type             X           Y           Z
 ---------------------------------------------------------------------
      1          8           0        4.678988   -4.612888   -1.877087
      2          8           0       -2.609453   -5.105723   -1.178953
      3          8           0       -7.120309   -1.772362   -1.830417
      4          8           0       -3.478794   -3.280667   -0.026945
      5          8           0       -7.683836   -0.822299    0.127776
      6          8           0        2.891870    2.554191    0.347063
      7          7           0        0.232956   -0.476639    0.444046
      8          7           0       -1.669865    1.737627    0.455606
      9          7           0        3.540037   -2.944677   -0.753189
     10          7           0        0.622916    2.905263   -0.092726
     11          6           0       -0.465663   -2.434973    1.297965
     12          6           0       -0.890295   -1.099375    0.849472
     13          6           0        0.921377   -2.555442    1.196072
     14          6           0        1.401581   -1.361093    0.648518
     15          6           0       -3.895144    1.258741    0.330471
     16          6           0       -2.513518    0.643350    0.524609
     17          6           0       -2.231237   -0.663275    0.625721
     18          6           0       -3.765332    2.631896    0.012410
     19          6           0       -1.401586   -3.458702    1.976852
     20          6           0        5.793125   -2.460853   -1.299882
     21          6           0        3.832441   -1.669864   -0.277176
     22          6           0       -2.329297    2.916006    0.022446
     23          6           0        5.171040   -1.331151   -0.478938
     24          6           0       -5.191297    0.477003    0.503063
     25          6           0        2.810706   -0.966047    0.283817
     26          6           0        1.716667   -3.724701    1.759910
     27          6           0        4.723950   -3.535926   -1.362651
     28          6           0       -1.755139   -4.582622    1.060034
     29          6           0       -5.412677   -0.421553   -0.680297
     30          6           0       -4.755781    3.622796   -0.336535
     31          6           0       -1.539823    3.998174   -0.305178
     32          6           0        7.057565   -2.942079   -0.528580
     33          6           0        5.835796   -0.258842    0.014885
     34          6           0       -0.193606    4.011062   -0.375769
     35          6           0        0.695458    5.176197   -0.581974
     36          6           0        2.000555    4.752914   -0.182859
     37          6           0       -2.657429   -4.160633   -0.081742
     38          6           0        5.379292    0.901705    0.763542
     39          6           0       -6.885390   -0.966924   -0.775068
     40          6           0        3.282147    5.438435   -0.270489
     41          6           0        1.974294    3.263574    0.024769
     42          6           0        0.240670    6.636159   -0.822292
     43          6           0        3.901714    5.608408    1.056836
     44          1           0        0.295949    0.295980   -0.128104
     45          1           0       -3.016013   -1.340298    0.758788
     46          1           0       -2.170743   -3.038780    2.447305
     47          1           0       -0.884054   -3.871724    2.880873
     48          1           0        6.106993   -1.739655   -2.269280
     49          1           0       -5.346782   -0.215587    1.331553
     50          1           0       -6.127005    1.179663    0.601087
     51          1           0        2.904017    0.066180    0.103295
     52          1           0       -0.509384    1.776310    0.278796
     53          1           0        1.418814   -4.936197    1.363309
     54          1           0        2.801591   -3.695054    1.727875
     55          1           0        1.473937   -3.936185    2.812886
     56          1           0        2.660081   -3.459077   -0.787189
     57          1           0       -0.798564   -4.919373    0.538492
     58          1           0       -2.404667   -5.247399    1.615593
     59          1           0       -4.687430   -1.154080   -0.743151
     60          1           0       -5.064773    0.155246   -1.482513
     61          1           0       -4.505938    4.646229    0.141154
     62          1           0       -5.794846    3.260936   -0.057105
     63          1           0       -4.701228    3.767243   -1.288026
     64          1           0       -1.957391    4.920368   -0.579522
     65          1           0        8.034757   -2.269928   -0.527409
     66          1           0        7.322501   -4.010876   -0.900739
     67          1           0        6.596514   -3.237317    0.476438
     68          1           0        7.001511   -0.006273   -0.311659
     69          1           0        4.752412    1.606065    0.165889
     70          1           0        6.343242    1.430349    0.996732
     71          1           0        4.952142    0.849831    1.797607
     72          1           0        3.232598    6.513515   -0.551561
     73          1           0        3.861025    4.834421   -0.813857
     74          1           0       -0.537997    6.439087   -1.677314
     75          1           0        0.920544    7.449343   -0.968537
     76          1           0       -0.392262    7.022339    0.053073
     77          1           0        3.261328    6.378323    1.700730
     78          1           0        5.002407    5.942785    1.052197
     79          1           0        3.692788    4.661640    1.423960
     80          1           0       -3.275182   -4.705924   -1.799645
     81          1           0       -8.101919   -2.099346   -1.801432
 ---------------------------------------------------------------------

 SCF Done:  E(RB3LYP) =  -1949.09270232     A.U. after   17 cycles

 Excitation energies and oscillator strengths:

 Excited State   1:      Singlet-A      1.5702 eV  789.63 nm  f=0.2936  <S**2>=0.000
     156 ->157         0.71075
     156 <-157        -0.12465
 This state for optimization and/or second-order correction.
 Total Energy, E(TD-HF/TD-DFT) =  -1949.03499983
 Copying the excited state density for this state as the 1-particle RhoCI density.

 The electronic state is 1-A.
 Alpha  occ. eigenvalues --  -19.19114 -19.18640 -19.15639 -19.12964 -19.12410
 Alpha  occ. eigenvalues --  -19.10563 -14.37610 -14.36571 -14.35219 -14.28623
 Alpha  occ. eigenvalues --  -10.33850 -10.32667 -10.30295 -10.26387 -10.24536
 Alpha  occ. eigenvalues --  -10.24448 -10.23811 -10.23432 -10.23276 -10.22918
 Alpha  occ. eigenvalues --  -10.22649 -10.22096 -10.21730 -10.21613 -10.21113
 Alpha  occ. eigenvalues --  -10.20946 -10.20829 -10.20666 -10.20588 -10.20402
 Alpha  occ. eigenvalues --  -10.20268 -10.20163 -10.20029 -10.20019 -10.19777
 Alpha  occ. eigenvalues --  -10.19375 -10.19289 -10.18632 -10.18628 -10.18059
 Alpha  occ. eigenvalues --  -10.17288 -10.17123 -10.16750  -1.09273  -1.09247
 Alpha  occ. eigenvalues --   -1.05085  -1.02347  -1.01176  -1.00343  -0.97455
 Alpha  occ. eigenvalues --   -0.95389  -0.94993  -0.90085  -0.82908  -0.82105
 Alpha  occ. eigenvalues --   -0.81925  -0.81730  -0.80181  -0.79430  -0.78009
 Alpha  occ. eigenvalues --   -0.77692  -0.77102  -0.74970  -0.74337  -0.72053
 Alpha  occ. eigenvalues --   -0.71099  -0.69727  -0.68693  -0.68300  -0.67272
 Alpha  occ. eigenvalues --   -0.66334  -0.65359  -0.64523  -0.61879  -0.60624
 Alpha  occ. eigenvalues --   -0.59526  -0.59405  -0.59159  -0.57080  -0.56842
 Alpha  occ. eigenvalues --   -0.56148  -0.55784  -0.54993  -0.53573  -0.53122
 Alpha  occ. eigenvalues --   -0.52427  -0.51556  -0.51230  -0.50520  -0.50377
 Alpha  occ. eigenvalues --   -0.50077  -0.49113  -0.48405  -0.48007  -0.47919
 Alpha  occ. eigenvalues --   -0.47310  -0.46790  -0.46187  -0.46098  -0.45399
 Alpha  occ. eigenvalues --   -0.45347  -0.45125  -0.44246  -0.43898  -0.43650
 Alpha  occ. eigenvalues --   -0.43291  -0.43186  -0.42811  -0.42700  -0.42423
 Alpha  occ. eigenvalues --   -0.42234  -0.41958  -0.41730  -0.41371  -0.41033
 Alpha  occ. eigenvalues --   -0.40704  -0.40343  -0.40205  -0.40064  -0.39657
 Alpha  occ. eigenvalues --   -0.39444  -0.39309  -0.39088  -0.38733  -0.38427
 Alpha  occ. eigenvalues --   -0.38194  -0.37570  -0.37382  -0.36945  -0.36616
 Alpha  occ. eigenvalues --   -0.36471  -0.36185  -0.35845  -0.35514  -0.34772
 Alpha  occ. eigenvalues --   -0.33970  -0.33627  -0.33604  -0.33175  -0.32742
 Alpha  occ. eigenvalues --   -0.32525  -0.31938  -0.31795  -0.30010  -0.29705
 Alpha  occ. eigenvalues --   -0.28631  -0.27431  -0.27270  -0.26471  -0.25872
 Alpha  occ. eigenvalues --   -0.24931  -0.24704  -0.23608  -0.22335  -0.21267
 Alpha  occ. eigenvalues --   -0.17434
 Alpha virt. eigenvalues --   -0.11055  -0.05934  -0.04553  -0.02360  -0.02024
 Alpha virt. eigenvalues --   -0.00080   0.01508   0.02213   0.02926   0.03699
 Alpha virt. eigenvalues --    0.04317   0.04425   0.04694   0.04998   0.05497

 Mulliken charges:
               1
     1  O   -0.166736
     2  O   -0.255041
     3  O   -0.212788
     4  O   -0.205578
     5  O   -0.232118
     6  O   -0.202967
     7  N   -0.073334
     8  N   -0.217574
     9  N   -0.175135
    10  N   -0.376632
    11  C   -0.172293
    12  C    0.070410
    13  C   -0.071606
    14  C    0.026472
    15  C   -0.106216
    16  C    0.137525
    17  C   -0.032684
    18  C   -0.115526
    19  C    0.165980
    20  C   -0.116726
    21  C    0.117354
    22  C    0.134870
    23  C    0.028417
    24  C    0.056209
    25  C   -0.071193
    26  C    0.001389
    27  C    0.169210
    28  C    0.067639
    29  C    0.022428
    30  C    0.173541
    31  C   -0.089153
    32  C   -0.007878
    33  C   -0.208536
    34  C    0.116144
    35  C   -0.086778
    36  C   -0.239012
    37  C    0.135727
    38  C    0.041678
    39  C    0.166852
    40  C    0.195517
    41  C    0.193558
    42  C    0.048972
    43  C   -0.033365
    44  H    0.103353
    45  H   -0.010788
    46  H   -0.038391
    47  H   -0.002892
    48  H    0.085986
    49  H    0.018157
    50  H    0.027949
    51  H   -0.009656
    52  H    0.206238
    53  H    0.026840
    54  H    0.030223
    55  H    0.024502
    56  H    0.140713
    57  H    0.052543
    58  H    0.043700
    59  H    0.008988
    60  H   -0.003551
    61  H    0.029641
    62  H    0.024871
    63  H   -0.026012
    64  H   -0.067383
    65  H    0.061604
    66  H    0.035452
    67  H    0.023422
    68  H    0.024440
    69  H    0.079963
    70  H   -0.009207
    71  H    0.037394
    72  H   -0.012866
    73  H   -0.024828
    74  H    0.033143
    75  H    0.021192
    76  H    0.034711
    77  H    0.005510
    78  H    0.023274
    79  H   -0.002071
    80  H    0.189203
    81  H    0.213611
 Sum of Mulliken charges =  -0.00000

 Dipole moment (field-independent basis, Debye):
    X=             -2.4900    Y=              0.3650    Z=             -0.9621  Tot=              2.6942
 Quadrupole moment (field-independent basis, Debye-Ang):
   XX=           -243.8503   YY=           -243.1510   ZZ=           -255.7491
   XY=             11.8785   XZ=             15.8045   YZ=            -16.1927

 Normal termination of Gaussian 16 at Fri Jun 28 19:17:57 2019.
