 Gaussian 16, Revision A.03,
 Gaussian 16:  ES64L-G16RevA.03 25-Dec-2016

 --------------------------
 # td=(NStates=1) B3LYP/SVP
 --------------------------

 --
 TD
 --
 Symbolic Z-matrix:
 Charge =  0 Multiplicity = 1

                         Standard orientation:
 ---------------------------------------------------------------------
 Center     Atomic      Atomic             Coordinates (Angstroms)
 Number     Number       Type             X           Y           Z
 ---------------------------------------------------------------------
      1          8           0        4.309919   -4.851700   -1.647785
      2          8           0       -2.804184   -5.037348   -1.209897
      3          8           0       -6.959168   -1.495326   -1.913206
      4          8           0       -3.628786   -3.149100   -0.121152
      5          8           0       -7.568300   -0.661030    0.069383
      6          8           0        2.974420    2.466748    0.453421
      7          7           0        0.268210   -0.539802    0.607464
      8          7           0       -1.627694    1.948340    0.494702
      9          7           0        3.275934   -3.125832   -0.648149
     10          7           0        0.758616    2.970212   -0.064105
     11          6           0       -0.673293   -2.389240    1.447631
     12          6           0       -0.995034   -1.023895    1.018475
     13          6           0        0.783394   -2.615106    1.292917
     14          6           0        1.362896   -1.427730    0.731776
     15          6           0       -3.833401    1.535065    0.318307
     16          6           0       -2.563729    0.844104    0.669289
     17          6           0       -2.183599   -0.493675    0.901755
     18          6           0       -3.606503    2.797532   -0.024847
     19          6           0       -1.744714   -3.318480    1.960555
     20          6           0        5.529630   -2.739907   -1.387430
     21          6           0        3.590794   -1.882960   -0.239662
     22          6           0       -2.194352    3.091657    0.080250
     23          6           0        4.993202   -1.596834   -0.486977
     24          6           0       -5.168665    0.722696    0.360211
     25          6           0        2.615211   -1.030313    0.356029
     26          6           0        1.510493   -3.926188    1.779980
     27          6           0        4.375083   -3.819959   -1.298041
     28          6           0       -1.903427   -4.528244    0.956209
     29          6           0       -5.324806   -0.232079   -0.769466
     30          6           0       -4.643928    3.864304   -0.338225
     31          6           0       -1.318937    4.089179   -0.309795
     32          6           0        6.955539   -3.324923   -0.904294
     33          6           0        5.673458   -0.558444   -0.047650
     34          6           0        0.102157    4.113700   -0.304309
     35          6           0        1.034502    5.248205   -0.571643
     36          6           0        2.235603    4.721629   -0.243381
     37          6           0       -2.934237   -4.176143   -0.140369
     38          6           0        5.468814    0.612332    0.753989
     39          6           0       -6.708045   -0.830323   -0.803226
     40          6           0        3.639591    5.313095   -0.318688
     41          6           0        2.082410    3.248612    0.093084
     42          6           0        0.712490    6.658714   -0.974995
     43          6           0        4.249042    5.566511    1.013433
     44          1           0        0.366195    0.404823   -0.018922
     45          1           0       -2.989569   -1.213054    1.134338
     46          1           0       -2.763433   -2.676450    2.085884
     47          1           0       -1.324790   -3.815821    2.884342
     48          1           0        5.393802   -2.441597   -2.302412
     49          1           0       -5.099289    0.050472    1.109547
     50          1           0       -5.964469    1.403439    0.505133
     51          1           0        2.745523    0.211361    0.311599
     52          1           0       -0.554757    1.803853    0.643242
     53          1           0        1.519803   -4.705118    0.758126
     54          1           0        2.534290   -3.713634    2.116324
     55          1           0        0.960676   -4.554269    2.658795
     56          1           0        2.290896   -3.504275   -0.582646
     57          1           0       -0.959217   -4.702773    0.578637
     58          1           0       -2.295352   -5.515358    1.476683
     59          1           0       -4.660782   -0.987536   -0.638365
     60          1           0       -5.038585    0.130688   -1.872268
     61          1           0       -4.314969    4.751693    0.335425
     62          1           0       -5.683706    3.594296   -0.234707
     63          1           0       -4.492059    4.125203   -1.381810
     64          1           0       -1.933405    4.907645   -0.842195
     65          1           0        7.747676   -2.426777   -0.861212
     66          1           0        7.252553   -4.044816   -1.735475
     67          1           0        6.992490   -3.689751   -0.048643
     68          1           0        6.809918   -0.813229   -0.203748
     69          1           0        4.610777    1.414556    0.573259
     70          1           0        6.281916    1.271194    1.262322
     71          1           0        5.063211    0.213133    1.850056
     72          1           0        3.519933    6.277875   -0.995296
     73          1           0        4.293606    4.707846   -0.783419
     74          1           0       -0.006897    6.727876   -1.743757
     75          1           0        1.666051    7.189953   -1.335431
     76          1           0        0.153827    7.237368   -0.180136
     77          1           0        3.682213    6.368393    1.671756
     78          1           0        5.238398    5.964568    0.742204
     79          1           0        4.272804    4.803187    1.579787
     80          1           0       -3.537798   -4.758387   -1.917594
     81          1           0       -7.799984   -2.022316   -1.800273
 ---------------------------------------------------------------------

 SCF Done:  E(RB3LYP) =  -1949.04261617     A.U. after   17 cycles

 Excitation energies and oscillator strengths:

 Excited State   1:      Singlet-A      1.6882 eV  734.43 nm  f=0.3491  <S**2>=0.000
     156 ->157         0.71246
     156 <-157        -0.13655
 This state for optimization and/or second-order correction.
 Total Energy, E(TD-HF/TD-DFT) =  -1948.98057694
 Copying the excited state density for this state as the 1-particle RhoCI density.

 The electronic state is 1-A.
 Alpha  occ. eigenvalues --  -19.20761 -19.18673 -19.15245 -19.14182 -19.11576
 Alpha  occ. eigenvalues --  -19.09768 -14.37010 -14.36989 -14.35221 -14.27605
 Alpha  occ. eigenvalues --  -10.34508 -10.31502 -10.30385 -10.25467 -10.24788
 Alpha  occ. eigenvalues --  -10.23819 -10.23427 -10.22995 -10.22786 -10.22490
 Alpha  occ. eigenvalues --  -10.22414 -10.22371 -10.22108 -10.21228 -10.20932
 Alpha  occ. eigenvalues --  -10.20885 -10.20684 -10.20444 -10.20261 -10.19994
 Alpha  occ. eigenvalues --  -10.19606 -10.19520 -10.19517 -10.19315 -10.19274
 Alpha  occ. eigenvalues --  -10.19107 -10.19083 -10.18802 -10.18516 -10.18205
 Alpha  occ. eigenvalues --  -10.17705 -10.17652 -10.16140  -1.12543  -1.09855
 Alpha  occ. eigenvalues --   -1.09175  -1.01297  -0.99998  -0.98913  -0.96478
 Alpha  occ. eigenvalues --   -0.96158  -0.94920  -0.91305  -0.82232  -0.82104
 Alpha  occ. eigenvalues --   -0.81502  -0.80531  -0.79109  -0.78094  -0.77512
 Alpha  occ. eigenvalues --   -0.76354  -0.75859  -0.75188  -0.74190  -0.71340
 Alpha  occ. eigenvalues --   -0.70420  -0.69791  -0.68454  -0.67806  -0.67442
 Alpha  occ. eigenvalues --   -0.66502  -0.65984  -0.64641  -0.62621  -0.61262
 Alpha  occ. eigenvalues --   -0.59892  -0.59757  -0.59612  -0.57873  -0.55610
 Alpha  occ. eigenvalues --   -0.55113  -0.54498  -0.53413  -0.53172  -0.52665
 Alpha  occ. eigenvalues --   -0.51762  -0.51575  -0.51080  -0.50486  -0.50002
 Alpha  occ. eigenvalues --   -0.49731  -0.49296  -0.48513  -0.48220  -0.47639
 Alpha  occ. eigenvalues --   -0.47321  -0.47045  -0.46726  -0.46275  -0.45372
 Alpha  occ. eigenvalues --   -0.45049  -0.44547  -0.44079  -0.43852  -0.43452
 Alpha  occ. eigenvalues --   -0.43099  -0.42913  -0.42739  -0.42413  -0.42234
 Alpha  occ. eigenvalues --   -0.41754  -0.41548  -0.41452  -0.40723  -0.40390
 Alpha  occ. eigenvalues --   -0.40227  -0.39775  -0.39639  -0.39621  -0.39415
 Alpha  occ. eigenvalues --   -0.39265  -0.39051  -0.38691  -0.38586  -0.38386
 Alpha  occ. eigenvalues --   -0.38164  -0.37471  -0.37312  -0.37175  -0.37058
 Alpha  occ. eigenvalues --   -0.36649  -0.36003  -0.35400  -0.35227  -0.34666
 Alpha  occ. eigenvalues --   -0.34460  -0.34112  -0.33776  -0.32780  -0.32437
 Alpha  occ. eigenvalues --   -0.32062  -0.31564  -0.30774  -0.30500  -0.30097
 Alpha  occ. eigenvalues --   -0.28511  -0.27395  -0.26939  -0.25987  -0.25421
 Alpha  occ. eigenvalues --   -0.24501  -0.24002  -0.23346  -0.22631  -0.20969
 Alpha  occ. eigenvalues --   -0.16570
 Alpha virt. eigenvalues --   -0.09915  -0.05629  -0.03799  -0.02715   0.00539
 Alpha virt. eigenvalues --    0.01198   0.01422   0.01929   0.02619   0.04007
 Alpha virt. eigenvalues --    0.04404   0.04709   0.05125   0.05507   0.05914

 Mulliken charges:
               1
     1  O   -0.039377
     2  O   -0.236475
     3  O   -0.168703
     4  O   -0.240233
     5  O   -0.262356
     6  O   -0.247677
     7  N   -0.213858
     8  N   -0.167841
     9  N   -0.161619
    10  N   -0.283555
    11  C   -0.126996
    12  C    0.141690
    13  C   -0.155040
    14  C    0.143836
    15  C   -0.100302
    16  C    0.049012
    17  C   -0.054615
    18  C   -0.148068
    19  C    0.059058
    20  C    0.001952
    21  C    0.063129
    22  C    0.063816
    23  C   -0.021886
    24  C    0.249738
    25  C   -0.207723
    26  C   -0.029541
    27  C    0.081945
    28  C    0.014825
    29  C    0.001213
    30  C    0.104313
    31  C   -0.129066
    32  C    0.098481
    33  C   -0.093684
    34  C    0.090279
    35  C   -0.079256
    36  C   -0.201951
    37  C    0.173818
    38  C   -0.082264
    39  C    0.123097
    40  C    0.116865
    41  C    0.167510
    42  C    0.115369
    43  C    0.064325
    44  H    0.181111
    45  H    0.006912
    46  H    0.055124
    47  H    0.014540
    48  H   -0.009990
    49  H   -0.038044
    50  H   -0.004976
    51  H    0.092447
    52  H    0.165937
    53  H    0.039698
    54  H    0.048146
    55  H    0.047480
    56  H    0.148686
    57  H    0.014820
    58  H    0.058465
    59  H   -0.003292
    60  H    0.039927
    61  H    0.041701
    62  H    0.013892
    63  H    0.015597
    64  H   -0.019221
    65  H    0.041759
    66  H    0.042204
    67  H   -0.041522
    68  H    0.001525
    69  H    0.109438
    70  H    0.025688
    71  H    0.030507
    72  H   -0.006088
    73  H   -0.028191
    74  H   -0.007622
    75  H    0.026635
    76  H    0.025643
    77  H    0.004711
    78  H    0.005531
    79  H   -0.031145
    80  H    0.224623
    81  H    0.195161
 Sum of Mulliken charges =  -0.00000

 Dipole moment (field-independent basis, Debye):
    X=             -0.4075    Y=             -3.3687    Z=             -2.0868  Tot=              3.9836
 Quadrupole moment (field-independent basis, Debye-Ang):
   XX=           -248.8315   YY=           -235.3796   ZZ=           -251.8243
   XY=              8.7951   XZ=             13.5112   YZ=             -7.2323

 Normal termination of Gaussian 16 at Sat Jun 29 21:32:35 2019.
