 Gaussian 16, Revision A.03,
 Gaussian 16:  ES64L-G16RevA.03 25-Dec-2016

 --------------------------
 # td=(NStates=1) B3LYP/SVP
 --------------------------

 --
 TD
 --
 Symbolic Z-matrix:
 Charge =  0 Multiplicity = 1

                         Standard orientation:
 ---------------------------------------------------------------------
 Center     Atomic      Atomic             Coordinates (Angstroms)
 Number     Number       Type             X           Y           Z
 ---------------------------------------------------------------------
      1          8           0        3.868335   -4.943999   -1.981099
      2          8           0       -3.294961   -4.698225   -1.010191
      3          8           0       -6.925155   -1.103589   -2.053395
      4          8           0       -4.136488   -3.030700    0.212982
      5          8           0       -7.577167   -0.410962    0.003966
      6          8           0        3.172790    2.344819    0.391129
      7          7           0        0.300435   -0.571376    0.674470
      8          7           0       -1.373151    1.893772    0.363772
      9          7           0        3.005155   -3.285341   -0.676956
     10          7           0        1.047357    2.866480   -0.103014
     11          6           0       -0.733362   -2.376834    1.530311
     12          6           0       -0.960231   -1.039415    1.069555
     13          6           0        0.657377   -2.679028    1.442218
     14          6           0        1.264452   -1.486614    0.848260
     15          6           0       -3.615411    1.645955    0.262362
     16          6           0       -2.361111    1.015811    0.579173
     17          6           0       -2.193609   -0.353589    0.916408
     18          6           0       -3.402022    2.981522   -0.069006
     19          6           0       -1.790226   -3.219347    2.082410
     20          6           0        5.183512   -2.990059   -1.480543
     21          6           0        3.475999   -2.021644   -0.244842
     22          6           0       -1.881574    3.078720   -0.059699
     23          6           0        4.845822   -1.818474   -0.552392
     24          6           0       -5.092232    1.079282    0.271256
     25          6           0        2.607132   -1.069953    0.450245
     26          6           0        1.327257   -3.884994    1.840758
     27          6           0        4.013889   -3.902986   -1.348384
     28          6           0       -2.296388   -4.399873    1.008680
     29          6           0       -5.277821    0.170768   -0.925502
     30          6           0       -4.418472    4.056931   -0.415584
     31          6           0       -0.980860    4.199562   -0.357663
     32          6           0        6.488147   -3.680107   -1.161599
     33          6           0        5.767033   -0.816599   -0.141326
     34          6           0        0.341008    4.013619   -0.285454
     35          6           0        1.384880    5.123907   -0.448047
     36          6           0        2.598051    4.578113   -0.316603
     37          6           0       -3.233371   -3.874779    0.093049
     38          6           0        5.462400    0.295694    0.851015
     39          6           0       -6.693276   -0.483232   -0.901885
     40          6           0        3.999782    5.084320   -0.279830
     41          6           0        2.308641    3.137842    0.029527
     42          6           0        0.977639    6.555608   -0.710417
     43          6           0        4.595746    5.074722    1.187665
     44          1           0        0.490878    0.327681    0.194949
     45          1           0       -3.217788   -0.970965    1.325584
     46          1           0       -2.779283   -2.724256    2.493958
     47          1           0       -1.402745   -3.713424    2.950950
     48          1           0        5.232743   -2.740863   -2.514658
     49          1           0       -5.070518    0.384422    1.226759
     50          1           0       -5.781746    1.924559    0.428976
     51          1           0        2.783933   -0.038457    0.467121
     52          1           0       -0.298516    1.794040    0.339801
     53          1           0        1.339378   -4.541548    0.976235
     54          1           0        2.500426   -3.603852    2.089744
     55          1           0        0.815147   -4.359259    2.748009
     56          1           0        2.191962   -3.695430   -0.738053
     57          1           0       -1.355150   -4.777921    0.458667
     58          1           0       -2.867454   -5.091675    1.353924
     59          1           0       -4.653383   -0.527839   -1.131349
     60          1           0       -5.239118    0.988571   -1.806328
     61          1           0       -3.701327    5.170444   -0.298130
     62          1           0       -5.344674    3.906250    0.246743
     63          1           0       -4.631478    3.706539   -1.831031
     64          1           0       -1.417500    5.225289   -0.737423
     65          1           0        7.459003   -3.077617   -1.351864
     66          1           0        6.481125   -4.502390   -1.908875
     67          1           0        6.569041   -3.910507   -0.063298
     68          1           0        6.721398   -1.032672   -0.348003
     69          1           0        4.937344    1.155791    0.408455
     70          1           0        6.341718    0.641962    1.129908
     71          1           0        4.645609   -0.007849    1.608633
     72          1           0        3.795213    5.946142   -0.531365
     73          1           0        4.729465    4.652040   -1.060253
     74          1           0        0.173185    6.551653   -1.654534
     75          1           0        1.804292    7.080035   -0.929823
     76          1           0        0.224276    6.969074    0.071530
     77          1           0        4.187064    5.798557    1.946564
     78          1           0        5.753875    5.339191    1.148228
     79          1           0        4.610299    4.117972    1.596458
     80          1           0       -4.169122   -4.550248   -1.508590
     81          1           0       -7.787800   -1.366021   -1.697368
 ---------------------------------------------------------------------

 SCF Done:  E(RB3LYP) =  -1949.00136536     A.U. after   22 cycles

 Excitation energies and oscillator strengths:

 Excited State   1:      Singlet-A      1.8290 eV  677.86 nm  f=0.3638  <S**2>=0.000
     156 ->157         0.70769
     156 <-157        -0.11555
 This state for optimization and/or second-order correction.
 Total Energy, E(TD-HF/TD-DFT) =  -1948.93414930
 Copying the excited state density for this state as the 1-particle RhoCI density.

 The electronic state is 1-A.
 Alpha  occ. eigenvalues --  -19.19748 -19.18614 -19.14147 -19.13512 -19.10914
 Alpha  occ. eigenvalues --  -19.08158 -14.38690 -14.37642 -14.37218 -14.27940
 Alpha  occ. eigenvalues --  -10.33526 -10.33108 -10.28939 -10.26063 -10.25848
 Alpha  occ. eigenvalues --  -10.25350 -10.24543 -10.24158 -10.23930 -10.23863
 Alpha  occ. eigenvalues --  -10.23617 -10.22617 -10.22218 -10.22074 -10.21705
 Alpha  occ. eigenvalues --  -10.21569 -10.21178 -10.21046 -10.20974 -10.20718
 Alpha  occ. eigenvalues --  -10.20711 -10.20670 -10.20559 -10.20165 -10.20037
 Alpha  occ. eigenvalues --  -10.19857 -10.19647 -10.19632 -10.19096 -10.17674
 Alpha  occ. eigenvalues --  -10.17524 -10.17389 -10.16956  -1.12251  -1.09305
 Alpha  occ. eigenvalues --   -1.04220  -1.00327  -0.99703  -0.99629  -0.99120
 Alpha  occ. eigenvalues --   -0.98778  -0.96311  -0.91805  -0.83644  -0.82997
 Alpha  occ. eigenvalues --   -0.82087  -0.81143  -0.80254  -0.79644  -0.78564
 Alpha  occ. eigenvalues --   -0.77673  -0.76931  -0.75226  -0.74403  -0.73398
 Alpha  occ. eigenvalues --   -0.71458  -0.70234  -0.69757  -0.68024  -0.67595
 Alpha  occ. eigenvalues --   -0.67135  -0.66121  -0.65006  -0.62726  -0.61719
 Alpha  occ. eigenvalues --   -0.60480  -0.59238  -0.58819  -0.58321  -0.57623
 Alpha  occ. eigenvalues --   -0.57185  -0.55696  -0.55398  -0.55095  -0.53010
 Alpha  occ. eigenvalues --   -0.52702  -0.51702  -0.51551  -0.51048  -0.50880
 Alpha  occ. eigenvalues --   -0.49643  -0.49591  -0.49102  -0.48854  -0.48156
 Alpha  occ. eigenvalues --   -0.47914  -0.47009  -0.46005  -0.45857  -0.45532
 Alpha  occ. eigenvalues --   -0.45274  -0.44819  -0.44532  -0.44106  -0.44005
 Alpha  occ. eigenvalues --   -0.43518  -0.43326  -0.42831  -0.42638  -0.42386
 Alpha  occ. eigenvalues --   -0.41963  -0.41835  -0.41665  -0.41212  -0.41140
 Alpha  occ. eigenvalues --   -0.40824  -0.40443  -0.39993  -0.39851  -0.39762
 Alpha  occ. eigenvalues --   -0.39308  -0.39147  -0.38868  -0.38366  -0.38189
 Alpha  occ. eigenvalues --   -0.37760  -0.37552  -0.37327  -0.37195  -0.37134
 Alpha  occ. eigenvalues --   -0.36830  -0.36602  -0.35370  -0.35312  -0.35160
 Alpha  occ. eigenvalues --   -0.35046  -0.34591  -0.33777  -0.32981  -0.32926
 Alpha  occ. eigenvalues --   -0.32862  -0.32372  -0.32259  -0.29914  -0.29306
 Alpha  occ. eigenvalues --   -0.28949  -0.26738  -0.26499  -0.26051  -0.25694
 Alpha  occ. eigenvalues --   -0.25274  -0.24822  -0.23257  -0.22990  -0.21659
 Alpha  occ. eigenvalues --   -0.18033
 Alpha virt. eigenvalues --   -0.10694  -0.06385  -0.04399  -0.02347  -0.02001
 Alpha virt. eigenvalues --   -0.00780  -0.00294   0.01997   0.02405   0.02740
 Alpha virt. eigenvalues --    0.03368   0.04029   0.04409   0.05203   0.06425

 Mulliken charges:
               1
     1  O   -0.231971
     2  O   -0.241081
     3  O   -0.135606
     4  O   -0.263974
     5  O   -0.295562
     6  O   -0.247877
     7  N   -0.074275
     8  N   -0.064039
     9  N   -0.023321
    10  N   -0.245534
    11  C   -0.058505
    12  C    0.057836
    13  C   -0.152325
    14  C    0.047748
    15  C   -0.124438
    16  C    0.071076
    17  C   -0.112776
    18  C   -0.097557
    19  C    0.027625
    20  C   -0.030372
    21  C    0.086356
    22  C    0.046442
    23  C   -0.033706
    24  C    0.092643
    25  C   -0.076453
    26  C    0.037119
    27  C    0.077359
    28  C    0.086459
    29  C    0.061050
    30  C   -0.073767
    31  C   -0.179531
    32  C   -0.001282
    33  C   -0.057334
    34  C    0.135674
    35  C   -0.115536
    36  C   -0.224000
    37  C    0.143450
    38  C    0.112182
    39  C    0.173382
    40  C    0.259751
    41  C    0.092984
    42  C    0.095789
    43  C   -0.030729
    44  H    0.142090
    45  H    0.086874
    46  H    0.043561
    47  H   -0.000370
    48  H    0.038083
    49  H    0.032266
    50  H    0.017564
    51  H   -0.003773
    52  H    0.159735
    53  H    0.022596
    54  H    0.056594
    55  H    0.036049
    56  H    0.075172
    57  H    0.060720
    58  H   -0.004388
    59  H   -0.017871
    60  H    0.053601
    61  H    0.075387
    62  H    0.075449
    63  H    0.057419
    64  H    0.009624
    65  H    0.027688
    66  H    0.038094
    67  H    0.021839
    68  H   -0.051732
    69  H    0.066393
    70  H   -0.032969
    71  H    0.042943
    72  H   -0.118163
    73  H    0.025020
    74  H    0.024700
    75  H   -0.007862
    76  H    0.035116
    77  H    0.017381
    78  H    0.001813
    79  H    0.020284
    80  H    0.207187
    81  H    0.152509
 Sum of Mulliken charges =  -0.00000

 Dipole moment (field-independent basis, Debye):
    X=             -1.9235    Y=             -0.5055    Z=              0.0910  Tot=              1.9909
 Quadrupole moment (field-independent basis, Debye-Ang):
   XX=           -255.5247   YY=           -246.5263   ZZ=           -257.2255
   XY=             10.4835   XZ=              9.6835   YZ=            -14.4939

 Normal termination of Gaussian 16 at Mon Jul  1 03:24:21 2019.
