 Gaussian 16, Revision A.03,
 Gaussian 16:  ES64L-G16RevA.03 25-Dec-2016

 --------------------------
 # td=(NStates=1) B3LYP/SVP
 --------------------------

 --
 TD
 --
 Symbolic Z-matrix:
 Charge =  0 Multiplicity = 1

                         Standard orientation:
 ---------------------------------------------------------------------
 Center     Atomic      Atomic             Coordinates (Angstroms)
 Number     Number       Type             X           Y           Z
 ---------------------------------------------------------------------
      1          8           0        4.066477   -5.034208   -1.672105
      2          8           0       -3.327008   -4.647028   -1.240338
      3          8           0       -7.061386   -1.437327   -1.712052
      4          8           0       -3.935907   -2.884552   -0.023680
      5          8           0       -7.647681   -0.414971    0.184158
      6          8           0        3.156513    2.300276    0.545530
      7          7           0        0.242596   -0.515380    0.669206
      8          7           0       -1.484363    1.842580    0.364368
      9          7           0        3.132438   -3.230488   -0.651820
     10          7           0        0.923518    2.915640    0.117743
     11          6           0       -0.667684   -2.437105    1.406262
     12          6           0       -0.975459   -0.983415    0.997360
     13          6           0        0.692186   -2.649258    1.249447
     14          6           0        1.302897   -1.469884    0.727377
     15          6           0       -3.775012    1.608046    0.222108
     16          6           0       -2.465426    0.962007    0.576202
     17          6           0       -2.285843   -0.359201    0.866975
     18          6           0       -3.492265    2.962142   -0.112139
     19          6           0       -1.693883   -3.377456    1.944755
     20          6           0        5.411526   -2.900973   -1.508181
     21          6           0        3.531302   -1.810257   -0.216769
     22          6           0       -1.993714    3.078496   -0.109210
     23          6           0        4.908096   -1.748750   -0.581481
     24          6           0       -5.127878    0.973468    0.288532
     25          6           0        2.631105   -1.041372    0.436081
     26          6           0        1.383275   -3.924370    1.915802
     27          6           0        4.158204   -3.889159   -1.300320
     28          6           0       -2.335395   -4.356316    0.888799
     29          6           0       -5.422119    0.046080   -0.766629
     30          6           0       -4.379160    4.032440   -0.482630
     31          6           0       -1.148228    4.154166   -0.361878
     32          6           0        6.623208   -3.619316   -1.047867
     33          6           0        5.789299   -0.830923   -0.089620
     34          6           0        0.274796    4.050394   -0.194532
     35          6           0        1.315056    5.127902   -0.497766
     36          6           0        2.524209    4.558866   -0.209736
     37          6           0       -3.258939   -3.853685   -0.133236
     38          6           0        5.582048    0.265047    0.820394
     39          6           0       -6.849535   -0.534631   -0.733745
     40          6           0        3.994430    5.173703   -0.267412
     41          6           0        2.267303    3.182632    0.147623
     42          6           0        0.959518    6.523090   -0.950826
     43          6           0        4.644903    5.339367    1.054190
     44          1           0        0.479124    0.433780    0.325429
     45          1           0       -2.979572   -0.990315    1.013446
     46          1           0       -2.439800   -2.740594    2.445402
     47          1           0       -1.230221   -3.828967    2.803221
     48          1           0        5.603493   -2.747049   -2.566718
     49          1           0       -5.085864    0.268447    1.062648
     50          1           0       -5.914696    1.699904    0.414168
     51          1           0        2.892839   -0.016565    0.468963
     52          1           0       -0.456579    1.982327    0.582338
     53          1           0        1.205005   -4.804657    1.274228
     54          1           0        2.338297   -3.443500    1.893331
     55          1           0        0.779619   -4.129249    2.975844
     56          1           0        2.174634   -3.552376   -0.566939
     57          1           0       -1.498721   -4.712651    0.207090
     58          1           0       -2.484881   -5.569940    1.434676
     59          1           0       -4.550313   -0.629144   -0.872688
     60          1           0       -5.514989    0.603013   -1.715816
     61          1           0       -3.878983    5.066060   -0.015146
     62          1           0       -5.375693    4.012646    0.188937
     63          1           0       -4.920696    3.671581   -1.724782
     64          1           0       -1.614502    5.121917   -0.726482
     65          1           0        7.545013   -3.150549   -1.493808
     66          1           0        6.848108   -4.549083   -1.500459
     67          1           0        6.998623   -3.942076    0.060584
     68          1           0        6.830073   -0.826377   -0.407801
     69          1           0        5.257570    1.241258    0.440208
     70          1           0        6.541250    0.596133    1.202496
     71          1           0        4.809694    0.141175    1.663723
     72          1           0        3.933829    5.916883   -1.114790
     73          1           0        4.575567    4.397137   -0.885437
     74          1           0        0.286024    6.399912   -1.896928
     75          1           0        1.899587    7.201142   -1.241683
     76          1           0        0.404920    7.184030   -0.275660
     77          1           0        4.119565    6.249884    1.393142
     78          1           0        5.769660    5.232924    0.948122
     79          1           0        4.323141    4.457855    1.642125
     80          1           0       -4.015230   -4.176318   -1.770467
     81          1           0       -8.099182   -1.723230   -1.680672
 ---------------------------------------------------------------------

 SCF Done:  E(RB3LYP) =  -1949.06448006     A.U. after   19 cycles

 Excitation energies and oscillator strengths:

 Excited State   1:      Singlet-A      1.6263 eV  762.38 nm  f=0.3032  <S**2>=0.000
     156 ->157         0.71270
     156 <-157        -0.14258
 This state for optimization and/or second-order correction.
 Total Energy, E(TD-HF/TD-DFT) =  -1949.00471530
 Copying the excited state density for this state as the 1-particle RhoCI density.

 The electronic state is 1-A.
 Alpha  occ. eigenvalues --  -19.19320 -19.18964 -19.14627 -19.12773 -19.10132
 Alpha  occ. eigenvalues --  -19.09735 -14.38340 -14.36470 -14.35592 -14.29996
 Alpha  occ. eigenvalues --  -10.33678 -10.32393 -10.28157 -10.26689 -10.24997
 Alpha  occ. eigenvalues --  -10.24494 -10.24365 -10.24259 -10.24188 -10.24107
 Alpha  occ. eigenvalues --  -10.24091 -10.24028 -10.21646 -10.21352 -10.21316
 Alpha  occ. eigenvalues --  -10.21308 -10.21291 -10.21223 -10.21027 -10.20569
 Alpha  occ. eigenvalues --  -10.20492 -10.20457 -10.20254 -10.20138 -10.20132
 Alpha  occ. eigenvalues --  -10.19770 -10.19586 -10.19259 -10.19190 -10.18936
 Alpha  occ. eigenvalues --  -10.18599 -10.18219 -10.17252  -1.11799  -1.08831
 Alpha  occ. eigenvalues --   -1.02673  -1.02326  -0.99441  -0.98521  -0.97826
 Alpha  occ. eigenvalues --   -0.97089  -0.91789  -0.91581  -0.83607  -0.81999
 Alpha  occ. eigenvalues --   -0.81831  -0.81354  -0.79634  -0.79399  -0.78276
 Alpha  occ. eigenvalues --   -0.77485  -0.76657  -0.75662  -0.75037  -0.72505
 Alpha  occ. eigenvalues --   -0.70874  -0.70233  -0.69547  -0.68695  -0.67559
 Alpha  occ. eigenvalues --   -0.66990  -0.65570  -0.63664  -0.61990  -0.60892
 Alpha  occ. eigenvalues --   -0.60050  -0.59760  -0.58984  -0.57620  -0.56975
 Alpha  occ. eigenvalues --   -0.55888  -0.55501  -0.55073  -0.53281  -0.52987
 Alpha  occ. eigenvalues --   -0.52270  -0.51579  -0.51543  -0.50916  -0.50180
 Alpha  occ. eigenvalues --   -0.49721  -0.49307  -0.48558  -0.47840  -0.47400
 Alpha  occ. eigenvalues --   -0.47129  -0.47043  -0.46329  -0.45892  -0.45377
 Alpha  occ. eigenvalues --   -0.44870  -0.44736  -0.44526  -0.43969  -0.43760
 Alpha  occ. eigenvalues --   -0.43535  -0.43262  -0.42997  -0.42668  -0.42566
 Alpha  occ. eigenvalues --   -0.42345  -0.42084  -0.41633  -0.41168  -0.40728
 Alpha  occ. eigenvalues --   -0.40199  -0.40097  -0.39863  -0.39607  -0.39470
 Alpha  occ. eigenvalues --   -0.39313  -0.38692  -0.38555  -0.38318  -0.38147
 Alpha  occ. eigenvalues --   -0.37908  -0.37782  -0.37389  -0.37198  -0.36788
 Alpha  occ. eigenvalues --   -0.35310  -0.34987  -0.34618  -0.34572  -0.34344
 Alpha  occ. eigenvalues --   -0.34243  -0.34083  -0.33373  -0.33040  -0.32804
 Alpha  occ. eigenvalues --   -0.32558  -0.32146  -0.31447  -0.30173  -0.29515
 Alpha  occ. eigenvalues --   -0.28068  -0.27856  -0.26508  -0.25682  -0.25345
 Alpha  occ. eigenvalues --   -0.25015  -0.24625  -0.24354  -0.23873  -0.22225
 Alpha  occ. eigenvalues --   -0.17764
 Alpha virt. eigenvalues --   -0.11402  -0.06764  -0.04426  -0.03142  -0.01005
 Alpha virt. eigenvalues --   -0.00526   0.01013   0.01645   0.02016   0.02881
 Alpha virt. eigenvalues --    0.03344   0.03842   0.04374   0.05107   0.06239

 Mulliken charges:
               1
     1  O   -0.210770
     2  O   -0.194617
     3  O   -0.237843
     4  O   -0.200013
     5  O   -0.238019
     6  O   -0.305813
     7  N   -0.087107
     8  N   -0.115613
     9  N   -0.190849
    10  N   -0.283114
    11  C   -0.166188
    12  C    0.013154
    13  C   -0.176834
    14  C    0.069857
    15  C   -0.119100
    16  C    0.152947
    17  C    0.075107
    18  C   -0.081639
    19  C    0.167661
    20  C    0.003308
    21  C    0.134086
    22  C    0.077204
    23  C    0.014119
    24  C    0.216753
    25  C   -0.080150
    26  C    0.056671
    27  C    0.123253
    28  C   -0.070062
    29  C   -0.032531
    30  C   -0.071462
    31  C   -0.111045
    32  C   -0.002417
    33  C   -0.115057
    34  C    0.063357
    35  C   -0.080632
    36  C   -0.174484
    37  C    0.154496
    38  C    0.059403
    39  C    0.150312
    40  C    0.036098
    41  C    0.174138
    42  C    0.018487
    43  C    0.059255
    44  H    0.143228
    45  H   -0.135759
    46  H    0.014174
    47  H   -0.021974
    48  H    0.033546
    49  H   -0.011595
    50  H   -0.002476
    51  H   -0.006939
    52  H    0.167116
    53  H    0.039016
    54  H    0.049720
    55  H    0.053703
    56  H    0.127506
    57  H    0.044856
    58  H    0.087241
    59  H    0.062193
    60  H    0.005506
    61  H    0.064151
    62  H    0.045873
    63  H    0.070364
    64  H   -0.000264
    65  H   -0.008327
    66  H    0.000069
    67  H    0.032542
    68  H   -0.008876
    69  H    0.051985
    70  H   -0.011553
    71  H    0.040379
    72  H   -0.002744
    73  H    0.001004
    74  H    0.038767
    75  H    0.034890
    76  H    0.034001
    77  H    0.018582
    78  H    0.028466
    79  H    0.029271
    80  H    0.189314
    81  H    0.228731
 Sum of Mulliken charges =  -0.00000

 Dipole moment (field-independent basis, Debye):
    X=             -3.1669    Y=              2.1444    Z=             -1.0712  Tot=              3.9718
 Quadrupole moment (field-independent basis, Debye-Ang):
   XX=           -245.3905   YY=           -246.5966   ZZ=           -254.9510
   XY=             15.3732   XZ=             13.3047   YZ=            -13.4801

 Normal termination of Gaussian 16 at Thu Jun 27 02:06:56 2019.
