 Gaussian 16, Revision A.03,
 Gaussian 16:  ES64L-G16RevA.03 25-Dec-2016

 --------------------------
 # td=(NStates=1) B3LYP/SVP
 --------------------------

 --
 TD
 --
 Symbolic Z-matrix:
 Charge =  0 Multiplicity = 1

                         Standard orientation:
 ---------------------------------------------------------------------
 Center     Atomic      Atomic             Coordinates (Angstroms)
 Number     Number       Type             X           Y           Z
 ---------------------------------------------------------------------
      1          8           0        4.227928   -4.768002   -1.938214
      2          8           0       -2.846609   -5.103689   -0.872610
      3          8           0       -6.968923   -1.430711   -1.996847
      4          8           0       -3.760593   -3.168211    0.052988
      5          8           0       -7.687181   -0.433654   -0.108765
      6          8           0        2.949142    2.229771    0.464421
      7          7           0        0.236525   -0.517759    0.496517
      8          7           0       -1.636284    1.860356    0.443366
      9          7           0        3.214321   -3.044648   -0.739228
     10          7           0        0.746701    2.827791    0.138823
     11          6           0       -0.591377   -2.388174    1.510424
     12          6           0       -0.936259   -1.107128    0.997502
     13          6           0        0.753039   -2.556935    1.161323
     14          6           0        1.257550   -1.373210    0.604879
     15          6           0       -3.841122    1.454372    0.260415
     16          6           0       -2.566432    0.900878    0.615396
     17          6           0       -2.316116   -0.509899    0.946002
     18          6           0       -3.533914    2.837727   -0.170272
     19          6           0       -1.516545   -3.313214    2.119925
     20          6           0        5.421710   -2.660341   -1.340708
     21          6           0        3.607473   -1.811590   -0.347007
     22          6           0       -2.207963    3.013057   -0.076215
     23          6           0        4.982229   -1.530453   -0.466541
     24          6           0       -5.137700    0.776804    0.320058
     25          6           0        2.577322   -0.968505    0.283874
     26          6           0        1.461944   -3.778499    1.781853
     27          6           0        4.307920   -3.692889   -1.479762
     28          6           0       -1.896891   -4.404967    1.247727
     29          6           0       -5.454160   -0.201444   -0.879146
     30          6           0       -4.315140    4.015058   -0.425160
     31          6           0       -1.317398    4.173473   -0.290576
     32          6           0        6.855757   -3.337513   -1.025238
     33          6           0        5.770807   -0.581552   -0.073835
     34          6           0        0.154249    4.056632   -0.201204
     35          6           0        1.166443    5.049583   -0.413704
     36          6           0        2.307454    4.541969   -0.223782
     37          6           0       -2.941827   -4.105612    0.090884
     38          6           0        5.479122    0.604925    0.840798
     39          6           0       -6.812403   -0.691630   -0.898799
     40          6           0        3.732124    5.207950   -0.310703
     41          6           0        2.135233    3.087935   -0.006184
     42          6           0        0.845321    6.524352   -0.859321
     43          6           0        4.265154    5.331100    1.188156
     44          1           0        0.198700    0.490191    0.265694
     45          1           0       -3.077395   -1.207665    0.900640
     46          1           0       -2.420176   -2.697802    2.517582
     47          1           0       -1.107203   -3.991104    2.994271
     48          1           0        5.644637   -2.315414   -2.376961
     49          1           0       -5.005095    0.296717    1.268418
     50          1           0       -6.098240    1.601209    0.214898
     51          1           0        2.893388   -0.035478    0.431076
     52          1           0       -0.675737    1.727679    0.567928
     53          1           0        1.456549   -4.704877    1.247796
     54          1           0        2.666257   -3.739027    1.811170
     55          1           0        1.099142   -4.121697    2.750802
     56          1           0        2.251072   -3.495741   -0.806957
     57          1           0       -1.024664   -4.630736    0.818981
     58          1           0       -2.437397   -5.182417    1.918006
     59          1           0       -4.684996   -1.211878   -0.796254
     60          1           0       -5.259022    0.255723   -1.779214
     61          1           0       -4.145647    5.057589    0.178660
     62          1           0       -5.296762    3.653179   -0.199858
     63          1           0       -4.456307    4.336313   -1.672160
     64          1           0       -1.763789    5.256550   -0.717575
     65          1           0        7.781089   -2.731802   -1.288684
     66          1           0        6.785513   -4.286092   -1.639004
     67          1           0        6.713093   -3.593584   -0.050580
     68          1           0        6.763251   -0.595694   -0.344869
     69          1           0        4.836412    1.422733    0.443762
     70          1           0        6.328537    1.377913    1.093251
     71          1           0        4.974326    0.422919    1.690536
     72          1           0        3.554153    6.269688   -0.726414
     73          1           0        4.283269    4.516710   -0.868225
     74          1           0        0.603171    6.214429   -1.944915
     75          1           0        1.736289    7.191468   -0.744391
     76          1           0        0.068062    7.052328   -0.228902
     77          1           0        3.564107    6.180916    1.563519
     78          1           0        5.357977    5.591565    1.120061
     79          1           0        4.030747    4.512296    1.847792
     80          1           0       -3.633167   -5.013521   -1.548652
     81          1           0       -7.916710   -1.731355   -1.981732
 ---------------------------------------------------------------------

 SCF Done:  E(RB3LYP) =  -1949.03272074     A.U. after   20 cycles

 Excitation energies and oscillator strengths:

 Excited State   1:      Singlet-A      1.5023 eV  825.30 nm  f=0.2758  <S**2>=0.000
     156 ->157         0.71285
     156 <-157        -0.14463
 This state for optimization and/or second-order correction.
 Total Energy, E(TD-HF/TD-DFT) =  -1948.97751226
 Copying the excited state density for this state as the 1-particle RhoCI density.

 The electronic state is 1-A.
 Alpha  occ. eigenvalues --  -19.20571 -19.18448 -19.15673 -19.13584 -19.12273
 Alpha  occ. eigenvalues --  -19.09264 -14.37857 -14.37359 -14.35194 -14.27857
 Alpha  occ. eigenvalues --  -10.34884 -10.31253 -10.30551 -10.25506 -10.24855
 Alpha  occ. eigenvalues --  -10.23878 -10.23662 -10.23589 -10.22921 -10.22436
 Alpha  occ. eigenvalues --  -10.22374 -10.22019 -10.21576 -10.21272 -10.21177
 Alpha  occ. eigenvalues --  -10.20958 -10.20789 -10.20630 -10.20527 -10.20461
 Alpha  occ. eigenvalues --  -10.20402 -10.20046 -10.19829 -10.19775 -10.19699
 Alpha  occ. eigenvalues --  -10.19633 -10.19233 -10.18847 -10.18315 -10.18312
 Alpha  occ. eigenvalues --  -10.17491 -10.17374 -10.16645  -1.10191  -1.08889
 Alpha  occ. eigenvalues --   -1.07126  -1.01161  -1.00708  -0.99187  -0.98226
 Alpha  occ. eigenvalues --   -0.97940  -0.96177  -0.89834  -0.84743  -0.82886
 Alpha  occ. eigenvalues --   -0.81838  -0.80587  -0.78928  -0.78669  -0.78162
 Alpha  occ. eigenvalues --   -0.76752  -0.75701  -0.73744  -0.73093  -0.71509
 Alpha  occ. eigenvalues --   -0.71097  -0.70428  -0.68904  -0.68391  -0.67721
 Alpha  occ. eigenvalues --   -0.67070  -0.65793  -0.64923  -0.62334  -0.61298
 Alpha  occ. eigenvalues --   -0.60054  -0.59419  -0.58473  -0.57793  -0.57523
 Alpha  occ. eigenvalues --   -0.55760  -0.55564  -0.54694  -0.54295  -0.53723
 Alpha  occ. eigenvalues --   -0.52645  -0.51925  -0.50564  -0.50434  -0.50276
 Alpha  occ. eigenvalues --   -0.49729  -0.49529  -0.48670  -0.48179  -0.47907
 Alpha  occ. eigenvalues --   -0.47459  -0.46976  -0.46230  -0.45793  -0.45317
 Alpha  occ. eigenvalues --   -0.45026  -0.44778  -0.44462  -0.44200  -0.43746
 Alpha  occ. eigenvalues --   -0.43378  -0.43034  -0.42835  -0.42461  -0.42118
 Alpha  occ. eigenvalues --   -0.41890  -0.41769  -0.41146  -0.41039  -0.40761
 Alpha  occ. eigenvalues --   -0.40352  -0.40174  -0.39450  -0.39368  -0.39350
 Alpha  occ. eigenvalues --   -0.38842  -0.38617  -0.38449  -0.38390  -0.38139
 Alpha  occ. eigenvalues --   -0.37795  -0.37491  -0.37221  -0.36688  -0.36511
 Alpha  occ. eigenvalues --   -0.36021  -0.35446  -0.35131  -0.34916  -0.34558
 Alpha  occ. eigenvalues --   -0.34146  -0.33901  -0.33861  -0.33057  -0.32878
 Alpha  occ. eigenvalues --   -0.32498  -0.32381  -0.31289  -0.30005  -0.29017
 Alpha  occ. eigenvalues --   -0.28244  -0.28080  -0.26959  -0.26629  -0.25923
 Alpha  occ. eigenvalues --   -0.25246  -0.24063  -0.23526  -0.22627  -0.20244
 Alpha  occ. eigenvalues --   -0.17169
 Alpha virt. eigenvalues --   -0.11125  -0.06012  -0.04880  -0.03046  -0.00855
 Alpha virt. eigenvalues --    0.00614   0.01816   0.02074   0.03215   0.03798
 Alpha virt. eigenvalues --    0.04192   0.04329   0.04877   0.04959   0.05865

 Mulliken charges:
               1
     1  O   -0.136070
     2  O   -0.240806
     3  O   -0.182905
     4  O   -0.240344
     5  O   -0.225103
     6  O   -0.267192
     7  N   -0.041398
     8  N   -0.022065
     9  N   -0.178829
    10  N   -0.354938
    11  C   -0.089994
    12  C   -0.003445
    13  C   -0.143684
    14  C    0.142538
    15  C   -0.094212
    16  C    0.043352
    17  C    0.009430
    18  C   -0.104435
    19  C    0.054274
    20  C   -0.158588
    21  C    0.018872
    22  C    0.108909
    23  C    0.137732
    24  C    0.049799
    25  C   -0.015559
    26  C    0.038336
    27  C    0.148999
    28  C    0.075440
    29  C   -0.036942
    30  C   -0.008640
    31  C   -0.128305
    32  C    0.038707
    33  C   -0.115132
    34  C    0.058943
    35  C   -0.077390
    36  C   -0.210797
    37  C    0.167649
    38  C    0.056867
    39  C    0.129652
    40  C    0.101496
    41  C    0.183497
    42  C    0.052127
    43  C   -0.020400
    44  H    0.127198
    45  H   -0.015075
    46  H    0.028724
    47  H    0.020293
    48  H    0.052490
    49  H    0.023056
    50  H    0.054789
    51  H   -0.094660
    52  H    0.092074
    53  H   -0.002207
    54  H    0.034783
    55  H    0.019222
    56  H    0.165087
    57  H   -0.009675
    58  H    0.061603
    59  H    0.099829
    60  H    0.011245
    61  H    0.060730
    62  H   -0.012033
    63  H    0.032465
    64  H    0.029266
    65  H    0.047542
    66  H    0.036829
    67  H    0.001084
    68  H   -0.041125
    69  H    0.049877
    70  H    0.001164
    71  H   -0.003235
    72  H    0.014559
    73  H    0.003580
    74  H    0.056326
    75  H    0.018231
    76  H    0.039108
    77  H    0.010026
    78  H    0.027944
    79  H    0.033751
    80  H    0.222078
    81  H    0.183612
 Sum of Mulliken charges =  -0.00000

 Dipole moment (field-independent basis, Debye):
    X=             -0.9743    Y=             -2.3196    Z=             -1.5729  Tot=              2.9671
 Quadrupole moment (field-independent basis, Debye-Ang):
   XX=           -249.3961   YY=           -235.0497   ZZ=           -253.5587
   XY=             17.5759   XZ=             10.2137   YZ=            -10.8275

 Normal termination of Gaussian 16 at Tue Jul  2 15:17:25 2019.
