 Gaussian 16, Revision A.03,
 Gaussian 16:  ES64L-G16RevA.03 25-Dec-2016

 --------------------------
 # td=(NStates=1) B3LYP/SVP
 --------------------------

 --
 TD
 --
 Symbolic Z-matrix:
 Charge =  0 Multiplicity = 1

                         Standard orientation:
 ---------------------------------------------------------------------
 Center     Atomic      Atomic             Coordinates (Angstroms)
 Number     Number       Type             X           Y           Z
 ---------------------------------------------------------------------
      1          8           0        4.241315   -4.920447   -1.665547
      2          8           0       -2.667127   -5.010635   -1.101767
      3          8           0       -6.819223   -1.604254   -1.993315
      4          8           0       -3.647577   -3.301435   -0.177055
      5          8           0       -7.405208   -0.840425    0.155509
      6          8           0        2.988066    2.534476    0.454338
      7          7           0        0.223155   -0.463334    0.481873
      8          7           0       -1.586757    1.949240    0.374422
      9          7           0        3.259366   -3.173898   -0.463163
     10          7           0        0.721480    3.010881    0.123091
     11          6           0       -0.653765   -2.305963    1.355145
     12          6           0       -0.938082   -1.033748    0.898217
     13          6           0        0.764205   -2.503884    1.346386
     14          6           0        1.284157   -1.379293    0.624989
     15          6           0       -3.835280    1.508074    0.319714
     16          6           0       -2.542243    0.866340    0.485212
     17          6           0       -2.249607   -0.410842    0.997375
     18          6           0       -3.633511    2.813016    0.001006
     19          6           0       -1.672356   -3.262634    2.010412
     20          6           0        5.476640   -2.804220   -1.239214
     21          6           0        3.544335   -1.895126   -0.301668
     22          6           0       -2.284544    3.100866    0.089129
     23          6           0        4.980941   -1.623259   -0.524134
     24          6           0       -5.139833    0.716943    0.336338
     25          6           0        2.588997   -0.960587    0.294797
     26          6           0        1.533177   -3.648016    1.854522
     27          6           0        4.291388   -3.820532   -1.148853
     28          6           0       -1.921147   -4.467287    1.129729
     29          6           0       -5.245612   -0.188531   -0.849430
     30          6           0       -4.651137    3.849425   -0.460764
     31          6           0       -1.381167    4.133779   -0.182874
     32          6           0        6.870024   -3.466018   -0.851369
     33          6           0        5.660341   -0.554151   -0.196112
     34          6           0        0.007724    4.112633   -0.244170
     35          6           0        1.007921    5.213324   -0.500595
     36          6           0        2.232835    4.689399   -0.353671
     37          6           0       -2.817589   -4.149131   -0.072387
     38          6           0        5.394826    0.777643    0.621693
     39          6           0       -6.620019   -0.880972   -0.755533
     40          6           0        3.630224    5.282761   -0.324299
     41          6           0        2.079258    3.181637    0.067550
     42          6           0        0.615742    6.521628   -0.932864
     43          6           0        4.308428    5.552830    1.048002
     44          1           0        0.390151    0.517723    0.188677
     45          1           0       -3.124376   -1.163140    1.058276
     46          1           0       -2.584926   -2.702469    1.938118
     47          1           0       -1.325869   -3.396894    3.083926
     48          1           0        5.292163   -2.494907   -2.260214
     49          1           0       -5.046552    0.039665    1.182431
     50          1           0       -6.095866    1.404347    0.505582
     51          1           0        2.821116   -0.066922    0.157160
     52          1           0       -0.485460    1.935424    0.435429
     53          1           0        1.551960   -4.615892    1.364571
     54          1           0        2.646826   -3.445540    1.952112
     55          1           0        1.176045   -3.982329    2.849607
     56          1           0        2.274043   -3.429366   -0.483319
     57          1           0       -0.959169   -5.028530    0.637395
     58          1           0       -2.334026   -5.341062    1.478451
     59          1           0       -4.534378   -0.973902   -1.106727
     60          1           0       -5.081133    0.380890   -1.870029
     61          1           0       -4.082269    4.844990   -0.096017
     62          1           0       -5.529217    3.430907   -0.022393
     63          1           0       -4.691633    3.975123   -1.661015
     64          1           0       -1.834574    4.945340   -0.452544
     65          1           0        7.624065   -2.764555   -1.026928
     66          1           0        6.968244   -4.380105   -1.517434
     67          1           0        6.813370   -3.563954    0.191384
     68          1           0        6.721566   -0.745834   -0.840114
     69          1           0        4.916066    1.469425   -0.091933
     70          1           0        6.338199    1.298013    0.944302
     71          1           0        4.692758    0.812418    1.489721
     72          1           0        3.501463    6.156105   -1.048037
     73          1           0        4.230991    4.698278   -1.217960
     74          1           0       -0.047173    6.488947   -1.936820
     75          1           0        1.633050    7.120094   -0.955555
     76          1           0        0.154777    7.011083    0.059772
     77          1           0        3.662241    6.220001    1.589804
     78          1           0        5.218822    5.819114    0.883246
     79          1           0        4.192039    4.609140    1.926771
     80          1           0       -3.449029   -4.775890   -1.816899
     81          1           0       -7.568604   -2.220825   -1.757344
 ---------------------------------------------------------------------

 SCF Done:  E(RB3LYP) =  -1949.05121646     A.U. after   16 cycles

 Excitation energies and oscillator strengths:

 Excited State   1:      Singlet-A      1.7757 eV  698.22 nm  f=0.3728  <S**2>=0.000
     156 ->157         0.71111
     156 <-157        -0.12174
 This state for optimization and/or second-order correction.
 Total Energy, E(TD-HF/TD-DFT) =  -1948.98596025
 Copying the excited state density for this state as the 1-particle RhoCI density.

 The electronic state is 1-A.
 Alpha  occ. eigenvalues --  -19.19216 -19.17366 -19.14692 -19.14122 -19.12349
 Alpha  occ. eigenvalues --  -19.10202 -14.38199 -14.37316 -14.34407 -14.28312
 Alpha  occ. eigenvalues --  -10.33173 -10.32796 -10.30309 -10.25724 -10.24554
 Alpha  occ. eigenvalues --  -10.23441 -10.23211 -10.23060 -10.22953 -10.22694
 Alpha  occ. eigenvalues --  -10.22594 -10.22360 -10.21465 -10.21449 -10.21369
 Alpha  occ. eigenvalues --  -10.21291 -10.21212 -10.20983 -10.20836 -10.20442
 Alpha  occ. eigenvalues --  -10.20117 -10.19902 -10.19883 -10.19699 -10.19697
 Alpha  occ. eigenvalues --  -10.19447 -10.19435 -10.18877 -10.18627 -10.18530
 Alpha  occ. eigenvalues --  -10.17502 -10.17494 -10.17269  -1.10898  -1.07779
 Alpha  occ. eigenvalues --   -1.04687  -1.03068  -1.00905  -1.00183  -0.98271
 Alpha  occ. eigenvalues --   -0.97700  -0.96053  -0.91061  -0.83090  -0.82596
 Alpha  occ. eigenvalues --   -0.82199  -0.80858  -0.79054  -0.78862  -0.77952
 Alpha  occ. eigenvalues --   -0.77592  -0.76021  -0.74654  -0.73644  -0.72353
 Alpha  occ. eigenvalues --   -0.70758  -0.70182  -0.68515  -0.68260  -0.67713
 Alpha  occ. eigenvalues --   -0.66878  -0.65889  -0.64958  -0.62820  -0.61603
 Alpha  occ. eigenvalues --   -0.60475  -0.59490  -0.59067  -0.57324  -0.57011
 Alpha  occ. eigenvalues --   -0.55675  -0.55512  -0.54750  -0.53070  -0.52359
 Alpha  occ. eigenvalues --   -0.51864  -0.51328  -0.50843  -0.49981  -0.49942
 Alpha  occ. eigenvalues --   -0.49417  -0.49003  -0.48673  -0.48291  -0.47948
 Alpha  occ. eigenvalues --   -0.47187  -0.46583  -0.46173  -0.45347  -0.45293
 Alpha  occ. eigenvalues --   -0.44937  -0.44587  -0.44168  -0.43812  -0.43701
 Alpha  occ. eigenvalues --   -0.43237  -0.43044  -0.42750  -0.42180  -0.42099
 Alpha  occ. eigenvalues --   -0.41973  -0.41704  -0.41458  -0.41225  -0.41070
 Alpha  occ. eigenvalues --   -0.40804  -0.40428  -0.40257  -0.40204  -0.39618
 Alpha  occ. eigenvalues --   -0.39410  -0.39199  -0.39012  -0.38694  -0.38525
 Alpha  occ. eigenvalues --   -0.38276  -0.37832  -0.37634  -0.37261  -0.37105
 Alpha  occ. eigenvalues --   -0.36675  -0.36345  -0.36234  -0.35446  -0.35291
 Alpha  occ. eigenvalues --   -0.34361  -0.33990  -0.33779  -0.33398  -0.33060
 Alpha  occ. eigenvalues --   -0.32768  -0.32442  -0.30178  -0.30019  -0.29590
 Alpha  occ. eigenvalues --   -0.29436  -0.27479  -0.27152  -0.26403  -0.25443
 Alpha  occ. eigenvalues --   -0.25167  -0.24749  -0.23136  -0.22145  -0.21234
 Alpha  occ. eigenvalues --   -0.17579
 Alpha virt. eigenvalues --   -0.10519  -0.05324  -0.04052  -0.01106  -0.00352
 Alpha virt. eigenvalues --   -0.00312   0.01418   0.02648   0.03217   0.03806
 Alpha virt. eigenvalues --    0.04287   0.04562   0.05027   0.05313   0.05530

 Mulliken charges:
               1
     1  O   -0.196066
     2  O   -0.242920
     3  O   -0.269317
     4  O   -0.215074
     5  O   -0.198741
     6  O   -0.181107
     7  N   -0.096125
     8  N   -0.203228
     9  N   -0.039428
    10  N   -0.337821
    11  C   -0.170833
    12  C    0.064579
    13  C   -0.129052
    14  C    0.078967
    15  C   -0.085197
    16  C    0.066264
    17  C   -0.066796
    18  C   -0.124409
    19  C    0.177246
    20  C   -0.050456
    21  C   -0.062906
    22  C    0.122052
    23  C   -0.026231
    24  C    0.109945
    25  C    0.086097
    26  C    0.050225
    27  C    0.097671
    28  C    0.019963
    29  C   -0.058490
    30  C    0.048867
    31  C   -0.045367
    32  C    0.129287
    33  C   -0.199750
    34  C    0.118135
    35  C   -0.070384
    36  C   -0.237651
    37  C    0.102631
    38  C    0.063926
    39  C    0.187370
    40  C    0.021890
    41  C    0.158895
    42  C    0.023686
    43  C    0.082443
    44  H    0.137262
    45  H    0.062741
    46  H   -0.007646
    47  H    0.040380
    48  H    0.035100
    49  H    0.014590
    50  H    0.049346
    51  H   -0.146122
    52  H    0.172559
    53  H    0.013641
    54  H    0.035079
    55  H    0.007766
    56  H    0.148670
    57  H    0.046935
    58  H    0.012279
    59  H    0.053317
    60  H    0.045155
    61  H    0.049738
    62  H    0.022093
    63  H    0.053234
    64  H   -0.132911
    65  H    0.001041
    66  H    0.055818
    67  H    0.009757
    68  H    0.015589
    69  H    0.059555
    70  H    0.015534
    71  H    0.051130
    72  H   -0.012835
    73  H    0.009408
    74  H    0.066352
    75  H    0.020904
    76  H    0.035346
    77  H    0.009103
    78  H   -0.012180
    79  H    0.041578
    80  H    0.234132
    81  H    0.183772
 Sum of Mulliken charges =  -0.00000

 Dipole moment (field-independent basis, Debye):
    X=             -1.3963    Y=             -0.8741    Z=             -0.7726  Tot=              1.8195
 Quadrupole moment (field-independent basis, Debye-Ang):
   XX=           -252.6779   YY=           -244.0978   ZZ=           -253.4758
   XY=             14.1960   XZ=              8.3886   YZ=            -11.3329

 Normal termination of Gaussian 16 at Mon Jul  1 18:32:40 2019.
