 Gaussian 16, Revision A.03,
 Gaussian 16:  ES64L-G16RevA.03 25-Dec-2016

 --------------------------
 # td=(NStates=1) B3LYP/SVP
 --------------------------

 --
 TD
 --
 Symbolic Z-matrix:
 Charge =  0 Multiplicity = 1

                         Standard orientation:
 ---------------------------------------------------------------------
 Center     Atomic      Atomic             Coordinates (Angstroms)
 Number     Number       Type             X           Y           Z
 ---------------------------------------------------------------------
      1          8           0        4.211918   -4.990531   -1.781255
      2          8           0       -2.953608   -4.747814   -1.125886
      3          8           0       -7.177101   -1.420537   -1.998848
      4          8           0       -3.763443   -3.001560    0.101446
      5          8           0       -7.616609   -0.649911    0.016266
      6          8           0        3.046681    2.329574    0.468511
      7          7           0        0.310005   -0.352649    0.757199
      8          7           0       -1.473985    2.023948    0.497437
      9          7           0        3.238766   -3.198933   -0.687181
     10          7           0        0.755621    2.936499    0.188719
     11          6           0       -0.681196   -2.337699    1.431653
     12          6           0       -0.947671   -0.997163    1.132822
     13          6           0        0.733604   -2.536548    1.283186
     14          6           0        1.333976   -1.335597    0.748065
     15          6           0       -3.768654    1.537436    0.218929
     16          6           0       -2.455234    0.923168    0.700132
     17          6           0       -2.209030   -0.401749    0.994761
     18          6           0       -3.534483    2.867633   -0.213196
     19          6           0       -1.683826   -3.361400    2.092161
     20          6           0        5.436268   -2.860289   -1.373928
     21          6           0        3.549815   -1.953885   -0.207061
     22          6           0       -2.119353    3.016989   -0.016206
     23          6           0        4.898979   -1.688482   -0.605087
     24          6           0       -5.061048    0.700104    0.280400
     25          6           0        2.688587   -1.045919    0.412574
     26          6           0        1.465684   -3.737194    1.816800
     27          6           0        4.261671   -3.837492   -1.336422
     28          6           0       -2.072437   -4.490842    1.056974
     29          6           0       -5.384560   -0.251784   -0.876508
     30          6           0       -4.419177    3.910679   -0.600745
     31          6           0       -1.335013    4.122553   -0.369324
     32          6           0        6.712591   -3.625924   -0.978637
     33          6           0        5.724161   -0.556022   -0.326719
     34          6           0        0.166022    4.142422   -0.158121
     35          6           0        1.121259    5.126168   -0.454358
     36          6           0        2.379218    4.709172   -0.136891
     37          6           0       -3.048119   -3.994514   -0.009212
     38          6           0        5.456604    0.575455    0.527162
     39          6           0       -6.765374   -0.712803   -0.834249
     40          6           0        3.782167    5.246118   -0.344220
     41          6           0        2.127994    3.219680    0.201218
     42          6           0        0.684329    6.468369   -0.986374
     43          6           0        4.560663    5.352605    1.026532
     44          1           0        0.545009    0.439022    0.197099
     45          1           0       -3.084310   -1.216473    1.008389
     46          1           0       -2.603630   -2.935570    2.626208
     47          1           0       -1.260429   -3.604767    2.991938
     48          1           0        5.562816   -2.828727   -2.424815
     49          1           0       -4.913891    0.056607    1.190575
     50          1           0       -5.904187    1.548253    0.539611
     51          1           0        2.913100   -0.065132    0.500320
     52          1           0       -0.519003    1.965108    0.672097
     53          1           0        1.440000   -4.680771    1.136568
     54          1           0        2.553656   -3.490996    1.778321
     55          1           0        1.040459   -4.062629    2.686728
     56          1           0        2.259064   -3.618228   -0.661010
     57          1           0       -1.010469   -4.755200    0.783504
     58          1           0       -2.498161   -5.405573    1.697284
     59          1           0       -4.854593   -0.998200   -0.931643
     60          1           0       -5.273849    0.184744   -1.898415
     61          1           0       -4.380832    4.643208    0.126649
     62          1           0       -5.517544    3.449090   -0.383914
     63          1           0       -4.289552    4.448883   -1.445063
     64          1           0       -1.730974    5.194484   -0.492198
     65          1           0        7.685427   -2.806624   -1.108061
     66          1           0        6.808533   -4.391562   -1.649896
     67          1           0        6.612691   -3.526846    0.248815
     68          1           0        6.722792   -0.778345   -0.656594
     69          1           0        4.426017    1.058708    0.340568
     70          1           0        6.170635    1.405401    0.770683
     71          1           0        5.105966    0.261403    1.434918
     72          1           0        3.808543    6.231260   -0.558004
     73          1           0        4.313996    4.487430   -0.973414
     74          1           0        0.285803    6.355320   -2.047835
     75          1           0        1.562172    7.208973   -1.002239
     76          1           0       -0.082445    6.784719   -0.236759
     77          1           0        4.044803    5.784707    2.018989
     78          1           0        5.413440    6.132532    0.759550
     79          1           0        4.948775    4.349820    1.391458
     80          1           0       -3.504442   -4.512747   -2.006611
     81          1           0       -8.181425   -1.486576   -1.735553
 ---------------------------------------------------------------------

 SCF Done:  E(RB3LYP) =  -1949.04127595     A.U. after   17 cycles

 Excitation energies and oscillator strengths:

 Excited State   1:      Singlet-A      1.6529 eV  750.09 nm  f=0.2303  <S**2>=0.000
     156 ->157         0.70853
     156 <-157        -0.10325
 This state for optimization and/or second-order correction.
 Total Energy, E(TD-HF/TD-DFT) =  -1948.98053250
 Copying the excited state density for this state as the 1-particle RhoCI density.

 The electronic state is 1-A.
 Alpha  occ. eigenvalues --  -19.20587 -19.16463 -19.15283 -19.13120 -19.10878
 Alpha  occ. eigenvalues --  -19.10166 -14.38005 -14.37005 -14.35615 -14.28751
 Alpha  occ. eigenvalues --  -10.35270 -10.31882 -10.29021 -10.26962 -10.24849
 Alpha  occ. eigenvalues --  -10.23792 -10.23787 -10.23775 -10.23716 -10.23292
 Alpha  occ. eigenvalues --  -10.23023 -10.22321 -10.22091 -10.21846 -10.21607
 Alpha  occ. eigenvalues --  -10.21111 -10.20968 -10.20589 -10.20530 -10.20251
 Alpha  occ. eigenvalues --  -10.20183 -10.20078 -10.19950 -10.19792 -10.19781
 Alpha  occ. eigenvalues --  -10.19725 -10.19662 -10.19646 -10.19512 -10.19426
 Alpha  occ. eigenvalues --  -10.19402 -10.18334 -10.16760  -1.09935  -1.08330
 Alpha  occ. eigenvalues --   -1.02921  -1.01767  -0.98383  -0.98004  -0.97204
 Alpha  occ. eigenvalues --   -0.96114  -0.95248  -0.90556  -0.82883  -0.81913
 Alpha  occ. eigenvalues --   -0.81681  -0.81113  -0.80202  -0.79306  -0.78452
 Alpha  occ. eigenvalues --   -0.77450  -0.76343  -0.75561  -0.74513  -0.72463
 Alpha  occ. eigenvalues --   -0.71860  -0.70283  -0.69433  -0.68791  -0.67664
 Alpha  occ. eigenvalues --   -0.67086  -0.64966  -0.64436  -0.62799  -0.61770
 Alpha  occ. eigenvalues --   -0.60701  -0.58822  -0.58234  -0.57728  -0.56862
 Alpha  occ. eigenvalues --   -0.56520  -0.55344  -0.54868  -0.54039  -0.53257
 Alpha  occ. eigenvalues --   -0.52194  -0.51858  -0.51478  -0.50733  -0.50172
 Alpha  occ. eigenvalues --   -0.49420  -0.48975  -0.48793  -0.48467  -0.47852
 Alpha  occ. eigenvalues --   -0.47483  -0.46631  -0.46486  -0.45888  -0.45684
 Alpha  occ. eigenvalues --   -0.45202  -0.45098  -0.44383  -0.44107  -0.43721
 Alpha  occ. eigenvalues --   -0.43379  -0.43070  -0.42947  -0.42669  -0.42197
 Alpha  occ. eigenvalues --   -0.42122  -0.42017  -0.41776  -0.41486  -0.40999
 Alpha  occ. eigenvalues --   -0.40494  -0.40233  -0.39982  -0.39593  -0.39423
 Alpha  occ. eigenvalues --   -0.39000  -0.38721  -0.38654  -0.38375  -0.37841
 Alpha  occ. eigenvalues --   -0.37546  -0.37239  -0.37069  -0.36648  -0.36178
 Alpha  occ. eigenvalues --   -0.36108  -0.35888  -0.35284  -0.35036  -0.34671
 Alpha  occ. eigenvalues --   -0.34550  -0.34192  -0.33963  -0.33210  -0.32718
 Alpha  occ. eigenvalues --   -0.32296  -0.31699  -0.31253  -0.30605  -0.30189
 Alpha  occ. eigenvalues --   -0.28259  -0.27584  -0.26302  -0.25881  -0.25452
 Alpha  occ. eigenvalues --   -0.25292  -0.24257  -0.23895  -0.23050  -0.21220
 Alpha  occ. eigenvalues --   -0.17530
 Alpha virt. eigenvalues --   -0.10542  -0.06751  -0.04809  -0.03030  -0.00244
 Alpha virt. eigenvalues --   -0.00062   0.00394   0.01624   0.02920   0.03576
 Alpha virt. eigenvalues --    0.04319   0.04799   0.05198   0.05344   0.05699

 Mulliken charges:
               1
     1  O   -0.234997
     2  O   -0.240323
     3  O   -0.284920
     4  O   -0.226596
     5  O   -0.224688
     6  O   -0.304671
     7  N   -0.150321
     8  N   -0.021060
     9  N   -0.107392
    10  N   -0.338145
    11  C   -0.098820
    12  C    0.084463
    13  C   -0.192593
    14  C    0.053698
    15  C   -0.117826
    16  C    0.121751
    17  C   -0.114059
    18  C   -0.127501
    19  C    0.080807
    20  C   -0.023221
    21  C    0.146602
    22  C    0.103598
    23  C   -0.080363
    24  C    0.016218
    25  C   -0.043539
    26  C    0.105901
    27  C    0.089816
    28  C   -0.041233
    29  C    0.239998
    30  C    0.183556
    31  C   -0.132735
    32  C    0.001111
    33  C   -0.046052
    34  C    0.041928
    35  C   -0.125036
    36  C   -0.158215
    37  C    0.214156
    38  C    0.083152
    39  C    0.112408
    40  C    0.183933
    41  C    0.190443
    42  C    0.061762
    43  C   -0.128346
    44  H    0.141083
    45  H    0.081148
    46  H    0.015464
    47  H   -0.014796
    48  H    0.018007
    49  H    0.034304
    50  H    0.050223
    51  H   -0.093127
    52  H    0.100052
    53  H    0.019167
    54  H    0.033537
    55  H   -0.005628
    56  H    0.156316
    57  H    0.054734
    58  H    0.070844
    59  H   -0.082607
    60  H    0.031565
    61  H   -0.006891
    62  H    0.019387
    63  H   -0.004244
    64  H   -0.004597
    65  H    0.024573
    66  H    0.029325
    67  H    0.044809
    68  H   -0.021557
    69  H    0.087591
    70  H    0.022937
    71  H   -0.013305
    72  H   -0.036253
    73  H    0.044350
    74  H    0.042650
    75  H    0.022080
    76  H    0.038581
    77  H    0.033197
    78  H    0.020473
    79  H    0.047537
    80  H    0.246662
    81  H    0.199757
 Sum of Mulliken charges =  -0.00000

 Dipole moment (field-independent basis, Debye):
    X=             -2.3755    Y=              0.9937    Z=             -0.8590  Tot=              2.7145
 Quadrupole moment (field-independent basis, Debye-Ang):
   XX=           -260.6329   YY=           -240.6331   ZZ=           -252.8882
   XY=             14.5626   XZ=              9.3456   YZ=            -12.1766

 Normal termination of Gaussian 16 at Wed Jun 26 23:47:59 2019.
