 Gaussian 16, Revision A.03,
 Gaussian 16:  ES64L-G16RevA.03 25-Dec-2016

 --------------------------
 # td=(NStates=1) B3LYP/SVP
 --------------------------

 --
 TD
 --
 Symbolic Z-matrix:
 Charge =  0 Multiplicity = 1

                         Standard orientation:
 ---------------------------------------------------------------------
 Center     Atomic      Atomic             Coordinates (Angstroms)
 Number     Number       Type             X           Y           Z
 ---------------------------------------------------------------------
      1          8           0        4.064261   -5.055080   -1.775881
      2          8           0       -3.142342   -4.606342   -1.269111
      3          8           0       -6.889073   -1.374009   -1.864457
      4          8           0       -4.009125   -3.033646   -0.006914
      5          8           0       -7.584588   -0.480418    0.098186
      6          8           0        3.080924    2.286275    0.456407
      7          7           0        0.234118   -0.447174    0.678228
      8          7           0       -1.453786    1.862933    0.423126
      9          7           0        3.201810   -3.287360   -0.626966
     10          7           0        0.880439    2.825538   -0.034735
     11          6           0       -0.798467   -2.336782    1.381918
     12          6           0       -1.009591   -0.956485    1.046126
     13          6           0        0.591745   -2.675238    1.326004
     14          6           0        1.134268   -1.395202    0.753704
     15          6           0       -3.783464    1.750150    0.289774
     16          6           0       -2.491457    0.957317    0.622302
     17          6           0       -2.303871   -0.297126    0.862035
     18          6           0       -3.360890    2.961415   -0.087379
     19          6           0       -1.871757   -3.233699    1.906078
     20          6           0        5.468456   -2.953886   -1.327394
     21          6           0        3.408532   -2.085824   -0.179835
     22          6           0       -1.879312    3.107289   -0.029077
     23          6           0        4.926315   -1.803884   -0.414963
     24          6           0       -5.139382    1.049267    0.331523
     25          6           0        2.562187   -1.183257    0.402814
     26          6           0        1.303136   -3.910445    1.770316
     27          6           0        4.167163   -3.954474   -1.307454
     28          6           0       -2.273701   -4.441709    1.025656
     29          6           0       -5.289937   -0.047587   -0.707438
     30          6           0       -4.330538    4.100499   -0.626798
     31          6           0       -1.048661    4.181673   -0.335276
     32          6           0        6.669376   -3.680404   -0.811011
     33          6           0        5.765775   -0.803351   -0.126273
     34          6           0        0.398694    3.964711   -0.291540
     35          6           0        1.229689    5.130051   -0.486713
     36          6           0        2.513172    4.515185   -0.148445
     37          6           0       -3.196336   -3.909386   -0.127609
     38          6           0        5.493908    0.458398    0.570761
     39          6           0       -6.694556   -0.605594   -0.782695
     40          6           0        3.894884    5.170954   -0.319905
     41          6           0        2.264900    3.121738    0.151786
     42          6           0        0.986080    6.593800   -0.874724
     43          6           0        4.602390    5.511072    1.054870
     44          1           0        0.342654    0.310452    0.106216
     45          1           0       -3.192584   -0.873770    1.035362
     46          1           0       -2.761253   -2.981971    2.466847
     47          1           0       -1.382480   -3.675933    2.751257
     48          1           0        5.480625   -2.706072   -2.372716
     49          1           0       -5.277470    0.585868    1.257077
     50          1           0       -5.929827    1.875187    0.218584
     51          1           0        3.054131   -0.144521    0.374302
     52          1           0       -0.380329    1.709110    0.693285
     53          1           0        1.302129   -4.803174    1.223399
     54          1           0        2.330171   -3.705913    1.904356
     55          1           0        0.796926   -4.448432    2.738570
     56          1           0        2.324102   -3.507965   -0.565155
     57          1           0       -1.274002   -4.883638    0.793812
     58          1           0       -2.997308   -5.087940    1.470454
     59          1           0       -4.612803   -0.944919   -0.499014
     60          1           0       -5.066109    0.489234   -1.677678
     61          1           0       -3.981473    5.041761   -0.134989
     62          1           0       -5.320105    3.867307   -0.521161
     63          1           0       -4.270391    4.192471   -1.723403
     64          1           0       -1.543827    5.126528   -0.507185
     65          1           0        7.601851   -3.257842   -1.453948
     66          1           0        6.647885   -4.633150   -1.276046
     67          1           0        6.833946   -3.919796    0.293676
     68          1           0        6.843516   -0.958157   -0.547008
     69          1           0        4.841654    1.246486    0.045347
     70          1           0        6.231944    1.087092    1.002804
     71          1           0        4.728498    0.235655    1.514314
     72          1           0        3.859646    6.242515   -0.565791
     73          1           0        4.496699    4.524988   -0.837528
     74          1           0       -0.151316    6.618344   -1.472152
     75          1           0        1.832024    7.064013   -1.655775
     76          1           0        0.758664    7.075418    0.358244
     77          1           0        4.044678    6.456235    1.383162
     78          1           0        5.580972    5.794517    0.862769
     79          1           0        4.203953    4.610362    1.757473
     80          1           0       -3.781819   -4.229963   -1.863976
     81          1           0       -7.864593   -1.757299   -1.828037
 ---------------------------------------------------------------------

 SCF Done:  E(RB3LYP) =  -1949.05240150     A.U. after   16 cycles

 Excitation energies and oscillator strengths:

 Excited State   1:      Singlet-A      1.6265 eV  762.28 nm  f=0.1981  <S**2>=0.000
     156 ->157         0.70662
 This state for optimization and/or second-order correction.
 Total Energy, E(TD-HF/TD-DFT) =  -1948.99262865
 Copying the excited state density for this state as the 1-particle RhoCI density.

 The electronic state is 1-A.
 Alpha  occ. eigenvalues --  -19.19002 -19.18999 -19.14023 -19.11932 -19.11692
 Alpha  occ. eigenvalues --  -19.11570 -14.38125 -14.36709 -14.36177 -14.29266
 Alpha  occ. eigenvalues --  -10.33320 -10.32062 -10.29297 -10.27246 -10.25784
 Alpha  occ. eigenvalues --  -10.24651 -10.24038 -10.23987 -10.23317 -10.22728
 Alpha  occ. eigenvalues --  -10.22258 -10.21900 -10.21610 -10.21025 -10.20914
 Alpha  occ. eigenvalues --  -10.20693 -10.20504 -10.20394 -10.20385 -10.20291
 Alpha  occ. eigenvalues --  -10.20146 -10.19937 -10.19804 -10.19758 -10.19707
 Alpha  occ. eigenvalues --  -10.19662 -10.19488 -10.19188 -10.18983 -10.18839
 Alpha  occ. eigenvalues --  -10.18766 -10.18677 -10.17702  -1.11832  -1.08341
 Alpha  occ. eigenvalues --   -1.05121  -1.03503  -1.02077  -0.99969  -0.98618
 Alpha  occ. eigenvalues --   -0.97849  -0.96494  -0.94273  -0.82532  -0.81676
 Alpha  occ. eigenvalues --   -0.81161  -0.81024  -0.79551  -0.78402  -0.77451
 Alpha  occ. eigenvalues --   -0.76945  -0.76148  -0.74969  -0.74044  -0.72623
 Alpha  occ. eigenvalues --   -0.70962  -0.69500  -0.69022  -0.68909  -0.68339
 Alpha  occ. eigenvalues --   -0.67318  -0.65166  -0.64630  -0.62746  -0.61983
 Alpha  occ. eigenvalues --   -0.61207  -0.59683  -0.59269  -0.58765  -0.58645
 Alpha  occ. eigenvalues --   -0.56079  -0.55667  -0.55130  -0.53589  -0.53071
 Alpha  occ. eigenvalues --   -0.52037  -0.51642  -0.50933  -0.50327  -0.49493
 Alpha  occ. eigenvalues --   -0.49242  -0.48848  -0.48172  -0.47566  -0.47346
 Alpha  occ. eigenvalues --   -0.47062  -0.46727  -0.46116  -0.46009  -0.45503
 Alpha  occ. eigenvalues --   -0.45194  -0.44737  -0.44503  -0.44294  -0.44115
 Alpha  occ. eigenvalues --   -0.43458  -0.43260  -0.43105  -0.42688  -0.42327
 Alpha  occ. eigenvalues --   -0.42026  -0.41657  -0.41412  -0.41134  -0.41015
 Alpha  occ. eigenvalues --   -0.40668  -0.40529  -0.40078  -0.39935  -0.39527
 Alpha  occ. eigenvalues --   -0.39207  -0.39030  -0.38847  -0.38690  -0.38444
 Alpha  occ. eigenvalues --   -0.37936  -0.37393  -0.37285  -0.37019  -0.36149
 Alpha  occ. eigenvalues --   -0.35606  -0.35558  -0.35462  -0.34900  -0.34419
 Alpha  occ. eigenvalues --   -0.34201  -0.33801  -0.33585  -0.33550  -0.33044
 Alpha  occ. eigenvalues --   -0.31488  -0.31273  -0.31151  -0.30506  -0.29651
 Alpha  occ. eigenvalues --   -0.29535  -0.27345  -0.26276  -0.26071  -0.25655
 Alpha  occ. eigenvalues --   -0.25361  -0.24862  -0.24139  -0.23234  -0.21725
 Alpha  occ. eigenvalues --   -0.17435
 Alpha virt. eigenvalues --   -0.10539  -0.05451  -0.03159  -0.00669   0.00134
 Alpha virt. eigenvalues --    0.00322   0.01365   0.02246   0.02998   0.03566
 Alpha virt. eigenvalues --    0.03978   0.04520   0.04859   0.05419   0.05618

 Mulliken charges:
               1
     1  O   -0.187168
     2  O   -0.149969
     3  O   -0.214816
     4  O   -0.224080
     5  O   -0.281723
     6  O   -0.174706
     7  N    0.029592
     8  N   -0.185118
     9  N    0.103733
    10  N   -0.247298
    11  C   -0.073534
    12  C    0.033220
    13  C   -0.116134
    14  C   -0.027247
    15  C   -0.052813
    16  C    0.089656
    17  C   -0.048905
    18  C   -0.172472
    19  C    0.075911
    20  C   -0.103756
    21  C   -0.022151
    22  C    0.126107
    23  C   -0.014694
    24  C    0.144605
    25  C   -0.108440
    26  C    0.070220
    27  C    0.088732
    28  C    0.029652
    29  C   -0.051439
    30  C    0.134156
    31  C   -0.132714
    32  C    0.055844
    33  C   -0.120081
    34  C    0.077827
    35  C   -0.083913
    36  C   -0.201351
    37  C    0.109166
    38  C   -0.009041
    39  C    0.155230
    40  C    0.118429
    41  C    0.152536
    42  C   -0.083560
    43  C   -0.044449
    44  H    0.108016
    45  H   -0.010579
    46  H    0.001348
    47  H   -0.017731
    48  H    0.032697
    49  H    0.000905
    50  H    0.017935
    51  H    0.036536
    52  H    0.190975
    53  H    0.013793
    54  H    0.021425
    55  H    0.023598
    56  H    0.058715
    57  H    0.036076
    58  H    0.031027
    59  H    0.092820
    60  H    0.036676
    61  H    0.033593
    62  H   -0.020944
    63  H    0.019558
    64  H   -0.040410
    65  H    0.018899
    66  H    0.002166
    67  H    0.042472
    68  H    0.010908
    69  H    0.071827
    70  H   -0.005686
    71  H    0.040147
    72  H   -0.007879
    73  H    0.000970
    74  H    0.058074
    75  H    0.092709
    76  H    0.086461
    77  H    0.007242
    78  H    0.010503
    79  H    0.052158
    80  H    0.170102
    81  H    0.219858
 Sum of Mulliken charges =  -0.00000

 Dipole moment (field-independent basis, Debye):
    X=             -1.9154    Y=              1.9338    Z=             -1.6557  Tot=              3.1859
 Quadrupole moment (field-independent basis, Debye-Ang):
   XX=           -258.2995   YY=           -234.1297   ZZ=           -254.7827
   XY=             18.4650   XZ=             13.2828   YZ=            -14.6495

 Normal termination of Gaussian 16 at Sat Jun 29 18:12:28 2019.
