 Gaussian 16, Revision A.03,
 Gaussian 16:  ES64L-G16RevA.03 25-Dec-2016

 --------------------------
 # td=(NStates=1) B3LYP/SVP
 --------------------------

 --
 TD
 --
 Symbolic Z-matrix:
 Charge =  0 Multiplicity = 1

                         Standard orientation:
 ---------------------------------------------------------------------
 Center     Atomic      Atomic             Coordinates (Angstroms)
 Number     Number       Type             X           Y           Z
 ---------------------------------------------------------------------
      1          8           0        3.916155   -5.135358   -1.782758
      2          8           0       -3.173986   -4.898329   -0.924991
      3          8           0       -6.987697   -1.190561   -2.092732
      4          8           0       -3.946812   -3.012701    0.032317
      5          8           0       -7.570413   -0.395331    0.009828
      6          8           0        3.123818    2.263131    0.389814
      7          7           0        0.232180   -0.523363    0.592365
      8          7           0       -1.491026    1.895935    0.360237
      9          7           0        3.130062   -3.198224   -0.737109
     10          7           0        0.947441    2.910783    0.050172
     11          6           0       -0.727301   -2.269177    1.454316
     12          6           0       -1.021483   -1.029770    0.991802
     13          6           0        0.649677   -2.554809    1.365087
     14          6           0        1.197124   -1.375669    0.772506
     15          6           0       -3.741622    1.662164    0.232607
     16          6           0       -2.501542    0.938826    0.496543
     17          6           0       -2.223245   -0.330955    0.907885
     18          6           0       -3.452907    2.934379   -0.082470
     19          6           0       -1.846434   -3.209825    2.152212
     20          6           0        5.302364   -3.130173   -1.293060
     21          6           0        3.502842   -2.013824   -0.294871
     22          6           0       -1.939198    3.133705    0.019905
     23          6           0        4.937222   -1.797170   -0.650307
     24          6           0       -5.056011    1.031860    0.318354
     25          6           0        2.592634   -1.169859    0.277057
     26          6           0        1.284672   -3.832209    1.828767
     27          6           0        4.099456   -3.986151   -1.314570
     28          6           0       -2.383481   -4.378594    1.277378
     29          6           0       -5.371454    0.073725   -0.955907
     30          6           0       -4.362751    4.029868   -0.564366
     31          6           0       -1.041516    4.190240   -0.388825
     32          6           0        6.673733   -3.713321   -0.980433
     33          6           0        5.777406   -0.770425   -0.315470
     34          6           0        0.422644    3.994637   -0.240282
     35          6           0        1.460959    5.138936   -0.355324
     36          6           0        2.613162    4.593148   -0.177452
     37          6           0       -3.230247   -3.969348    0.085672
     38          6           0        5.543358    0.389991    0.625600
     39          6           0       -6.740252   -0.481396   -0.971235
     40          6           0        3.912439    5.237171   -0.324830
     41          6           0        2.301448    3.110517    0.169082
     42          6           0        1.057381    6.512322   -0.635849
     43          6           0        4.528757    5.313099    1.163684
     44          1           0        0.317752    0.323011    0.050196
     45          1           0       -3.224641   -0.935176    1.065528
     46          1           0       -2.712520   -2.584587    2.309325
     47          1           0       -1.347143   -3.611140    2.967379
     48          1           0        5.429113   -2.853814   -2.335075
     49          1           0       -5.175217    0.511051    1.398810
     50          1           0       -5.890511    1.762832    0.401061
     51          1           0        2.724491   -0.039292    0.480252
     52          1           0       -0.497571    1.828171    0.426193
     53          1           0        1.276334   -4.732566    1.288886
     54          1           0        2.302100   -3.752786    2.113493
     55          1           0        0.631584   -4.385340    2.674842
     56          1           0        2.211481   -3.424286   -0.685361
     57          1           0       -1.678705   -5.156059    1.053738
     58          1           0       -3.118017   -4.988076    2.011252
     59          1           0       -4.587154   -0.760788   -0.909444
     60          1           0       -5.069982    0.749578   -1.771455
     61          1           0       -3.731611    5.270635   -0.606659
     62          1           0       -5.596446    4.059813   -0.019397
     63          1           0       -4.575419    4.006872   -1.742773
     64          1           0       -1.345137    5.215634   -0.501286
     65          1           0        7.598358   -3.086033   -1.238700
     66          1           0        6.815203   -4.643540   -1.469219
     67          1           0        6.614732   -3.892913    0.070089
     68          1           0        6.770717   -0.966480   -0.768274
     69          1           0        5.015399    1.288982    0.296014
     70          1           0        6.704759    0.732635    0.673696
     71          1           0        5.052463    0.011460    1.548648
     72          1           0        3.758865    6.253107   -0.594062
     73          1           0        4.636057    4.789227   -1.156944
     74          1           0        0.386917    6.578105   -1.588870
     75          1           0        1.927816    7.108749   -0.867464
     76          1           0        0.471440    6.973818    0.291816
     77          1           0        3.852604    5.844340    1.762391
     78          1           0        5.424605    5.806856    1.164478
     79          1           0        4.522150    4.361387    1.468571
     80          1           0       -3.822645   -4.345187   -1.550757
     81          1           0       -7.998360   -1.592404   -2.181632
 ---------------------------------------------------------------------

 SCF Done:  E(RB3LYP) =  -1949.09755705     A.U. after   16 cycles

 Excitation energies and oscillator strengths:

 Excited State   1:      Singlet-A      1.9910 eV  622.73 nm  f=0.3357  <S**2>=0.000
     156 ->157         0.70341
 This state for optimization and/or second-order correction.
 Total Energy, E(TD-HF/TD-DFT) =  -1949.02439017
 Copying the excited state density for this state as the 1-particle RhoCI density.

 The electronic state is 1-A.
 Alpha  occ. eigenvalues --  -19.19712 -19.19545 -19.15014 -19.12095 -19.11936
 Alpha  occ. eigenvalues --  -19.11006 -14.37811 -14.36902 -14.36099 -14.29698
 Alpha  occ. eigenvalues --  -10.33565 -10.32811 -10.29696 -10.27862 -10.25214
 Alpha  occ. eigenvalues --  -10.24725 -10.24129 -10.23618 -10.23319 -10.23294
 Alpha  occ. eigenvalues --  -10.22310 -10.22191 -10.21620 -10.21472 -10.21068
 Alpha  occ. eigenvalues --  -10.20999 -10.20740 -10.20626 -10.20424 -10.20375
 Alpha  occ. eigenvalues --  -10.20232 -10.20152 -10.19809 -10.19644 -10.19319
 Alpha  occ. eigenvalues --  -10.19188 -10.19044 -10.19019 -10.18979 -10.18946
 Alpha  occ. eigenvalues --  -10.18810 -10.18231 -10.16230  -1.10986  -1.07178
 Alpha  occ. eigenvalues --   -1.04130  -1.03057  -1.01845  -1.00083  -0.98039
 Alpha  occ. eigenvalues --   -0.96888  -0.96864  -0.95489  -0.82791  -0.82364
 Alpha  occ. eigenvalues --   -0.81889  -0.81804  -0.80823  -0.78179  -0.77708
 Alpha  occ. eigenvalues --   -0.76722  -0.76247  -0.75420  -0.73969  -0.72442
 Alpha  occ. eigenvalues --   -0.70792  -0.70403  -0.69352  -0.69013  -0.67827
 Alpha  occ. eigenvalues --   -0.67185  -0.65559  -0.64595  -0.63485  -0.62462
 Alpha  occ. eigenvalues --   -0.59923  -0.59630  -0.59398  -0.58259  -0.57873
 Alpha  occ. eigenvalues --   -0.56384  -0.55583  -0.54565  -0.54114  -0.53760
 Alpha  occ. eigenvalues --   -0.52963  -0.52418  -0.51717  -0.50541  -0.50147
 Alpha  occ. eigenvalues --   -0.49730  -0.48942  -0.48199  -0.48047  -0.47521
 Alpha  occ. eigenvalues --   -0.47048  -0.46758  -0.46531  -0.46206  -0.45458
 Alpha  occ. eigenvalues --   -0.45355  -0.45176  -0.44622  -0.44418  -0.43856
 Alpha  occ. eigenvalues --   -0.43441  -0.42930  -0.42802  -0.42433  -0.42116
 Alpha  occ. eigenvalues --   -0.42021  -0.41679  -0.41443  -0.41154  -0.40812
 Alpha  occ. eigenvalues --   -0.40694  -0.40437  -0.40193  -0.40095  -0.39817
 Alpha  occ. eigenvalues --   -0.39357  -0.39033  -0.38466  -0.38126  -0.38039
 Alpha  occ. eigenvalues --   -0.37804  -0.37486  -0.37202  -0.36960  -0.36754
 Alpha  occ. eigenvalues --   -0.36491  -0.35804  -0.35406  -0.35124  -0.34615
 Alpha  occ. eigenvalues --   -0.34343  -0.34211  -0.34008  -0.33926  -0.33542
 Alpha  occ. eigenvalues --   -0.33291  -0.32620  -0.30975  -0.30824  -0.30254
 Alpha  occ. eigenvalues --   -0.28531  -0.27264  -0.26413  -0.26306  -0.25747
 Alpha  occ. eigenvalues --   -0.25591  -0.25286  -0.25122  -0.24022  -0.21473
 Alpha  occ. eigenvalues --   -0.17723
 Alpha virt. eigenvalues --   -0.09553  -0.05493  -0.03995  -0.01940  -0.01346
 Alpha virt. eigenvalues --   -0.00550   0.00834   0.01375   0.02518   0.03148
 Alpha virt. eigenvalues --    0.03815   0.04258   0.04815   0.04945   0.05671

 Mulliken charges:
               1
     1  O   -0.241147
     2  O   -0.224853
     3  O   -0.248050
     4  O   -0.216898
     5  O   -0.296844
     6  O   -0.170211
     7  N   -0.016752
     8  N   -0.084940
     9  N    0.007452
    10  N   -0.182037
    11  C   -0.119836
    12  C    0.077542
    13  C   -0.133325
    14  C   -0.050431
    15  C   -0.033521
    16  C    0.034776
    17  C   -0.083126
    18  C   -0.052108
    19  C    0.177114
    20  C   -0.040137
    21  C    0.062729
    22  C    0.077938
    23  C   -0.012613
    24  C    0.024452
    25  C   -0.138292
    26  C    0.070797
    27  C    0.129298
    28  C   -0.016985
    29  C   -0.027240
    30  C   -0.123435
    31  C   -0.068664
    32  C    0.069086
    33  C   -0.151294
    34  C   -0.028796
    35  C   -0.076327
    36  C   -0.201310
    37  C    0.151110
    38  C    0.041801
    39  C    0.211675
    40  C    0.039142
    41  C    0.141618
    42  C    0.060149
    43  C    0.097751
    44  H    0.121351
    45  H    0.051911
    46  H    0.009155
    47  H   -0.009084
    48  H    0.040160
    49  H    0.045604
    50  H    0.005249
    51  H    0.048743
    52  H    0.099488
    53  H    0.005534
    54  H    0.015132
    55  H   -0.000330
    56  H    0.087049
    57  H    0.014403
    58  H    0.060622
    59  H    0.077724
    60  H    0.044172
    61  H    0.044518
    62  H    0.067121
    63  H    0.057189
    64  H   -0.031207
    65  H    0.029981
    66  H    0.016738
    67  H    0.008425
    68  H   -0.012215
    69  H    0.070136
    70  H    0.019025
    71  H    0.044543
    72  H   -0.025664
    73  H    0.037751
    74  H    0.040467
    75  H    0.000535
    76  H    0.052266
    77  H   -0.011422
    78  H   -0.008702
    79  H   -0.002863
    80  H    0.204953
    81  H    0.246282
 Sum of Mulliken charges =  -0.00000

 Dipole moment (field-independent basis, Debye):
    X=             -1.0808    Y=              1.7445    Z=             -1.2789  Tot=              2.4181
 Quadrupole moment (field-independent basis, Debye-Ang):
   XX=           -247.5939   YY=           -245.9937   ZZ=           -253.2963
   XY=             18.9182   XZ=             15.9172   YZ=            -14.1248

 Normal termination of Gaussian 16 at Wed Jul  3 19:05:08 2019.
