 Gaussian 16, Revision A.03,
 Gaussian 16:  ES64L-G16RevA.03 25-Dec-2016

 --------------------------
 # td=(NStates=1) B3LYP/SVP
 --------------------------

 --
 TD
 --
 Symbolic Z-matrix:
 Charge =  0 Multiplicity = 1

                         Standard orientation:
 ---------------------------------------------------------------------
 Center     Atomic      Atomic             Coordinates (Angstroms)
 Number     Number       Type             X           Y           Z
 ---------------------------------------------------------------------
      1          8           0        4.287429   -4.756222   -1.814866
      2          8           0       -2.873062   -4.841322   -1.253660
      3          8           0       -7.098058   -1.587186   -1.736502
      4          8           0       -3.737735   -3.246674   -0.005957
      5          8           0       -7.719222   -0.533101    0.151814
      6          8           0        3.018648    2.359425    0.294523
      7          7           0        0.247100   -0.463780    0.614266
      8          7           0       -1.556210    1.851041    0.533785
      9          7           0        3.261829   -2.998001   -0.683708
     10          7           0        0.704801    2.937643    0.174420
     11          6           0       -0.557668   -2.455440    1.375677
     12          6           0       -0.944682   -1.182251    0.888546
     13          6           0        0.834861   -2.542316    1.210849
     14          6           0        1.287774   -1.311633    0.677489
     15          6           0       -3.787111    1.465630    0.298304
     16          6           0       -2.506455    0.853871    0.629268
     17          6           0       -2.263365   -0.463174    0.932701
     18          6           0       -3.631238    2.771714   -0.024692
     19          6           0       -1.534264   -3.559611    1.874542
     20          6           0        5.490810   -2.694379   -1.260032
     21          6           0        3.621949   -1.724175   -0.182432
     22          6           0       -2.139028    2.958676    0.162005
     23          6           0        5.000777   -1.568533   -0.421728
     24          6           0       -5.173923    0.751701    0.324038
     25          6           0        2.685144   -0.939497    0.300671
     26          6           0        1.666521   -3.729786    1.714274
     27          6           0        4.356586   -3.671787   -1.331634
     28          6           0       -1.914124   -4.648470    0.890191
     29          6           0       -5.422104   -0.164324   -0.815267
     30          6           0       -4.596109    3.888109   -0.422151
     31          6           0       -1.421374    4.059788   -0.256264
     32          6           0        6.797993   -3.448944   -0.712756
     33          6           0        5.840643   -0.552691   -0.004025
     34          6           0        0.026940    4.020891   -0.234489
     35          6           0        1.034679    5.121980   -0.543210
     36          6           0        2.372868    4.650635   -0.283353
     37          6           0       -2.912346   -4.117961   -0.122627
     38          6           0        5.495942    0.701792    0.725542
     39          6           0       -6.831493   -0.764928   -0.779481
     40          6           0        3.660455    5.288385   -0.432891
     41          6           0        2.156326    3.166166    0.100811
     42          6           0        0.546070    6.544970   -0.804780
     43          6           0        4.354516    5.468458    0.904041
     44          1           0        0.381246    0.370312   -0.129253
     45          1           0       -3.141784   -1.107625    0.820298
     46          1           0       -2.356916   -2.972096    2.242646
     47          1           0       -1.140884   -3.931318    2.900723
     48          1           0        5.687594   -2.100256   -2.228514
     49          1           0       -5.317556    0.284765    1.221107
     50          1           0       -6.053760    1.438051    0.487954
     51          1           0        3.000019    0.107540    0.386709
     52          1           0       -0.474464    1.995989    0.693173
     53          1           0        1.590618   -4.568672    1.022781
     54          1           0        2.809948   -3.440038    1.607896
     55          1           0        1.454149   -4.079607    2.688175
     56          1           0        2.252934   -3.351050   -0.668647
     57          1           0       -0.815399   -5.099167    0.395520
     58          1           0       -2.328115   -5.370613    1.580023
     59          1           0       -4.563270   -0.968441   -1.011647
     60          1           0       -5.315976    0.485332   -1.663178
     61          1           0       -4.735754    4.361761    0.690912
     62          1           0       -5.543593    3.357357   -0.761588
     63          1           0       -4.161274    4.636893   -1.327138
     64          1           0       -1.881428    4.942639   -0.661830
     65          1           0        7.643061   -2.904592   -0.820833
     66          1           0        6.907168   -4.358509   -1.305272
     67          1           0        6.770426   -3.637730    0.247464
     68          1           0        6.964810   -0.862610   -0.243127
     69          1           0        4.883443    1.401353    0.004358
     70          1           0        6.445526    1.149859    1.033737
     71          1           0        4.635091    0.555325    1.561278
     72          1           0        3.604617    6.266476   -0.779901
     73          1           0        4.379429    4.712655   -1.202275
     74          1           0       -0.186387    6.723451   -1.818842
     75          1           0        1.324655    7.214211   -1.031425
     76          1           0        0.001298    7.087444    0.007191
     77          1           0        3.996325    6.138439    1.466090
     78          1           0        5.416340    5.864630    0.659809
     79          1           0        4.455392    4.444224    1.557887
     80          1           0       -3.622104   -4.521354   -1.754479
     81          1           0       -8.165496   -1.749882   -1.684746
 ---------------------------------------------------------------------

 SCF Done:  E(RB3LYP) =  -1949.10674782     A.U. after   16 cycles

 Excitation energies and oscillator strengths:

 Excited State   1:      Singlet-A      1.7254 eV  718.57 nm  f=0.2039  <S**2>=0.000
     156 ->157         0.70416
 This state for optimization and/or second-order correction.
 Total Energy, E(TD-HF/TD-DFT) =  -1949.04333931
 Copying the excited state density for this state as the 1-particle RhoCI density.

 The electronic state is 1-A.
 Alpha  occ. eigenvalues --  -19.20545 -19.19130 -19.14632 -19.12424 -19.11717
 Alpha  occ. eigenvalues --  -19.10890 -14.37593 -14.35212 -14.35212 -14.29942
 Alpha  occ. eigenvalues --  -10.33796 -10.32718 -10.28633 -10.28543 -10.23692
 Alpha  occ. eigenvalues --  -10.23424 -10.23324 -10.23206 -10.23131 -10.22888
 Alpha  occ. eigenvalues --  -10.22757 -10.22196 -10.21967 -10.21298 -10.20944
 Alpha  occ. eigenvalues --  -10.20910 -10.20900 -10.20577 -10.20561 -10.20462
 Alpha  occ. eigenvalues --  -10.20406 -10.20084 -10.19759 -10.19443 -10.19138
 Alpha  occ. eigenvalues --  -10.19136 -10.18866 -10.18748 -10.18682 -10.18630
 Alpha  occ. eigenvalues --  -10.18097 -10.17390 -10.16992  -1.12096  -1.10608
 Alpha  occ. eigenvalues --   -1.04067  -1.03909  -1.02199  -0.98994  -0.97107
 Alpha  occ. eigenvalues --   -0.96020  -0.93686  -0.90842  -0.82257  -0.81520
 Alpha  occ. eigenvalues --   -0.80875  -0.80433  -0.79754  -0.78010  -0.77721
 Alpha  occ. eigenvalues --   -0.77300  -0.75485  -0.74975  -0.73438  -0.71738
 Alpha  occ. eigenvalues --   -0.70083  -0.69642  -0.68898  -0.67784  -0.67488
 Alpha  occ. eigenvalues --   -0.67012  -0.64567  -0.63706  -0.62479  -0.61075
 Alpha  occ. eigenvalues --   -0.60728  -0.59952  -0.58738  -0.56909  -0.56594
 Alpha  occ. eigenvalues --   -0.55355  -0.55237  -0.53939  -0.53227  -0.52641
 Alpha  occ. eigenvalues --   -0.51720  -0.51252  -0.50716  -0.50236  -0.49955
 Alpha  occ. eigenvalues --   -0.48900  -0.48806  -0.48743  -0.48101  -0.47706
 Alpha  occ. eigenvalues --   -0.46650  -0.46401  -0.46348  -0.45502  -0.45112
 Alpha  occ. eigenvalues --   -0.44398  -0.44057  -0.43733  -0.43554  -0.43359
 Alpha  occ. eigenvalues --   -0.43194  -0.42706  -0.42619  -0.42337  -0.42270
 Alpha  occ. eigenvalues --   -0.41616  -0.41514  -0.41354  -0.40775  -0.40374
 Alpha  occ. eigenvalues --   -0.40251  -0.39959  -0.39751  -0.39616  -0.39368
 Alpha  occ. eigenvalues --   -0.39322  -0.39074  -0.38919  -0.38521  -0.38207
 Alpha  occ. eigenvalues --   -0.37797  -0.37672  -0.37515  -0.37330  -0.37013
 Alpha  occ. eigenvalues --   -0.36117  -0.35549  -0.35148  -0.35004  -0.34663
 Alpha  occ. eigenvalues --   -0.34461  -0.34053  -0.33949  -0.33817  -0.33667
 Alpha  occ. eigenvalues --   -0.33084  -0.32513  -0.30565  -0.30228  -0.29631
 Alpha  occ. eigenvalues --   -0.28610  -0.27248  -0.26097  -0.26057  -0.25601
 Alpha  occ. eigenvalues --   -0.25010  -0.24587  -0.23976  -0.23204  -0.21093
 Alpha  occ. eigenvalues --   -0.17455
 Alpha virt. eigenvalues --   -0.10083  -0.05794  -0.03610  -0.02029  -0.01274
 Alpha virt. eigenvalues --    0.00538   0.01582   0.02112   0.02667   0.03190
 Alpha virt. eigenvalues --    0.03557   0.04577   0.05069   0.05431   0.05529

 Mulliken charges:
               1
     1  O   -0.175325
     2  O   -0.151455
     3  O   -0.169616
     4  O   -0.217990
     5  O   -0.334874
     6  O   -0.168241
     7  N   -0.111774
     8  N   -0.068895
     9  N   -0.227202
    10  N   -0.378878
    11  C   -0.124718
    12  C    0.011523
    13  C   -0.200724
    14  C    0.041350
    15  C   -0.082880
    16  C    0.096183
    17  C   -0.057850
    18  C   -0.132285
    19  C    0.069322
    20  C   -0.119897
    21  C    0.143631
    22  C    0.067681
    23  C   -0.031759
    24  C    0.114443
    25  C   -0.129700
    26  C    0.089912
    27  C    0.167773
    28  C    0.017643
    29  C   -0.008574
    30  C    0.002305
    31  C   -0.096165
    32  C    0.155611
    33  C   -0.164191
    34  C    0.074163
    35  C   -0.064232
    36  C   -0.164879
    37  C    0.139819
    38  C    0.016915
    39  C    0.164184
    40  C    0.098665
    41  C    0.201315
    42  C    0.024801
    43  C    0.003837
    44  H    0.191719
    45  H    0.022023
    46  H    0.002625
    47  H    0.012964
    48  H    0.066896
    49  H   -0.018163
    50  H    0.009684
    51  H   -0.014845
    52  H    0.183728
    53  H    0.003679
    54  H    0.041951
    55  H    0.014239
    56  H    0.149846
    57  H    0.080077
    58  H    0.050674
    59  H    0.074067
    60  H    0.018356
    61  H    0.072507
    62  H    0.042422
    63  H    0.069059
    64  H   -0.038700
    65  H   -0.018951
    66  H    0.026757
    67  H   -0.028243
    68  H    0.005279
    69  H    0.084793
    70  H    0.016509
    71  H    0.060665
    72  H   -0.029491
    73  H    0.039754
    74  H    0.031918
    75  H   -0.009202
    76  H    0.041509
    77  H   -0.040947
    78  H    0.009109
    79  H    0.049564
    80  H    0.168991
    81  H    0.238208
 Sum of Mulliken charges =  -0.00000

 Dipole moment (field-independent basis, Debye):
    X=             -2.1134    Y=              2.1506    Z=             -1.6459  Tot=              3.4352
 Quadrupole moment (field-independent basis, Debye-Ang):
   XX=           -248.3895   YY=           -236.1685   ZZ=           -254.2691
   XY=             19.3132   XZ=             19.6734   YZ=            -13.5335

 Normal termination of Gaussian 16 at Tue Jul  2 13:12:18 2019.
