 Gaussian 16, Revision A.03,
 Gaussian 16:  ES64L-G16RevA.03 25-Dec-2016

 --------------------------
 # td=(NStates=1) B3LYP/SVP
 --------------------------

 --
 TD
 --
 Symbolic Z-matrix:
 Charge =  0 Multiplicity = 1

                         Standard orientation:
 ---------------------------------------------------------------------
 Center     Atomic      Atomic             Coordinates (Angstroms)
 Number     Number       Type             X           Y           Z
 ---------------------------------------------------------------------
      1          8           0        4.002915   -5.161299   -1.752137
      2          8           0       -3.580022   -4.769274   -1.056434
      3          8           0       -6.980281   -1.127055   -1.914905
      4          8           0       -4.060517   -2.802290    0.064927
      5          8           0       -7.470290   -0.544376    0.172750
      6          8           0        3.203729    2.295364    0.443036
      7          7           0        0.200499   -0.522339    0.643916
      8          7           0       -1.387573    2.007756    0.501604
      9          7           0        3.102622   -3.408217   -0.553189
     10          7           0        0.923893    2.864735    0.117858
     11          6           0       -0.755202   -2.337235    1.328100
     12          6           0       -1.015236   -0.979515    0.995190
     13          6           0        0.528260   -2.716391    1.145729
     14          6           0        1.172210   -1.503848    0.643724
     15          6           0       -3.660654    1.769442    0.263739
     16          6           0       -2.410748    1.044667    0.528621
     17          6           0       -2.255432   -0.303568    0.940259
     18          6           0       -3.262942    3.044047   -0.055080
     19          6           0       -1.918728   -3.220480    1.884698
     20          6           0        5.259059   -3.026597   -1.293326
     21          6           0        3.464218   -2.090837   -0.136442
     22          6           0       -1.884276    3.239019    0.071333
     23          6           0        4.830449   -1.879846   -0.563565
     24          6           0       -5.029019    1.126836    0.256630
     25          6           0        2.539685   -1.231808    0.361973
     26          6           0        1.209437   -3.906098    1.760857
     27          6           0        4.068072   -4.078960   -1.246137
     28          6           0       -2.423860   -4.298803    0.971071
     29          6           0       -5.436746    0.290154   -0.950894
     30          6           0       -4.081412    4.233593   -0.466789
     31          6           0       -0.985809    4.215540   -0.301924
     32          6           0        6.518465   -3.679525   -0.839836
     33          6           0        5.787143   -0.924591   -0.247484
     34          6           0        0.422351    4.037360   -0.254492
     35          6           0        1.352290    5.124531   -0.454388
     36          6           0        2.648214    4.551529   -0.233704
     37          6           0       -3.500492   -3.875281   -0.060840
     38          6           0        5.516787    0.264651    0.642203
     39          6           0       -6.749173   -0.501679   -0.777059
     40          6           0        4.046730    5.025855   -0.319263
     41          6           0        2.324206    3.092575    0.082466
     42          6           0        1.002261    6.527663   -0.776863
     43          6           0        4.858532    5.076817    0.998619
     44          1           0        0.326097    0.115337   -0.119117
     45          1           0       -3.111672   -0.923226    1.216916
     46          1           0       -2.789287   -2.471613    2.153426
     47          1           0       -1.629596   -3.660714    2.882154
     48          1           0        5.341699   -2.985538   -2.335787
     49          1           0       -5.353781    0.680872    1.201064
     50          1           0       -5.815517    1.998609    0.206430
     51          1           0        2.856755   -0.256013    0.363815
     52          1           0       -0.325444    1.927765    0.399019
     53          1           0        0.897669   -4.868859    1.138778
     54          1           0        2.282191   -3.578692    1.585485
     55          1           0        0.806350   -3.930323    2.643539
     56          1           0        2.198814   -3.561785   -0.377441
     57          1           0       -1.495993   -4.705284    0.552559
     58          1           0       -3.094653   -4.937096    1.719658
     59          1           0       -4.567048   -0.422194   -0.971618
     60          1           0       -5.384748    0.861618   -1.780966
     61          1           0       -3.897507    5.141994    0.327408
     62          1           0       -5.253704    3.956484   -0.513147
     63          1           0       -3.968879    4.478126   -1.408641
     64          1           0       -1.379179    5.096869   -0.849879
     65          1           0        7.495055   -3.103466   -1.098498
     66          1           0        6.808480   -4.622761   -1.266329
     67          1           0        6.767968   -4.052586    0.323217
     68          1           0        6.844844   -1.014608   -0.703821
     69          1           0        5.157784    1.203084    0.283553
     70          1           0        6.439840    0.653013    0.919130
     71          1           0        5.004069   -0.053447    1.534128
     72          1           0        4.090457    6.084865   -0.731826
     73          1           0        4.637675    4.443456   -1.168423
     74          1           0        0.654917    6.440028   -1.657748
     75          1           0        1.984115    7.157398   -0.882854
     76          1           0        0.393039    6.926511   -0.003785
     77          1           0        4.533142    5.839874    1.688792
     78          1           0        5.919801    5.275901    0.847476
     79          1           0        4.922724    4.212121    1.373214
     80          1           0       -4.305935   -4.312480   -1.534828
     81          1           0       -7.862747   -1.410643   -1.967033
 ---------------------------------------------------------------------

 SCF Done:  E(RB3LYP) =  -1949.09990535     A.U. after   17 cycles

 Excitation energies and oscillator strengths:

 Excited State   1:      Singlet-A      1.7055 eV  726.97 nm  f=0.3596  <S**2>=0.000
     156 ->157         0.71543
     156 <-157        -0.14670
 This state for optimization and/or second-order correction.
 Total Energy, E(TD-HF/TD-DFT) =  -1949.03722987
 Copying the excited state density for this state as the 1-particle RhoCI density.

 The electronic state is 1-A.
 Alpha  occ. eigenvalues --  -19.21553 -19.18389 -19.15258 -19.12944 -19.11207
 Alpha  occ. eigenvalues --  -19.10228 -14.37673 -14.36454 -14.34138 -14.29068
 Alpha  occ. eigenvalues --  -10.34272 -10.32265 -10.29247 -10.26466 -10.24525
 Alpha  occ. eigenvalues --  -10.24041 -10.23289 -10.22777 -10.22560 -10.22385
 Alpha  occ. eigenvalues --  -10.22206 -10.21427 -10.21178 -10.20948 -10.20466
 Alpha  occ. eigenvalues --  -10.20324 -10.20150 -10.20117 -10.20068 -10.19867
 Alpha  occ. eigenvalues --  -10.19778 -10.19707 -10.19601 -10.19585 -10.19579
 Alpha  occ. eigenvalues --  -10.19530 -10.19469 -10.19295 -10.18720 -10.18527
 Alpha  occ. eigenvalues --  -10.18356 -10.16113 -10.15868  -1.12657  -1.11673
 Alpha  occ. eigenvalues --   -1.04335  -1.03523  -1.02038  -1.00256  -0.99821
 Alpha  occ. eigenvalues --   -0.96441  -0.96164  -0.91779  -0.83217  -0.82661
 Alpha  occ. eigenvalues --   -0.81633  -0.81295  -0.79571  -0.79315  -0.78291
 Alpha  occ. eigenvalues --   -0.77364  -0.76715  -0.75723  -0.74610  -0.72641
 Alpha  occ. eigenvalues --   -0.71363  -0.70415  -0.69679  -0.68402  -0.67798
 Alpha  occ. eigenvalues --   -0.67684  -0.66082  -0.65331  -0.63327  -0.62099
 Alpha  occ. eigenvalues --   -0.60759  -0.60548  -0.59979  -0.59032  -0.57104
 Alpha  occ. eigenvalues --   -0.55587  -0.55173  -0.54520  -0.53397  -0.52527
 Alpha  occ. eigenvalues --   -0.52313  -0.51981  -0.51725  -0.51490  -0.50613
 Alpha  occ. eigenvalues --   -0.49976  -0.49245  -0.49173  -0.48451  -0.48003
 Alpha  occ. eigenvalues --   -0.47568  -0.47279  -0.46720  -0.46326  -0.45755
 Alpha  occ. eigenvalues --   -0.45607  -0.44960  -0.44691  -0.44462  -0.44274
 Alpha  occ. eigenvalues --   -0.43973  -0.43871  -0.43195  -0.42922  -0.42497
 Alpha  occ. eigenvalues --   -0.42307  -0.41958  -0.41669  -0.41353  -0.41155
 Alpha  occ. eigenvalues --   -0.40926  -0.40836  -0.40307  -0.39883  -0.39290
 Alpha  occ. eigenvalues --   -0.39286  -0.38994  -0.38701  -0.38368  -0.38122
 Alpha  occ. eigenvalues --   -0.38036  -0.37650  -0.37095  -0.36748  -0.36419
 Alpha  occ. eigenvalues --   -0.35953  -0.35552  -0.35337  -0.35214  -0.34551
 Alpha  occ. eigenvalues --   -0.34405  -0.34179  -0.34014  -0.33555  -0.33255
 Alpha  occ. eigenvalues --   -0.33146  -0.32947  -0.32077  -0.30237  -0.29766
 Alpha  occ. eigenvalues --   -0.28709  -0.28423  -0.26863  -0.26773  -0.26129
 Alpha  occ. eigenvalues --   -0.25112  -0.24778  -0.23707  -0.22851  -0.21870
 Alpha  occ. eigenvalues --   -0.17339
 Alpha virt. eigenvalues --   -0.10779  -0.06412  -0.04340  -0.01724   0.00685
 Alpha virt. eigenvalues --    0.00961   0.02089   0.02904   0.03780   0.04147
 Alpha virt. eigenvalues --    0.04410   0.04954   0.05616   0.06279   0.06460

 Mulliken charges:
               1
     1  O   -0.182055
     2  O   -0.144595
     3  O   -0.137323
     4  O   -0.227069
     5  O   -0.200332
     6  O   -0.226471
     7  N   -0.012044
     8  N   -0.146574
     9  N   -0.068077
    10  N   -0.289506
    11  C   -0.096478
    12  C    0.013880
    13  C   -0.200568
    14  C    0.002600
    15  C   -0.044605
    16  C    0.057717
    17  C   -0.028885
    18  C   -0.127582
    19  C    0.027078
    20  C   -0.017629
    21  C    0.033010
    22  C    0.109309
    23  C    0.051911
    24  C    0.038122
    25  C   -0.022974
    26  C    0.150083
    27  C    0.124843
    28  C    0.022092
    29  C    0.035236
    30  C    0.097280
    31  C   -0.146894
    32  C   -0.030185
    33  C   -0.159132
    34  C    0.088072
    35  C   -0.169627
    36  C   -0.135692
    37  C    0.128047
    38  C    0.128654
    39  C    0.126871
    40  C   -0.000119
    41  C    0.171306
    42  C    0.224053
    43  C    0.114270
    44  H    0.147551
    45  H    0.018514
    46  H    0.019277
    47  H    0.013077
    48  H    0.016578
    49  H    0.025682
    50  H   -0.000603
    51  H   -0.045915
    52  H    0.146092
    53  H    0.044481
    54  H    0.054281
    55  H   -0.015447
    56  H    0.068077
    57  H    0.038959
    58  H    0.058940
    59  H    0.044511
    60  H   -0.006168
    61  H    0.053324
    62  H    0.007899
    63  H   -0.019603
    64  H   -0.020034
    65  H    0.011624
    66  H    0.008461
    67  H    0.022956
    68  H    0.022722
    69  H    0.046145
    70  H   -0.035929
    71  H    0.022899
    72  H   -0.007673
    73  H    0.031200
    74  H   -0.028907
    75  H    0.016079
    76  H    0.027210
    77  H    0.007648
    78  H   -0.015710
    79  H   -0.039041
    80  H    0.177259
    81  H    0.153566
 Sum of Mulliken charges =  -0.00000

 Dipole moment (field-independent basis, Debye):
    X=             -2.7203    Y=              0.7745    Z=             -2.0550  Tot=              3.4961
 Quadrupole moment (field-independent basis, Debye-Ang):
   XX=           -241.5812   YY=           -247.5313   ZZ=           -252.7843
   XY=             19.7041   XZ=             17.4814   YZ=            -15.5057

 Normal termination of Gaussian 16 at Thu Jun 27 21:30:53 2019.
