 Gaussian 16, Revision A.03,
 Gaussian 16:  ES64L-G16RevA.03 25-Dec-2016

 --------------------------
 # td=(NStates=1) B3LYP/SVP
 --------------------------

 --
 TD
 --
 Symbolic Z-matrix:
 Charge =  0 Multiplicity = 1

                         Standard orientation:
 ---------------------------------------------------------------------
 Center     Atomic      Atomic             Coordinates (Angstroms)
 Number     Number       Type             X           Y           Z
 ---------------------------------------------------------------------
      1          8           0        4.357229   -4.876783   -1.750010
      2          8           0       -3.272387   -4.919663   -0.977237
      3          8           0       -6.899395   -1.629554   -1.929273
      4          8           0       -3.558141   -3.037468    0.117068
      5          8           0       -7.549865   -0.634331   -0.027739
      6          8           0        2.961636    2.390500    0.484029
      7          7           0        0.222483   -0.476360    0.572622
      8          7           0       -1.588151    1.872256    0.534993
      9          7           0        3.367789   -3.076482   -0.684041
     10          7           0        0.749125    2.873970    0.192911
     11          6           0       -0.658382   -2.358340    1.368116
     12          6           0       -0.973744   -1.057703    0.916659
     13          6           0        0.744478   -2.493639    1.342534
     14          6           0        1.300957   -1.361581    0.806361
     15          6           0       -3.827528    1.531108    0.393715
     16          6           0       -2.589985    0.857333    0.717659
     17          6           0       -2.255434   -0.525743    0.889288
     18          6           0       -3.610246    2.772551   -0.033180
     19          6           0       -1.462212   -3.454260    2.036695
     20          6           0        5.599401   -2.703023   -1.345437
     21          6           0        3.607832   -1.781559   -0.205697
     22          6           0       -2.270622    2.982910    0.093349
     23          6           0        5.067675   -1.591119   -0.556943
     24          6           0       -5.144530    0.798809    0.281843
     25          6           0        2.671792   -0.964733    0.273885
     26          6           0        1.618745   -3.700527    1.798144
     27          6           0        4.361349   -3.725271   -1.344074
     28          6           0       -1.926122   -4.514820    0.985639
     29          6           0       -5.314382   -0.178115   -0.965614
     30          6           0       -4.614628    3.750343   -0.480254
     31          6           0       -1.275373    4.049251   -0.201617
     32          6           0        6.887508   -3.351477   -1.066040
     33          6           0        5.807742   -0.581514   -0.162984
     34          6           0        0.026655    4.001177   -0.166036
     35          6           0        1.001958    5.183815   -0.526559
     36          6           0        2.234380    4.684010   -0.241962
     37          6           0       -2.994179   -4.072647    0.014836
     38          6           0        5.399652    0.696897    0.608920
     39          6           0       -6.724613   -0.851547   -0.862106
     40          6           0        3.606132    5.342074   -0.298779
     41          6           0        2.085207    3.233342    0.242175
     42          6           0        0.536412    6.503114   -1.120280
     43          6           0        4.348998    5.380024    1.079037
     44          1           0        0.347199    0.443637   -0.038250
     45          1           0       -3.174353   -1.204802    1.088359
     46          1           0       -2.233250   -2.887948    2.505950
     47          1           0       -0.852553   -4.030395    2.885002
     48          1           0        5.409820   -2.387044   -2.534214
     49          1           0       -5.364747    0.363934    1.132880
     50          1           0       -5.976261    1.548523    0.181962
     51          1           0        2.975462    0.060348    0.346581
     52          1           0       -0.595823    1.946716    0.483446
     53          1           0        1.664590   -4.495316    1.026572
     54          1           0        2.701496   -3.558631    1.888915
     55          1           0        1.407182   -4.215355    2.718035
     56          1           0        2.346133   -3.435026   -0.818160
     57          1           0       -1.222610   -5.096285    0.398729
     58          1           0       -2.415177   -5.188376    1.593469
     59          1           0       -4.534114   -0.901550   -0.871824
     60          1           0       -5.099135    0.353621   -1.846650
     61          1           0       -4.502605    4.747571   -0.130280
     62          1           0       -5.538649    3.302361   -0.587247
     63          1           0       -4.459321    4.062639   -1.476826
     64          1           0       -1.956038    5.138562   -0.490760
     65          1           0        7.808090   -2.425811   -1.180021
     66          1           0        7.142325   -4.408657   -1.416163
     67          1           0        6.930917   -3.569608    0.110004
     68          1           0        6.865923   -0.543054   -0.335516
     69          1           0        4.962346    1.424324   -0.032339
     70          1           0        6.234878    0.987858    1.292401
     71          1           0        4.538403    0.510270    1.326838
     72          1           0        3.506879    6.451051   -0.520259
     73          1           0        4.260373    4.838767   -1.082823
     74          1           0        0.065258    6.425566   -1.972597
     75          1           0        1.416212    7.131127   -1.125835
     76          1           0        0.020389    7.096809   -0.169317
     77          1           0        3.898701    6.130341    1.823531
     78          1           0        5.469735    5.885272    0.862151
     79          1           0        4.604216    4.400260    1.414248
     80          1           0       -4.003984   -4.570133   -1.636488
     81          1           0       -7.808603   -2.021712   -2.091360
 ---------------------------------------------------------------------

 SCF Done:  E(RB3LYP) =  -1949.10350070     A.U. after   18 cycles

 Excitation energies and oscillator strengths:

 Excited State   1:      Singlet-A      1.9377 eV  639.86 nm  f=0.3066  <S**2>=0.000
     156 ->157         0.70471
     156 <-157        -0.10442
 This state for optimization and/or second-order correction.
 Total Energy, E(TD-HF/TD-DFT) =  -1949.03229288
 Copying the excited state density for this state as the 1-particle RhoCI density.

 The electronic state is 1-A.
 Alpha  occ. eigenvalues --  -19.20041 -19.19085 -19.14019 -19.13378 -19.10767
 Alpha  occ. eigenvalues --  -19.08411 -14.38046 -14.37416 -14.34908 -14.27612
 Alpha  occ. eigenvalues --  -10.33440 -10.32924 -10.28931 -10.25307 -10.24383
 Alpha  occ. eigenvalues --  -10.24284 -10.23719 -10.23661 -10.23524 -10.22770
 Alpha  occ. eigenvalues --  -10.22340 -10.21696 -10.21466 -10.21428 -10.21332
 Alpha  occ. eigenvalues --  -10.20452 -10.20442 -10.20275 -10.19820 -10.19818
 Alpha  occ. eigenvalues --  -10.19671 -10.19491 -10.19466 -10.19278 -10.19266
 Alpha  occ. eigenvalues --  -10.19252 -10.19137 -10.18845 -10.18752 -10.18473
 Alpha  occ. eigenvalues --  -10.18440 -10.18433 -10.16878  -1.11782  -1.10334
 Alpha  occ. eigenvalues --   -1.02855  -1.02537  -1.01855  -0.98932  -0.97946
 Alpha  occ. eigenvalues --   -0.97121  -0.95115  -0.89182  -0.83196  -0.82352
 Alpha  occ. eigenvalues --   -0.81750  -0.81081  -0.78820  -0.78271  -0.77906
 Alpha  occ. eigenvalues --   -0.77257  -0.75952  -0.74165  -0.73567  -0.72433
 Alpha  occ. eigenvalues --   -0.72013  -0.69830  -0.69079  -0.68685  -0.67808
 Alpha  occ. eigenvalues --   -0.67730  -0.65258  -0.63797  -0.62383  -0.61945
 Alpha  occ. eigenvalues --   -0.61334  -0.59761  -0.59350  -0.57366  -0.56536
 Alpha  occ. eigenvalues --   -0.56207  -0.55468  -0.54460  -0.53395  -0.52680
 Alpha  occ. eigenvalues --   -0.52178  -0.51444  -0.50651  -0.50412  -0.50368
 Alpha  occ. eigenvalues --   -0.49979  -0.49048  -0.48409  -0.48247  -0.47769
 Alpha  occ. eigenvalues --   -0.46860  -0.46532  -0.45960  -0.45393  -0.44924
 Alpha  occ. eigenvalues --   -0.44671  -0.44497  -0.44088  -0.43738  -0.43619
 Alpha  occ. eigenvalues --   -0.43238  -0.43127  -0.42740  -0.42500  -0.42011
 Alpha  occ. eigenvalues --   -0.41863  -0.41522  -0.41507  -0.41319  -0.40796
 Alpha  occ. eigenvalues --   -0.40437  -0.40247  -0.39987  -0.39853  -0.39499
 Alpha  occ. eigenvalues --   -0.38983  -0.38799  -0.38650  -0.38317  -0.37756
 Alpha  occ. eigenvalues --   -0.37257  -0.37212  -0.36665  -0.36365  -0.36217
 Alpha  occ. eigenvalues --   -0.35449  -0.35110  -0.34990  -0.34731  -0.34540
 Alpha  occ. eigenvalues --   -0.34336  -0.34094  -0.33524  -0.33441  -0.33127
 Alpha  occ. eigenvalues --   -0.32214  -0.31556  -0.31277  -0.29903  -0.29520
 Alpha  occ. eigenvalues --   -0.29132  -0.26460  -0.26275  -0.25972  -0.25528
 Alpha  occ. eigenvalues --   -0.25364  -0.24350  -0.23130  -0.23074  -0.21366
 Alpha  occ. eigenvalues --   -0.18456
 Alpha virt. eigenvalues --   -0.10568  -0.04299  -0.03125  -0.00323   0.00321
 Alpha virt. eigenvalues --    0.00841   0.01303   0.01714   0.03105   0.03342
 Alpha virt. eigenvalues --    0.04080   0.04646   0.04863   0.05442   0.05928

 Mulliken charges:
               1
     1  O   -0.219803
     2  O   -0.216853
     3  O   -0.205351
     4  O   -0.200297
     5  O   -0.200509
     6  O   -0.246929
     7  N   -0.138696
     8  N   -0.102467
     9  N   -0.148797
    10  N   -0.328718
    11  C   -0.109211
    12  C    0.117792
    13  C   -0.162733
    14  C    0.091648
    15  C   -0.107024
    16  C    0.069526
    17  C   -0.089477
    18  C   -0.120562
    19  C    0.082931
    20  C   -0.044005
    21  C    0.134451
    22  C    0.024105
    23  C    0.045541
    24  C    0.129663
    25  C   -0.079079
    26  C    0.084423
    27  C    0.086328
    28  C    0.086424
    29  C    0.017861
    30  C    0.257428
    31  C   -0.162146
    32  C   -0.032658
    33  C   -0.198790
    34  C    0.115828
    35  C   -0.122824
    36  C   -0.164194
    37  C    0.092041
    38  C    0.051585
    39  C    0.154652
    40  C    0.049076
    41  C    0.170801
    42  C    0.176086
    43  C   -0.060854
    44  H    0.185975
    45  H    0.065025
    46  H    0.007652
    47  H    0.038658
    48  H    0.058352
    49  H   -0.034881
    50  H    0.004140
    51  H    0.004944
    52  H    0.092436
    53  H    0.005170
    54  H    0.018022
    55  H    0.006484
    56  H    0.161162
    57  H    0.034354
    58  H    0.012727
    59  H    0.024851
    60  H    0.015466
    61  H    0.001301
    62  H   -0.026424
    63  H   -0.029026
    64  H    0.001507
    65  H    0.043627
    66  H    0.062987
    67  H    0.022427
    68  H   -0.020350
    69  H    0.055894
    70  H    0.011540
    71  H    0.036066
    72  H    0.000604
    73  H    0.029247
    74  H    0.004896
    75  H   -0.010750
    76  H    0.034168
    77  H    0.031069
    78  H    0.003471
    79  H    0.041151
    80  H    0.229725
    81  H    0.200116
 Sum of Mulliken charges =  -0.00000

 Dipole moment (field-independent basis, Debye):
    X=             -5.3262    Y=             -1.4150    Z=             -1.9320  Tot=              5.8398
 Quadrupole moment (field-independent basis, Debye-Ang):
   XX=           -246.5165   YY=           -242.3620   ZZ=           -251.5059
   XY=             19.1164   XZ=             21.5788   YZ=            -14.4047

 Normal termination of Gaussian 16 at Sat Jun 29 19:40:00 2019.
