 Gaussian 16, Revision A.03,
 Gaussian 16:  ES64L-G16RevA.03 25-Dec-2016

 --------------------------
 # td=(NStates=1) B3LYP/SVP
 --------------------------

 --
 TD
 --
 Symbolic Z-matrix:
 Charge =  0 Multiplicity = 1

                         Standard orientation:
 ---------------------------------------------------------------------
 Center     Atomic      Atomic             Coordinates (Angstroms)
 Number     Number       Type             X           Y           Z
 ---------------------------------------------------------------------
      1          8           0        4.110660   -4.986941   -1.910046
      2          8           0       -3.480163   -4.717773   -1.152201
      3          8           0       -7.034511   -1.462534   -1.563394
      4          8           0       -3.970752   -2.849373    0.040041
      5          8           0       -7.633855   -0.161171    0.068777
      6          8           0        3.160756    2.244036    0.680617
      7          7           0        0.254874   -0.500844    0.579475
      8          7           0       -1.439281    1.932891    0.337351
      9          7           0        3.189782   -3.319158   -0.683287
     10          7           0        0.962188    2.817377    0.179708
     11          6           0       -0.799740   -2.390976    1.396772
     12          6           0       -0.953464   -0.993731    0.920848
     13          6           0        0.548585   -2.595245    1.338050
     14          6           0        1.171745   -1.460578    0.757118
     15          6           0       -3.705399    1.753393    0.265342
     16          6           0       -2.447022    0.983054    0.672854
     17          6           0       -2.322005   -0.375140    0.938277
     18          6           0       -3.359142    2.992850   -0.134039
     19          6           0       -1.869545   -3.302928    1.827097
     20          6           0        5.383730   -2.929321   -1.370138
     21          6           0        3.527428   -2.004260   -0.125003
     22          6           0       -1.916425    3.083806   -0.080768
     23          6           0        4.948530   -1.819373   -0.457926
     24          6           0       -5.046810    1.098035    0.250790
     25          6           0        2.528033   -1.192536    0.408711
     26          6           0        1.309480   -3.907710    1.617927
     27          6           0        4.154582   -3.845403   -1.446304
     28          6           0       -2.305253   -4.386585    0.858222
     29          6           0       -5.384020    0.157096   -0.777206
     30          6           0       -4.298426    4.076818   -0.545644
     31          6           0       -1.028282    4.111760   -0.333552
     32          6           0        6.566480   -3.681548   -0.765235
     33          6           0        5.747704   -0.739354   -0.051444
     34          6           0        0.357726    4.019656   -0.294130
     35          6           0        1.423946    5.073391   -0.566045
     36          6           0        2.605325    4.448397   -0.142141
     37          6           0       -3.268573   -3.855730   -0.099764
     38          6           0        5.457417    0.432235    0.920029
     39          6           0       -6.747176   -0.484386   -0.700775
     40          6           0        3.945458    5.030678   -0.453383
     41          6           0        2.303819    2.987442    0.241276
     42          6           0        1.064956    6.447756   -1.016839
     43          6           0        4.589705    5.185216    1.083717
     44          1           0        0.262971    0.429617    0.213877
     45          1           0       -3.071596   -1.023150    1.193138
     46          1           0       -2.678579   -2.579187    2.285392
     47          1           0       -1.671142   -3.854564    2.826397
     48          1           0        5.906462   -2.448580   -2.444693
     49          1           0       -5.231532    0.656139    0.936289
     50          1           0       -5.709377    1.998153    0.262121
     51          1           0        3.002776   -0.087264    0.466221
     52          1           0       -0.400145    2.040077    0.504657
     53          1           0        1.495157   -4.420271    0.495872
     54          1           0        2.353557   -3.720132    2.107313
     55          1           0        0.747177   -4.741136    2.247472
     56          1           0        2.283090   -3.632444   -0.779614
     57          1           0       -1.631592   -4.930484    0.576909
     58          1           0       -2.841320   -5.060172    1.511686
     59          1           0       -4.651754   -0.793363   -0.968406
     60          1           0       -5.080637    0.908444   -1.727590
     61          1           0       -4.166292    4.923978    0.013921
     62          1           0       -5.276163    3.775761   -0.538597
     63          1           0       -4.106725    4.070971   -1.515785
     64          1           0       -1.406077    5.146821   -0.742309
     65          1           0        7.485745   -2.905993   -1.012334
     66          1           0        6.603792   -4.488843   -1.315778
     67          1           0        6.378207   -3.884563    0.193968
     68          1           0        6.820159   -0.738306   -0.513103
     69          1           0        4.837835    1.159814    0.430138
     70          1           0        6.365272    0.992211    1.093562
     71          1           0        4.825310   -0.066457    1.738815
     72          1           0        3.757010    5.939283   -0.848578
     73          1           0        4.583832    4.456698   -0.905422
     74          1           0        0.597109    6.283378   -2.054274
     75          1           0        1.987002    6.973002   -1.188019
     76          1           0        0.312285    6.817938   -0.404116
     77          1           0        3.939339    5.963815    1.520456
     78          1           0        5.551570    5.810257    0.875441
     79          1           0        4.751563    4.398151    1.592254
     80          1           0       -4.109259   -4.193378   -1.663639
     81          1           0       -7.905258   -1.718710   -1.486884
 ---------------------------------------------------------------------

 SCF Done:  E(RB3LYP) =  -1948.94154940     A.U. after   16 cycles

 Excitation energies and oscillator strengths:

 Excited State   1:      Singlet-A      1.7806 eV  696.32 nm  f=0.2974  <S**2>=0.000
     156 ->157         0.70786
     156 <-157        -0.10182
 This state for optimization and/or second-order correction.
 Total Energy, E(TD-HF/TD-DFT) =  -1948.87611486
 Copying the excited state density for this state as the 1-particle RhoCI density.

 The electronic state is 1-A.
 Alpha  occ. eigenvalues --  -19.19845 -19.17731 -19.15256 -19.12117 -19.09967
 Alpha  occ. eigenvalues --  -19.09732 -14.38832 -14.36087 -14.36046 -14.29132
 Alpha  occ. eigenvalues --  -10.34393 -10.32422 -10.28216 -10.26436 -10.24778
 Alpha  occ. eigenvalues --  -10.24368 -10.24254 -10.23923 -10.23695 -10.23622
 Alpha  occ. eigenvalues --  -10.22581 -10.22446 -10.22292 -10.22233 -10.21293
 Alpha  occ. eigenvalues --  -10.21033 -10.20921 -10.20877 -10.20188 -10.20168
 Alpha  occ. eigenvalues --  -10.20033 -10.19971 -10.19916 -10.19866 -10.19862
 Alpha  occ. eigenvalues --  -10.19826 -10.19038 -10.17876 -10.17710 -10.17607
 Alpha  occ. eigenvalues --  -10.17555 -10.17425 -10.17301  -1.11119  -1.11080
 Alpha  occ. eigenvalues --   -1.02339  -1.01840  -1.01475  -1.00626  -1.00073
 Alpha  occ. eigenvalues --   -0.98844  -0.94045  -0.90367  -0.84473  -0.84212
 Alpha  occ. eigenvalues --   -0.81551  -0.81484  -0.80258  -0.80126  -0.79456
 Alpha  occ. eigenvalues --   -0.78420  -0.76539  -0.75350  -0.74088  -0.72872
 Alpha  occ. eigenvalues --   -0.71867  -0.70063  -0.69911  -0.68965  -0.68334
 Alpha  occ. eigenvalues --   -0.68166  -0.66374  -0.64407  -0.63204  -0.62358
 Alpha  occ. eigenvalues --   -0.61730  -0.61017  -0.59227  -0.58689  -0.57374
 Alpha  occ. eigenvalues --   -0.57051  -0.56067  -0.55167  -0.54284  -0.53988
 Alpha  occ. eigenvalues --   -0.52995  -0.52510  -0.51897  -0.51688  -0.51034
 Alpha  occ. eigenvalues --   -0.50401  -0.49820  -0.49506  -0.48406  -0.47862
 Alpha  occ. eigenvalues --   -0.47779  -0.47379  -0.46596  -0.46153  -0.45786
 Alpha  occ. eigenvalues --   -0.45621  -0.45399  -0.44852  -0.44470  -0.44232
 Alpha  occ. eigenvalues --   -0.44034  -0.43641  -0.43594  -0.43377  -0.43024
 Alpha  occ. eigenvalues --   -0.42725  -0.42462  -0.42341  -0.42010  -0.41770
 Alpha  occ. eigenvalues --   -0.41347  -0.41045  -0.40635  -0.40366  -0.39906
 Alpha  occ. eigenvalues --   -0.39656  -0.39569  -0.39000  -0.38587  -0.38028
 Alpha  occ. eigenvalues --   -0.37908  -0.37677  -0.37374  -0.36794  -0.36765
 Alpha  occ. eigenvalues --   -0.36528  -0.35937  -0.35120  -0.34960  -0.34582
 Alpha  occ. eigenvalues --   -0.34376  -0.33780  -0.33722  -0.33073  -0.32501
 Alpha  occ. eigenvalues --   -0.32435  -0.32364  -0.31903  -0.30929  -0.29664
 Alpha  occ. eigenvalues --   -0.27957  -0.27804  -0.26529  -0.26374  -0.25691
 Alpha  occ. eigenvalues --   -0.25038  -0.24464  -0.24060  -0.22481  -0.21923
 Alpha  occ. eigenvalues --   -0.18005
 Alpha virt. eigenvalues --   -0.10660  -0.05749  -0.04168  -0.03173  -0.01427
 Alpha virt. eigenvalues --   -0.00982   0.01578   0.02541   0.04170   0.04442
 Alpha virt. eigenvalues --    0.04663   0.05227   0.05404   0.05545   0.06094

 Mulliken charges:
               1
     1  O   -0.244460
     2  O   -0.181524
     3  O   -0.133164
     4  O   -0.247448
     5  O   -0.241329
     6  O   -0.228397
     7  N    0.045524
     8  N   -0.101516
     9  N   -0.094155
    10  N   -0.350274
    11  C   -0.071870
    12  C   -0.054276
    13  C   -0.121186
    14  C    0.100569
    15  C   -0.147290
    16  C    0.139549
    17  C    0.023820
    18  C   -0.186591
    19  C   -0.042530
    20  C   -0.187359
    21  C    0.057424
    22  C    0.052912
    23  C    0.009395
    24  C    0.397167
    25  C   -0.155267
    26  C   -0.026590
    27  C    0.131832
    28  C    0.266433
    29  C   -0.147754
    30  C    0.307540
    31  C   -0.135257
    32  C    0.166970
    33  C   -0.195307
    34  C    0.061951
    35  C   -0.122112
    36  C   -0.238102
    37  C    0.135875
    38  C    0.099642
    39  C    0.149156
    40  C    0.217382
    41  C    0.190551
    42  C    0.167040
    43  C    0.002722
    44  H    0.112984
    45  H   -0.027578
    46  H    0.032317
    47  H    0.013886
    48  H    0.064713
    49  H   -0.181462
    50  H    0.009069
    51  H    0.063084
    52  H    0.154491
    53  H    0.033550
    54  H    0.058565
    55  H    0.033743
    56  H    0.108177
    57  H   -0.085826
    58  H    0.036487
    59  H    0.082489
    60  H    0.050298
    61  H    0.014707
    62  H   -0.042737
    63  H   -0.025328
    64  H   -0.004557
    65  H    0.029106
    66  H   -0.018912
    67  H   -0.016937
    68  H    0.008741
    69  H    0.056771
    70  H    0.001643
    71  H    0.049842
    72  H   -0.046780
    73  H   -0.026989
    74  H    0.023684
    75  H    0.007368
    76  H    0.022949
    77  H    0.010524
    78  H    0.001364
    79  H   -0.000305
    80  H    0.176639
    81  H    0.150525
 Sum of Mulliken charges =  -0.00000

 Dipole moment (field-independent basis, Debye):
    X=             -3.3070    Y=              1.7889    Z=             -0.9166  Tot=              3.8699
 Quadrupole moment (field-independent basis, Debye-Ang):
   XX=           -259.0782   YY=           -242.9331   ZZ=           -256.5017
   XY=             22.0540   XZ=             10.6956   YZ=            -21.3659

 Normal termination of Gaussian 16 at Wed Jul  3 00:58:58 2019.
