 Gaussian 16, Revision A.03,
 Gaussian 16:  ES64L-G16RevA.03 25-Dec-2016

 --------------------------
 # td=(NStates=1) B3LYP/SVP
 --------------------------

 --
 TD
 --
 Symbolic Z-matrix:
 Charge =  0 Multiplicity = 1

                         Standard orientation:
 ---------------------------------------------------------------------
 Center     Atomic      Atomic             Coordinates (Angstroms)
 Number     Number       Type             X           Y           Z
 ---------------------------------------------------------------------
      1          8           0        4.211701   -4.776666   -1.832571
      2          8           0       -2.493491   -4.728547   -1.225451
      3          8           0       -7.018151   -1.799016   -1.711950
      4          8           0       -3.721261   -3.187023   -0.091269
      5          8           0       -7.586217   -0.764721    0.209410
      6          8           0        2.889889    2.299264    0.348405
      7          7           0        0.349555   -0.439308    0.742327
      8          7           0       -1.592185    1.871183    0.266112
      9          7           0        3.288010   -3.027624   -0.645173
     10          7           0        0.635284    2.888061    0.114514
     11          6           0       -0.631343   -2.292785    1.452917
     12          6           0       -0.908380   -1.030727    0.933109
     13          6           0        0.768506   -2.567832    1.225538
     14          6           0        1.352984   -1.326168    0.808730
     15          6           0       -3.851524    1.444486    0.290755
     16          6           0       -2.510925    0.905966    0.569805
     17          6           0       -2.254016   -0.503027    0.801926
     18          6           0       -3.654663    2.762793   -0.142312
     19          6           0       -1.639810   -3.354899    1.956367
     20          6           0        5.513395   -2.721335   -1.352314
     21          6           0        3.614870   -1.843591   -0.100728
     22          6           0       -2.201485    3.064129   -0.049001
     23          6           0        4.985462   -1.597632   -0.441572
     24          6           0       -5.177448    0.712921    0.241988
     25          6           0        2.716915   -0.938566    0.440013
     26          6           0        1.408150   -3.795429    1.813616
     27          6           0        4.302893   -3.668615   -1.409992
     28          6           0       -1.888099   -4.406451    1.005849
     29          6           0       -5.466208   -0.170183   -0.919413
     30          6           0       -4.583644    3.871889   -0.510707
     31          6           0       -1.309981    4.138429   -0.331790
     32          6           0        6.868932   -3.410444   -0.870558
     33          6           0        5.883825   -0.562773   -0.086640
     34          6           0        0.048766    4.064177   -0.278888
     35          6           0        1.039313    5.078785   -0.571520
     36          6           0        2.287593    4.559888   -0.392563
     37          6           0       -2.802806   -4.093578   -0.024021
     38          6           0        5.560030    0.744857    0.716659
     39          6           0       -6.816772   -0.912014   -0.701056
     40          6           0        3.645346    5.295460   -0.277540
     41          6           0        2.013004    3.140870    0.010646
     42          6           0        0.658787    6.492037   -0.865494
     43          6           0        4.090781    5.623018    1.212141
     44          1           0        0.725974    0.653765    0.514541
     45          1           0       -3.048747   -1.237621    0.874735
     46          1           0       -2.529778   -2.745855    2.295102
     47          1           0       -1.211732   -3.706597    2.917736
     48          1           0        5.872808   -2.318192   -2.418992
     49          1           0       -5.320779    0.205995    1.282105
     50          1           0       -5.927202    1.530293    0.621877
     51          1           0        3.159852    0.171799    0.744051
     52          1           0       -0.588509    1.915569    0.183179
     53          1           0        1.510568   -4.547606    1.200683
     54          1           0        2.501202   -3.680375    2.195823
     55          1           0        0.894141   -4.188149    2.760465
     56          1           0        2.223182   -3.260280   -0.589314
     57          1           0       -0.873619   -4.875090    0.592057
     58          1           0       -2.333057   -5.301890    1.581261
     59          1           0       -4.715008   -0.845151   -1.014095
     60          1           0       -5.486035    0.291875   -1.948664
     61          1           0       -4.804892    4.562253    0.432801
     62          1           0       -5.574489    3.142393   -0.763925
     63          1           0       -4.244141    4.337457   -1.492631
     64          1           0       -1.809297    5.142298   -0.746222
     65          1           0        7.911398   -2.946961   -1.254262
     66          1           0        6.891411   -4.413957   -1.330817
     67          1           0        7.095321   -3.642259    0.184778
     68          1           0        6.844679   -0.524606   -0.447388
     69          1           0        4.945839    1.534704    0.197278
     70          1           0        6.605116    0.981399    0.928994
     71          1           0        4.898163    0.498501    1.602265
     72          1           0        3.750308    6.228556   -0.678731
     73          1           0        4.540213    4.770103   -0.736560
     74          1           0       -0.061403    6.359367   -1.798724
     75          1           0        1.516107    7.049660   -1.158924
     76          1           0       -0.052694    6.970861   -0.040790
     77          1           0        3.433277    6.329097    1.560449
     78          1           0        5.089272    6.067995    1.326161
     79          1           0        4.063594    4.627170    1.817779
     80          1           0       -3.344965   -4.533710   -1.720467
     81          1           0       -7.945171   -2.217263   -1.514372
 ---------------------------------------------------------------------

 SCF Done:  E(RB3LYP) =  -1949.11878860     A.U. after   17 cycles

 Excitation energies and oscillator strengths:

 Excited State   1:      Singlet-A      1.7291 eV  717.05 nm  f=0.2953  <S**2>=0.000
     156 ->157         0.70698
     156 <-157        -0.11158
 This state for optimization and/or second-order correction.
 Total Energy, E(TD-HF/TD-DFT) =  -1949.05524596
 Copying the excited state density for this state as the 1-particle RhoCI density.

 The electronic state is 1-A.
 Alpha  occ. eigenvalues --  -19.19442 -19.18547 -19.14665 -19.13177 -19.11970
 Alpha  occ. eigenvalues --  -19.09791 -14.37870 -14.36994 -14.35012 -14.28892
 Alpha  occ. eigenvalues --  -10.34338 -10.32229 -10.30019 -10.26548 -10.23831
 Alpha  occ. eigenvalues --  -10.23810 -10.23678 -10.23658 -10.23351 -10.23241
 Alpha  occ. eigenvalues --  -10.22446 -10.22291 -10.22119 -10.21790 -10.21536
 Alpha  occ. eigenvalues --  -10.21085 -10.20676 -10.20602 -10.20546 -10.20228
 Alpha  occ. eigenvalues --  -10.20036 -10.20024 -10.19965 -10.19949 -10.19842
 Alpha  occ. eigenvalues --  -10.19728 -10.19521 -10.19508 -10.19376 -10.19207
 Alpha  occ. eigenvalues --  -10.19183 -10.17856 -10.17663  -1.09207  -1.08989
 Alpha  occ. eigenvalues --   -1.05066  -1.00563  -0.99324  -0.98606  -0.97932
 Alpha  occ. eigenvalues --   -0.97286  -0.96045  -0.91333  -0.84184  -0.81931
 Alpha  occ. eigenvalues --   -0.80210  -0.79943  -0.79344  -0.78436  -0.77892
 Alpha  occ. eigenvalues --   -0.77285  -0.75862  -0.74807  -0.73137  -0.72215
 Alpha  occ. eigenvalues --   -0.70614  -0.69200  -0.69001  -0.68577  -0.67411
 Alpha  occ. eigenvalues --   -0.66708  -0.65343  -0.63350  -0.61924  -0.61102
 Alpha  occ. eigenvalues --   -0.59506  -0.59329  -0.58590  -0.58067  -0.56573
 Alpha  occ. eigenvalues --   -0.55388  -0.54737  -0.54348  -0.53222  -0.52687
 Alpha  occ. eigenvalues --   -0.52243  -0.52041  -0.50760  -0.50215  -0.49711
 Alpha  occ. eigenvalues --   -0.49350  -0.48896  -0.48300  -0.48066  -0.47402
 Alpha  occ. eigenvalues --   -0.46562  -0.46184  -0.45511  -0.45190  -0.44958
 Alpha  occ. eigenvalues --   -0.44550  -0.44291  -0.43808  -0.43571  -0.43473
 Alpha  occ. eigenvalues --   -0.43251  -0.42964  -0.42598  -0.42336  -0.42093
 Alpha  occ. eigenvalues --   -0.41952  -0.41693  -0.41497  -0.41193  -0.40797
 Alpha  occ. eigenvalues --   -0.40675  -0.40356  -0.40226  -0.40113  -0.39391
 Alpha  occ. eigenvalues --   -0.38909  -0.38655  -0.38242  -0.37864  -0.37706
 Alpha  occ. eigenvalues --   -0.37436  -0.37085  -0.36943  -0.36548  -0.36490
 Alpha  occ. eigenvalues --   -0.36225  -0.35922  -0.35648  -0.35182  -0.34175
 Alpha  occ. eigenvalues --   -0.33849  -0.33545  -0.33479  -0.33019  -0.32825
 Alpha  occ. eigenvalues --   -0.32767  -0.32533  -0.31643  -0.29666  -0.29527
 Alpha  occ. eigenvalues --   -0.28747  -0.28207  -0.26864  -0.25940  -0.25096
 Alpha  occ. eigenvalues --   -0.24887  -0.24283  -0.24088  -0.23202  -0.21199
 Alpha  occ. eigenvalues --   -0.17668
 Alpha virt. eigenvalues --   -0.10590  -0.05907  -0.04753  -0.04347  -0.01414
 Alpha virt. eigenvalues --    0.00607   0.02298   0.02603   0.03368   0.03863
 Alpha virt. eigenvalues --    0.04012   0.04256   0.05067   0.05308   0.06108

 Mulliken charges:
               1
     1  O   -0.165238
     2  O   -0.210449
     3  O   -0.223786
     4  O   -0.296306
     5  O   -0.213843
     6  O   -0.273858
     7  N   -0.159763
     8  N   -0.054693
     9  N   -0.156491
    10  N   -0.354512
    11  C   -0.158582
    12  C    0.093877
    13  C   -0.194000
    14  C    0.046861
    15  C   -0.126990
    16  C    0.114614
    17  C   -0.068188
    18  C   -0.117479
    19  C    0.103690
    20  C   -0.118664
    21  C    0.091068
    22  C    0.068388
    23  C   -0.018516
    24  C    0.021881
    25  C   -0.144880
    26  C    0.096264
    27  C    0.178126
    28  C    0.054269
    29  C    0.116829
    30  C   -0.008369
    31  C   -0.156631
    32  C   -0.013610
    33  C   -0.106260
    34  C    0.120232
    35  C   -0.098125
    36  C   -0.125037
    37  C    0.155245
    38  C    0.012533
    39  C    0.136737
    40  C    0.086399
    41  C    0.182806
    42  C    0.071027
    43  C   -0.021979
    44  H    0.235054
    45  H    0.025575
    46  H    0.024559
    47  H    0.008286
    48  H    0.071016
    49  H    0.022518
    50  H    0.023914
    51  H    0.097530
    52  H    0.106576
    53  H   -0.028536
    54  H    0.028574
    55  H    0.020368
    56  H    0.164499
    57  H    0.074353
    58  H    0.064475
    59  H    0.000316
    60  H    0.037837
    61  H    0.069850
    62  H    0.036824
    63  H    0.047361
    64  H    0.000312
    65  H    0.027154
    66  H    0.024403
    67  H    0.021104
    68  H   -0.031027
    69  H    0.087705
    70  H    0.008138
    71  H    0.040142
    72  H   -0.033736
    73  H    0.013822
    74  H    0.032727
    75  H    0.012321
    76  H    0.053096
    77  H   -0.007975
    78  H    0.010718
    79  H    0.043424
    80  H    0.197639
    81  H    0.204489
 Sum of Mulliken charges =  -0.00000

 Dipole moment (field-independent basis, Debye):
    X=             -1.8992    Y=             -0.0726    Z=             -0.2907  Tot=              1.9226
 Quadrupole moment (field-independent basis, Debye-Ang):
   XX=           -246.5137   YY=           -234.0448   ZZ=           -255.3533
   XY=             17.7132   XZ=             10.3001   YZ=            -15.2275

 Normal termination of Gaussian 16 at Thu Jun 27 16:36:26 2019.
