 Gaussian 16, Revision A.03,
 Gaussian 16:  ES64L-G16RevA.03 25-Dec-2016

 --------------------------
 # td=(NStates=1) B3LYP/SVP
 --------------------------

 --
 TD
 --
 Symbolic Z-matrix:
 Charge =  0 Multiplicity = 1

                         Standard orientation:
 ---------------------------------------------------------------------
 Center     Atomic      Atomic             Coordinates (Angstroms)
 Number     Number       Type             X           Y           Z
 ---------------------------------------------------------------------
      1          8           0        4.330851   -4.857867   -1.835769
      2          8           0       -2.858025   -4.944767   -1.147693
      3          8           0       -7.021498   -1.540131   -1.792172
      4          8           0       -3.641502   -3.135357   -0.083102
      5          8           0       -7.627117   -0.524465    0.111882
      6          8           0        3.021124    2.469084    0.465528
      7          7           0        0.252026   -0.579322    0.640468
      8          7           0       -1.518249    1.814392    0.255267
      9          7           0        3.324383   -3.082459   -0.753050
     10          7           0        0.826448    2.968367    0.139806
     11          6           0       -0.676130   -2.369696    1.463560
     12          6           0       -0.942960   -1.114430    1.012156
     13          6           0        0.689164   -2.564039    1.259564
     14          6           0        1.232190   -1.486059    0.773908
     15          6           0       -3.804494    1.551607    0.192963
     16          6           0       -2.544337    0.821109    0.485282
     17          6           0       -2.209366   -0.514657    0.992512
     18          6           0       -3.529593    2.887605   -0.028906
     19          6           0       -1.669981   -3.375729    2.043207
     20          6           0        5.592419   -2.783281   -1.381590
     21          6           0        3.528101   -1.844007   -0.201387
     22          6           0       -2.055676    2.968697   -0.176592
     23          6           0        5.002673   -1.588068   -0.437760
     24          6           0       -5.069873    0.804077    0.314326
     25          6           0        2.550165   -1.089921    0.306439
     26          6           0        1.418877   -3.794538    1.774555
     27          6           0        4.311932   -3.778478   -1.350109
     28          6           0       -2.070277   -4.501909    1.053481
     29          6           0       -5.369194   -0.115538   -0.751526
     30          6           0       -4.526819    3.850978   -0.605899
     31          6           0       -1.280994    4.055029   -0.437379
     32          6           0        6.866908   -3.429960   -0.785744
     33          6           0        5.758154   -0.521675   -0.132123
     34          6           0        0.175157    4.014101   -0.227632
     35          6           0        1.059417    5.166096   -0.457164
     36          6           0        2.339870    4.706653   -0.318107
     37          6           0       -2.894405   -4.014872   -0.072515
     38          6           0        5.355373    0.717340    0.622349
     39          6           0       -6.748043   -0.708203   -0.724288
     40          6           0        3.653231    5.400488   -0.223497
     41          6           0        2.144130    3.204228    0.075309
     42          6           0        0.561305    6.609371   -0.786461
     43          6           0        4.218864    5.535771    1.135834
     44          1           0        0.377323    0.162620    0.010469
     45          1           0       -3.076407   -1.119214    1.104541
     46          1           0       -2.565456   -2.947630    2.464346
     47          1           0       -1.208446   -4.093144    2.893367
     48          1           0        5.697874   -2.345157   -2.357180
     49          1           0       -5.283406    0.238958    1.138749
     50          1           0       -6.139345    1.391860    0.229408
     51          1           0        2.762424    0.040117    0.570071
     52          1           0       -0.526607    1.743543    0.577093
     53          1           0        1.631425   -4.501375    0.924528
     54          1           0        2.500913   -3.519439    1.839527
     55          1           0        1.187914   -4.474643    2.651318
     56          1           0        2.365919   -3.602163   -0.773172
     57          1           0       -1.239819   -4.985699    0.498101
     58          1           0       -2.558072   -5.466526    1.681481
     59          1           0       -4.641036   -0.834755   -0.875115
     60          1           0       -5.361328    0.303477   -1.827995
     61          1           0       -4.578413    4.684019    0.080053
     62          1           0       -5.480600    3.345982   -0.382657
     63          1           0       -4.204676    4.083000   -1.565131
     64          1           0       -1.826940    5.062199   -0.562445
     65          1           0        7.927503   -2.908639   -0.986318
     66          1           0        6.962066   -4.483711   -1.276858
     67          1           0        6.722355   -3.749212    0.401871
     68          1           0        6.731313   -0.572854   -0.287606
     69          1           0        4.922209    1.493268    0.021805
     70          1           0        6.261254    1.005975    0.942290
     71          1           0        4.806434    0.264509    1.502333
     72          1           0        3.527403    6.424526   -0.728901
     73          1           0        4.355120    4.831359   -0.802346
     74          1           0        0.113744    6.675974   -1.686448
     75          1           0        1.444416    7.118640   -0.782983
     76          1           0        0.015426    6.744306    0.011874
     77          1           0        3.759511    6.294301    1.772582
     78          1           0        5.266325    5.877213    1.085182
     79          1           0        4.558105    4.566625    1.673830
     80          1           0       -3.523297   -4.589668   -1.924345
     81          1           0       -7.900776   -1.926001   -1.422770
 ---------------------------------------------------------------------

 SCF Done:  E(RB3LYP) =  -1949.09273116     A.U. after   16 cycles

 Excitation energies and oscillator strengths:

 Excited State   1:      Singlet-A      1.9179 eV  646.44 nm  f=0.3329  <S**2>=0.000
     156 ->157         0.70355
     156 <-157        -0.10909
 This state for optimization and/or second-order correction.
 Total Energy, E(TD-HF/TD-DFT) =  -1949.02224818
 Copying the excited state density for this state as the 1-particle RhoCI density.

 The electronic state is 1-A.
 Alpha  occ. eigenvalues --  -19.18374 -19.17691 -19.14841 -19.13520 -19.11342
 Alpha  occ. eigenvalues --  -19.11039 -14.37932 -14.36910 -14.36029 -14.28867
 Alpha  occ. eigenvalues --  -10.32563 -10.32557 -10.29072 -10.26737 -10.24619
 Alpha  occ. eigenvalues --  -10.24512 -10.24013 -10.23443 -10.22726 -10.22566
 Alpha  occ. eigenvalues --  -10.22198 -10.22141 -10.21799 -10.21604 -10.21012
 Alpha  occ. eigenvalues --  -10.20833 -10.20618 -10.20407 -10.20180 -10.20139
 Alpha  occ. eigenvalues --  -10.19659 -10.19517 -10.19400 -10.19329 -10.19303
 Alpha  occ. eigenvalues --  -10.19301 -10.19121 -10.18841 -10.18491 -10.18025
 Alpha  occ. eigenvalues --  -10.17906 -10.17159 -10.16001  -1.10839  -1.09080
 Alpha  occ. eigenvalues --   -1.05036  -1.02916  -1.01028  -0.99948  -0.99551
 Alpha  occ. eigenvalues --   -0.97164  -0.96282  -0.94061  -0.83952  -0.82778
 Alpha  occ. eigenvalues --   -0.81607  -0.80305  -0.80136  -0.79597  -0.78621
 Alpha  occ. eigenvalues --   -0.78123  -0.76640  -0.75861  -0.74418  -0.72557
 Alpha  occ. eigenvalues --   -0.71657  -0.70038  -0.69487  -0.68517  -0.68149
 Alpha  occ. eigenvalues --   -0.67051  -0.65909  -0.63258  -0.63166  -0.62081
 Alpha  occ. eigenvalues --   -0.60049  -0.58942  -0.58203  -0.57323  -0.57253
 Alpha  occ. eigenvalues --   -0.56262  -0.55893  -0.55085  -0.54082  -0.53331
 Alpha  occ. eigenvalues --   -0.52910  -0.52283  -0.51386  -0.50749  -0.50126
 Alpha  occ. eigenvalues --   -0.48931  -0.48623  -0.48563  -0.48303  -0.48188
 Alpha  occ. eigenvalues --   -0.47152  -0.47013  -0.46675  -0.46393  -0.45831
 Alpha  occ. eigenvalues --   -0.45607  -0.45131  -0.44695  -0.44391  -0.43780
 Alpha  occ. eigenvalues --   -0.43372  -0.43307  -0.43115  -0.42905  -0.42498
 Alpha  occ. eigenvalues --   -0.42364  -0.42243  -0.42136  -0.41627  -0.41529
 Alpha  occ. eigenvalues --   -0.41201  -0.40851  -0.40756  -0.40263  -0.39789
 Alpha  occ. eigenvalues --   -0.39360  -0.39060  -0.38962  -0.38692  -0.38419
 Alpha  occ. eigenvalues --   -0.38003  -0.37548  -0.37196  -0.37179  -0.36899
 Alpha  occ. eigenvalues --   -0.36522  -0.36284  -0.36169  -0.35891  -0.35185
 Alpha  occ. eigenvalues --   -0.34996  -0.34149  -0.33783  -0.33162  -0.32915
 Alpha  occ. eigenvalues --   -0.32145  -0.32043  -0.31130  -0.30590  -0.29631
 Alpha  occ. eigenvalues --   -0.28924  -0.27599  -0.26644  -0.26119  -0.25911
 Alpha  occ. eigenvalues --   -0.25683  -0.24897  -0.24632  -0.23517  -0.22288
 Alpha  occ. eigenvalues --   -0.18221
 Alpha virt. eigenvalues --   -0.10566  -0.06023  -0.03583  -0.02032  -0.00746
 Alpha virt. eigenvalues --    0.01156   0.02121   0.02407   0.03115   0.03647
 Alpha virt. eigenvalues --    0.04794   0.05279   0.05446   0.05833   0.06214

 Mulliken charges:
               1
     1  O   -0.177427
     2  O   -0.304978
     3  O   -0.230541
     4  O   -0.151911
     5  O   -0.252086
     6  O   -0.185386
     7  N   -0.006470
     8  N   -0.135757
     9  N   -0.128063
    10  N   -0.192952
    11  C   -0.084737
    12  C    0.065097
    13  C   -0.175755
    14  C    0.071296
    15  C    0.019582
    16  C    0.024171
    17  C   -0.034540
    18  C   -0.190270
    19  C    0.109060
    20  C   -0.073484
    21  C    0.158052
    22  C    0.102822
    23  C   -0.016325
    24  C    0.064488
    25  C   -0.181205
    26  C    0.065331
    27  C    0.106017
    28  C   -0.065371
    29  C    0.006850
    30  C    0.177969
    31  C   -0.143821
    32  C   -0.052051
    33  C   -0.158522
    34  C    0.036360
    35  C   -0.198505
    36  C   -0.200728
    37  C    0.144816
    38  C    0.163655
    39  C    0.144316
    40  C    0.104259
    41  C    0.118443
    42  C    0.315471
    43  C    0.000236
    44  H    0.114242
    45  H   -0.009397
    46  H    0.015504
    47  H    0.022485
    48  H    0.039347
    49  H   -0.004645
    50  H    0.032914
    51  H    0.071478
    52  H    0.150797
    53  H   -0.012415
    54  H    0.007313
    55  H    0.042308
    56  H    0.156683
    57  H    0.038996
    58  H    0.081267
    59  H    0.010569
    60  H    0.031487
    61  H    0.005325
    62  H    0.007420
    63  H    0.030479
    64  H   -0.001223
    65  H    0.046557
    66  H    0.040464
    67  H    0.036494
    68  H   -0.064533
    69  H    0.056810
    70  H   -0.043052
    71  H    0.034539
    72  H    0.004489
    73  H   -0.006401
    74  H   -0.001471
    75  H   -0.034431
    76  H   -0.019237
    77  H    0.011836
    78  H   -0.011212
    79  H    0.035580
    80  H    0.224874
    81  H    0.200354
 Sum of Mulliken charges =  -0.00000

 Dipole moment (field-independent basis, Debye):
    X=             -1.9029    Y=              1.5832    Z=             -0.3923  Tot=              2.5063
 Quadrupole moment (field-independent basis, Debye-Ang):
   XX=           -256.7510   YY=           -242.8489   ZZ=           -255.0077
   XY=             17.6849   XZ=             10.1721   YZ=            -15.5724

 Normal termination of Gaussian 16 at Wed Jun 26 20:56:40 2019.
