 Gaussian 16, Revision A.03,
 Gaussian 16:  ES64L-G16RevA.03 25-Dec-2016

 --------------------------
 # td=(NStates=1) B3LYP/SVP
 --------------------------

 --
 TD
 --
 Symbolic Z-matrix:
 Charge =  0 Multiplicity = 1

                         Standard orientation:
 ---------------------------------------------------------------------
 Center     Atomic      Atomic             Coordinates (Angstroms)
 Number     Number       Type             X           Y           Z
 ---------------------------------------------------------------------
      1          8           0        4.209639   -4.887026   -1.779054
      2          8           0       -3.218260   -4.588147   -1.253300
      3          8           0       -6.915313   -1.444432   -1.744969
      4          8           0       -3.934245   -2.965288    0.084063
      5          8           0       -7.578015   -0.564498    0.190975
      6          8           0        3.140650    2.382387    0.439936
      7          7           0        0.244401   -0.531571    0.530024
      8          7           0       -1.443941    1.890801    0.346886
      9          7           0        3.230983   -3.232014   -0.695378
     10          7           0        0.844607    2.896958    0.068117
     11          6           0       -0.743612   -2.425369    1.392057
     12          6           0       -0.902786   -1.092904    0.922124
     13          6           0        0.657383   -2.640177    1.255576
     14          6           0        1.174203   -1.430344    0.749720
     15          6           0       -3.730432    1.590415    0.165652
     16          6           0       -2.430752    0.966077    0.515806
     17          6           0       -2.222454   -0.426053    0.903276
     18          6           0       -3.469151    2.906587   -0.149748
     19          6           0       -1.748018   -3.352275    1.917424
     20          6           0        5.490016   -2.918860   -1.308603
     21          6           0        3.539957   -1.989102   -0.171923
     22          6           0       -1.987896    3.084256   -0.156038
     23          6           0        4.966217   -1.785162   -0.513470
     24          6           0       -5.094500    0.913387    0.299807
     25          6           0        2.545190   -1.086674    0.360788
     26          6           0        1.339905   -3.772983    1.880773
     27          6           0        4.249384   -3.811709   -1.277080
     28          6           0       -2.239981   -4.433381    0.902142
     29          6           0       -5.341846   -0.054290   -0.773866
     30          6           0       -4.527944    4.058184   -0.473145
     31          6           0       -1.143362    4.205094   -0.323626
     32          6           0        6.787652   -3.757820   -0.953822
     33          6           0        5.738806   -0.776235    0.092858
     34          6           0        0.197303    4.058355   -0.273291
     35          6           0        1.292557    5.201194   -0.398937
     36          6           0        2.499429    4.608380   -0.178162
     37          6           0       -3.234990   -3.888935   -0.131891
     38          6           0        5.424858    0.413210    0.785155
     39          6           0       -6.772309   -0.659986   -0.676688
     40          6           0        3.941523    5.236025   -0.304195
     41          6           0        2.176253    3.108982    0.152190
     42          6           0        0.780451    6.579701   -0.950871
     43          6           0        4.519372    5.399728    1.102274
     44          1           0        0.280748    0.282903   -0.128576
     45          1           0       -3.161597   -1.114635    1.157083
     46          1           0       -2.604512   -2.816013    2.366611
     47          1           0       -1.404633   -3.717478    2.930462
     48          1           0        5.621838   -2.592238   -2.282941
     49          1           0       -5.144210    0.547358    1.447093
     50          1           0       -5.956588    1.759052    0.183544
     51          1           0        2.896505   -0.073056    0.607027
     52          1           0       -0.424651    1.683860   -0.017028
     53          1           0        1.200468   -4.608998    1.124963
     54          1           0        2.379960   -3.675788    1.956198
     55          1           0        1.090658   -4.350672    2.679255
     56          1           0        2.236594   -3.535270   -0.571944
     57          1           0       -1.414966   -4.923421    0.382735
     58          1           0       -2.762305   -5.278561    1.402862
     59          1           0       -4.609960   -0.947596   -0.734864
     60          1           0       -5.459991    0.362770   -1.868200
     61          1           0       -4.080325    4.911374    0.107408
     62          1           0       -5.645862    3.803641   -0.050822
     63          1           0       -4.434605    4.352986   -1.445395
     64          1           0       -1.666373    5.129818   -0.729547
     65          1           0        7.768058   -3.063847   -1.444106
     66          1           0        6.576793   -4.726474   -1.612079
     67          1           0        6.865075   -3.870488    0.095185
     68          1           0        6.644993   -0.736013   -0.242894
     69          1           0        4.930421    1.203776    0.087574
     70          1           0        6.131384    1.091714    1.379999
     71          1           0        4.660665    0.230201    1.453916
     72          1           0        3.998773    6.190735   -0.857296
     73          1           0        4.561011    4.549667   -0.710897
     74          1           0        0.241389    6.449786   -2.034619
     75          1           0        1.764519    7.029467   -1.051694
     76          1           0        0.380349    7.288303   -0.228539
     77          1           0        3.872409    6.031108    1.773739
     78          1           0        5.344435    6.136926    0.827691
     79          1           0        4.905889    4.410142    1.764839
     80          1           0       -4.012758   -4.268567   -1.815999
     81          1           0       -7.720147   -1.943554   -1.443092
 ---------------------------------------------------------------------

 SCF Done:  E(RB3LYP) =  -1949.07971213     A.U. after   16 cycles

 Excitation energies and oscillator strengths:

 Excited State   1:      Singlet-A      1.7685 eV  701.07 nm  f=0.3140  <S**2>=0.000
     156 ->157         0.70618
     156 <-157        -0.10874
 This state for optimization and/or second-order correction.
 Total Energy, E(TD-HF/TD-DFT) =  -1949.01472132
 Copying the excited state density for this state as the 1-particle RhoCI density.

 The electronic state is 1-A.
 Alpha  occ. eigenvalues --  -19.20953 -19.18732 -19.14918 -19.13281 -19.09565
 Alpha  occ. eigenvalues --  -19.09379 -14.38804 -14.37171 -14.36053 -14.28892
 Alpha  occ. eigenvalues --  -10.33861 -10.31713 -10.27734 -10.26310 -10.24552
 Alpha  occ. eigenvalues --  -10.24457 -10.23606 -10.23592 -10.23255 -10.22971
 Alpha  occ. eigenvalues --  -10.22519 -10.22486 -10.21901 -10.21685 -10.21209
 Alpha  occ. eigenvalues --  -10.21044 -10.20937 -10.20926 -10.20821 -10.20080
 Alpha  occ. eigenvalues --  -10.20008 -10.19873 -10.19813 -10.19567 -10.19561
 Alpha  occ. eigenvalues --  -10.18960 -10.18959 -10.18891 -10.18835 -10.18488
 Alpha  occ. eigenvalues --  -10.18471 -10.18464 -10.16693  -1.13001  -1.11382
 Alpha  occ. eigenvalues --   -1.05004  -1.04104  -1.01880  -1.01654  -0.99551
 Alpha  occ. eigenvalues --   -0.96955  -0.96456  -0.90489  -0.83335  -0.81588
 Alpha  occ. eigenvalues --   -0.81436  -0.80381  -0.78793  -0.77966  -0.77713
 Alpha  occ. eigenvalues --   -0.76828  -0.76548  -0.74301  -0.73677  -0.72883
 Alpha  occ. eigenvalues --   -0.71169  -0.69892  -0.69401  -0.67912  -0.67362
 Alpha  occ. eigenvalues --   -0.66696  -0.64921  -0.63876  -0.62249  -0.61133
 Alpha  occ. eigenvalues --   -0.59825  -0.59469  -0.59256  -0.58302  -0.57695
 Alpha  occ. eigenvalues --   -0.56733  -0.55048  -0.54363  -0.53803  -0.52796
 Alpha  occ. eigenvalues --   -0.52054  -0.51588  -0.51076  -0.50486  -0.50302
 Alpha  occ. eigenvalues --   -0.49691  -0.48816  -0.48772  -0.48471  -0.48271
 Alpha  occ. eigenvalues --   -0.47807  -0.46566  -0.46169  -0.45765  -0.45421
 Alpha  occ. eigenvalues --   -0.45028  -0.44410  -0.44072  -0.44022  -0.43641
 Alpha  occ. eigenvalues --   -0.43461  -0.42804  -0.42673  -0.42583  -0.42129
 Alpha  occ. eigenvalues --   -0.41820  -0.41680  -0.41482  -0.41212  -0.40895
 Alpha  occ. eigenvalues --   -0.40582  -0.40335  -0.40093  -0.39960  -0.39775
 Alpha  occ. eigenvalues --   -0.39187  -0.39138  -0.38755  -0.38201  -0.37956
 Alpha  occ. eigenvalues --   -0.37550  -0.37191  -0.36974  -0.36602  -0.36515
 Alpha  occ. eigenvalues --   -0.36104  -0.35739  -0.35292  -0.35245  -0.35139
 Alpha  occ. eigenvalues --   -0.34209  -0.33679  -0.33561  -0.33417  -0.32822
 Alpha  occ. eigenvalues --   -0.32455  -0.32234  -0.31426  -0.30514  -0.28964
 Alpha  occ. eigenvalues --   -0.28461  -0.26231  -0.26128  -0.25671  -0.25473
 Alpha  occ. eigenvalues --   -0.25326  -0.24228  -0.23167  -0.22715  -0.21284
 Alpha  occ. eigenvalues --   -0.17553
 Alpha virt. eigenvalues --   -0.10323  -0.04881  -0.03877  -0.00841   0.00759
 Alpha virt. eigenvalues --    0.00891   0.01860   0.02155   0.03163   0.03575
 Alpha virt. eigenvalues --    0.03767   0.04413   0.04661   0.05298   0.05314

 Mulliken charges:
               1
     1  O   -0.194206
     2  O   -0.176674
     3  O   -0.181155
     4  O   -0.192740
     5  O   -0.205101
     6  O   -0.254630
     7  N    0.036461
     8  N   -0.120897
     9  N   -0.033132
    10  N   -0.307016
    11  C   -0.109342
    12  C   -0.013636
    13  C   -0.156815
    14  C    0.035224
    15  C   -0.076016
    16  C    0.029501
    17  C   -0.085206
    18  C   -0.131622
    19  C    0.088410
    20  C    0.013260
    21  C    0.027954
    22  C    0.043908
    23  C   -0.086112
    24  C    0.034460
    25  C   -0.110867
    26  C    0.146305
    27  C    0.030027
    28  C    0.038486
    29  C   -0.070139
    30  C    0.090562
    31  C   -0.097115
    32  C   -0.009232
    33  C   -0.026818
    34  C    0.088219
    35  C   -0.109559
    36  C   -0.197455
    37  C    0.103250
    38  C    0.052844
    39  C    0.117304
    40  C    0.167929
    41  C    0.167404
    42  C    0.081270
    43  C   -0.084811
    44  H    0.151626
    45  H    0.070478
    46  H    0.003561
    47  H    0.012995
    48  H    0.013854
    49  H    0.061527
    50  H    0.021708
    51  H    0.023263
    52  H    0.179588
    53  H   -0.004367
    54  H    0.003852
    55  H   -0.015253
    56  H    0.139874
    57  H    0.025916
    58  H    0.044694
    59  H    0.079186
    60  H    0.050113
    61  H    0.026283
    62  H    0.058365
    63  H    0.007749
    64  H   -0.002348
    65  H    0.036676
    66  H    0.075348
    67  H    0.019554
    68  H   -0.067368
    69  H    0.083794
    70  H    0.015822
    71  H    0.004411
    72  H    0.007863
    73  H   -0.026879
    74  H    0.059692
    75  H   -0.011245
    76  H    0.022143
    77  H    0.012444
    78  H    0.002693
    79  H    0.066529
    80  H    0.211318
    81  H    0.172059
 Sum of Mulliken charges =  -0.00000

 Dipole moment (field-independent basis, Debye):
    X=             -3.8172    Y=             -0.8912    Z=             -1.2424  Tot=              4.1120
 Quadrupole moment (field-independent basis, Debye-Ang):
   XX=           -255.3086   YY=           -240.9679   ZZ=           -254.5620
   XY=             20.8863   XZ=             13.4364   YZ=            -17.1143

 Normal termination of Gaussian 16 at Thu Jun 27 21:47:48 2019.
