 Gaussian 16, Revision A.03,
 Gaussian 16:  ES64L-G16RevA.03 25-Dec-2016

 --------------------------
 # td=(NStates=1) B3LYP/SVP
 --------------------------

 --
 TD
 --
 Symbolic Z-matrix:
 Charge =  0 Multiplicity = 1

                         Standard orientation:
 ---------------------------------------------------------------------
 Center     Atomic      Atomic             Coordinates (Angstroms)
 Number     Number       Type             X           Y           Z
 ---------------------------------------------------------------------
      1          8           0        3.914051   -4.958650   -1.981034
      2          8           0       -3.419272   -4.593830   -1.014513
      3          8           0       -6.851450   -1.309274   -1.982895
      4          8           0       -3.978350   -2.798842    0.239374
      5          8           0       -7.389067   -0.493160    0.124049
      6          8           0        3.153331    2.193653    0.500746
      7          7           0        0.286153   -0.459286    0.585393
      8          7           0       -1.446302    1.916163    0.162438
      9          7           0        3.103161   -3.252021   -0.683545
     10          7           0        0.993140    2.772718   -0.008519
     11          6           0       -0.728328   -2.431107    1.390582
     12          6           0       -1.005489   -0.982539    0.977889
     13          6           0        0.595671   -2.669965    1.282930
     14          6           0        1.193563   -1.409869    0.688159
     15          6           0       -3.701132    1.721750    0.271766
     16          6           0       -2.516171    1.018961    0.427292
     17          6           0       -2.263400   -0.295904    0.898054
     18          6           0       -3.401288    3.033740   -0.114553
     19          6           0       -1.801963   -3.288901    2.008626
     20          6           0        5.378274   -2.961055   -1.395979
     21          6           0        3.472305   -1.989069   -0.235660
     22          6           0       -1.917888    3.136139   -0.146605
     23          6           0        4.927201   -1.831284   -0.442457
     24          6           0       -5.130122    1.107281    0.292668
     25          6           0        2.486238   -1.161398    0.350906
     26          6           0        1.312040   -3.942667    1.722355
     27          6           0        4.040304   -3.873029   -1.455180
     28          6           0       -2.372203   -4.446308    1.110073
     29          6           0       -5.223328    0.101067   -0.861134
     30          6           0       -4.338340    4.177059   -0.445774
     31          6           0       -0.998058    4.236918   -0.356317
     32          6           0        6.495753   -3.833566   -0.882039
     33          6           0        5.760463   -0.766245   -0.169589
     34          6           0        0.389799    3.966319   -0.265407
     35          6           0        1.377739    5.056411   -0.421779
     36          6           0        2.590034    4.553265   -0.149682
     37          6           0       -3.377271   -3.847234    0.122124
     38          6           0        5.410344    0.238629    0.881030
     39          6           0       -6.575378   -0.537680   -0.861744
     40          6           0        4.059776    5.031114   -0.259198
     41          6           0        2.316452    3.003404    0.152498
     42          6           0        1.118316    6.492316   -0.850236
     43          6           0        4.428624    5.428707    1.169471
     44          1           0        0.493823    0.489112   -0.068658
     45          1           0       -3.216092   -1.077673    0.886537
     46          1           0       -2.661548   -2.683206    2.447325
     47          1           0       -1.546429   -3.853369    3.046818
     48          1           0        5.495298   -2.624793   -2.267467
     49          1           0       -5.281699    0.625140    1.263722
     50          1           0       -6.020702    1.888688    0.364857
     51          1           0        3.019656   -0.061842    0.325439
     52          1           0       -0.356675    1.702943    0.368200
     53          1           0        1.031411   -4.740444    1.046473
     54          1           0        2.398047   -4.039365    1.773962
     55          1           0        0.864665   -4.072459    2.715881
     56          1           0        1.940997   -3.420578   -0.889403
     57          1           0       -1.471749   -4.882695    0.629102
     58          1           0       -2.883820   -5.297801    1.788637
     59          1           0       -4.332186   -0.725715   -0.775731
     60          1           0       -5.173967    0.704075   -1.710084
     61          1           0       -3.953110    5.203593   -0.023081
     62          1           0       -5.438647    4.007590   -0.513733
     63          1           0       -4.129755    4.485092   -1.530537
     64          1           0       -1.266119    5.170645   -0.675104
     65          1           0        7.365116   -3.098941   -0.941059
     66          1           0        6.413629   -4.555703   -1.560809
     67          1           0        6.502797   -4.298568    0.041498
     68          1           0        6.793454   -0.903362   -0.299368
     69          1           0        5.033738    1.186452    0.378345
     70          1           0        6.462461    0.535389    1.293988
     71          1           0        4.572772    0.078248    1.561105
     72          1           0        4.137173    5.727950   -1.080081
     73          1           0        4.739925    4.134584   -0.644673
     74          1           0        0.304599    6.588780   -1.607413
     75          1           0        2.087963    6.985440   -1.183087
     76          1           0        0.593051    6.857503    0.275126
     77          1           0        3.695834    6.197521    1.545074
     78          1           0        5.463040    5.768144    1.406334
     79          1           0        4.210387    4.464967    1.870181
     80          1           0       -4.027981   -4.139667   -1.641520
     81          1           0       -7.861597   -1.699415   -1.691513
 ---------------------------------------------------------------------

 SCF Done:  E(RB3LYP) =  -1949.07290311     A.U. after   17 cycles

 Excitation energies and oscillator strengths:

 Excited State   1:      Singlet-A      1.7491 eV  708.84 nm  f=0.3693  <S**2>=0.000
     156 ->157         0.70942
     156 <-157        -0.12708
 This state for optimization and/or second-order correction.
 Total Energy, E(TD-HF/TD-DFT) =  -1949.00862396
 Copying the excited state density for this state as the 1-particle RhoCI density.

 The electronic state is 1-A.
 Alpha  occ. eigenvalues --  -19.20464 -19.19420 -19.16003 -19.12752 -19.11702
 Alpha  occ. eigenvalues --  -19.09609 -14.39662 -14.38433 -14.35708 -14.28904
 Alpha  occ. eigenvalues --  -10.34975 -10.32497 -10.29344 -10.25824 -10.25325
 Alpha  occ. eigenvalues --  -10.24757 -10.24749 -10.23926 -10.23918 -10.22821
 Alpha  occ. eigenvalues --  -10.22504 -10.22455 -10.22421 -10.21861 -10.21479
 Alpha  occ. eigenvalues --  -10.21388 -10.21133 -10.20671 -10.20559 -10.20507
 Alpha  occ. eigenvalues --  -10.20425 -10.20165 -10.20023 -10.19702 -10.19660
 Alpha  occ. eigenvalues --  -10.19548 -10.19504 -10.18838 -10.18714 -10.18230
 Alpha  occ. eigenvalues --  -10.17990 -10.17940 -10.17646  -1.11716  -1.06389
 Alpha  occ. eigenvalues --   -1.03979  -1.03144  -1.01102  -0.98318  -0.97186
 Alpha  occ. eigenvalues --   -0.96618  -0.95491  -0.91228  -0.82848  -0.81883
 Alpha  occ. eigenvalues --   -0.81345  -0.80246  -0.78738  -0.78286  -0.78097
 Alpha  occ. eigenvalues --   -0.76832  -0.76535  -0.74915  -0.73569  -0.71966
 Alpha  occ. eigenvalues --   -0.70822  -0.69900  -0.68350  -0.67661  -0.66924
 Alpha  occ. eigenvalues --   -0.66015  -0.65003  -0.63240  -0.61737  -0.61223
 Alpha  occ. eigenvalues --   -0.60023  -0.59326  -0.58240  -0.57440  -0.56470
 Alpha  occ. eigenvalues --   -0.55825  -0.54691  -0.54434  -0.53560  -0.52690
 Alpha  occ. eigenvalues --   -0.52356  -0.51556  -0.51201  -0.51021  -0.49560
 Alpha  occ. eigenvalues --   -0.49071  -0.48731  -0.48325  -0.47720  -0.47464
 Alpha  occ. eigenvalues --   -0.46853  -0.46545  -0.45978  -0.45676  -0.45200
 Alpha  occ. eigenvalues --   -0.44767  -0.44402  -0.44075  -0.43771  -0.43409
 Alpha  occ. eigenvalues --   -0.43254  -0.43075  -0.42689  -0.42323  -0.42032
 Alpha  occ. eigenvalues --   -0.41731  -0.41214  -0.41174  -0.40911  -0.40612
 Alpha  occ. eigenvalues --   -0.40231  -0.40099  -0.39881  -0.39522  -0.39498
 Alpha  occ. eigenvalues --   -0.39198  -0.38994  -0.38409  -0.38283  -0.38058
 Alpha  occ. eigenvalues --   -0.37821  -0.37763  -0.37288  -0.36960  -0.36662
 Alpha  occ. eigenvalues --   -0.35872  -0.35799  -0.35353  -0.35066  -0.34804
 Alpha  occ. eigenvalues --   -0.34767  -0.34444  -0.33995  -0.33224  -0.32521
 Alpha  occ. eigenvalues --   -0.32460  -0.31709  -0.31346  -0.31096  -0.29792
 Alpha  occ. eigenvalues --   -0.27883  -0.27690  -0.27318  -0.26368  -0.25832
 Alpha  occ. eigenvalues --   -0.25277  -0.23920  -0.23381  -0.22872  -0.21743
 Alpha  occ. eigenvalues --   -0.17224
 Alpha virt. eigenvalues --   -0.10301  -0.05828  -0.04166  -0.03277  -0.01692
 Alpha virt. eigenvalues --   -0.00695   0.01045   0.01367   0.01530   0.03355
 Alpha virt. eigenvalues --    0.03708   0.04081   0.04405   0.04780   0.05345

 Mulliken charges:
               1
     1  O   -0.206216
     2  O   -0.185209
     3  O   -0.276372
     4  O   -0.221944
     5  O   -0.296437
     6  O   -0.226723
     7  N   -0.135241
     8  N   -0.164521
     9  N   -0.165677
    10  N   -0.300805
    11  C   -0.026133
    12  C    0.043360
    13  C   -0.171085
    14  C    0.105232
    15  C   -0.080171
    16  C    0.050302
    17  C   -0.104945
    18  C   -0.118333
    19  C   -0.028529
    20  C   -0.032251
    21  C    0.025811
    22  C    0.116176
    23  C   -0.007680
    24  C    0.060497
    25  C   -0.192455
    26  C    0.114969
    27  C    0.098975
    28  C   -0.026016
    29  C    0.016446
    30  C    0.067534
    31  C   -0.097388
    32  C    0.138228
    33  C   -0.076984
    34  C    0.107367
    35  C   -0.118684
    36  C   -0.216578
    37  C    0.166813
    38  C    0.000724
    39  C    0.188596
    40  C    0.076810
    41  C    0.144021
    42  C    0.024510
    43  C   -0.033738
    44  H    0.217728
    45  H    0.098469
    46  H    0.037543
    47  H    0.029145
    48  H   -0.033800
    49  H    0.015536
    50  H    0.030974
    51  H    0.081416
    52  H    0.192171
    53  H    0.017572
    54  H    0.032673
    55  H    0.028827
    56  H    0.199259
    57  H    0.047030
    58  H    0.075770
    59  H    0.099749
    60  H    0.014500
    61  H    0.029699
    62  H    0.026860
    63  H    0.007582
    64  H   -0.076666
    65  H    0.019270
    66  H   -0.007218
    67  H   -0.004783
    68  H   -0.011774
    69  H    0.073198
    70  H    0.014528
    71  H    0.045121
    72  H   -0.004767
    73  H    0.027140
    74  H    0.033629
    75  H    0.044061
    76  H    0.054110
    77  H    0.016507
    78  H    0.018521
    79  H    0.041677
    80  H    0.193683
    81  H    0.238806
 Sum of Mulliken charges =  -0.00000

 Dipole moment (field-independent basis, Debye):
    X=             -1.6574    Y=             -1.3937    Z=             -1.2934  Tot=              2.5223
 Quadrupole moment (field-independent basis, Debye-Ang):
   XX=           -251.1912   YY=           -245.5922   ZZ=           -256.8733
   XY=             14.8647   XZ=             12.8683   YZ=            -17.8982

 Normal termination of Gaussian 16 at Sun Jun 30 06:28:35 2019.
