 Gaussian 16, Revision A.03,
 Gaussian 16:  ES64L-G16RevA.03 25-Dec-2016

 --------------------------
 # td=(NStates=1) B3LYP/SVP
 --------------------------

 --
 TD
 --
 Symbolic Z-matrix:
 Charge =  0 Multiplicity = 1

                         Standard orientation:
 ---------------------------------------------------------------------
 Center     Atomic      Atomic             Coordinates (Angstroms)
 Number     Number       Type             X           Y           Z
 ---------------------------------------------------------------------
      1          8           0        4.085636   -4.800119   -1.886864
      2          8           0       -2.602947   -4.692683   -1.329926
      3          8           0       -6.968031   -1.616478   -1.815780
      4          8           0       -3.661046   -3.101147   -0.082667
      5          8           0       -7.540094   -0.732360    0.273613
      6          8           0        3.072080    2.368089    0.434362
      7          7           0        0.275627   -0.458186    0.645568
      8          7           0       -1.550659    1.869932    0.469827
      9          7           0        3.183046   -3.119356   -0.658132
     10          7           0        0.817916    2.865396    0.132760
     11          6           0       -0.665416   -2.362134    1.452355
     12          6           0       -0.904217   -0.984779    1.073124
     13          6           0        0.765113   -2.638764    1.337191
     14          6           0        1.293627   -1.403207    0.664843
     15          6           0       -3.775059    1.546847    0.281334
     16          6           0       -2.479649    0.891341    0.701253
     17          6           0       -2.210150   -0.444592    0.851100
     18          6           0       -3.565290    2.758923   -0.206685
     19          6           0       -1.659064   -3.361047    2.029448
     20          6           0        5.504573   -2.796859   -1.302756
     21          6           0        3.582401   -1.759741   -0.166188
     22          6           0       -2.063806    2.987763   -0.006097
     23          6           0        4.995536   -1.531528   -0.469607
     24          6           0       -5.125975    0.880783    0.236022
     25          6           0        2.551886   -1.006315    0.362891
     26          6           0        1.438155   -3.737663    1.815368
     27          6           0        4.205560   -3.788088   -1.336481
     28          6           0       -2.017082   -4.453119    1.002171
     29          6           0       -5.492733   -0.129189   -0.850575
     30          6           0       -4.448717    3.809949   -0.592745
     31          6           0       -1.281013    4.152006   -0.187549
     32          6           0        6.661997   -3.583243   -0.830563
     33          6           0        5.858432   -0.570846   -0.119964
     34          6           0        0.157653    3.999481   -0.239495
     35          6           0        1.036553    5.119629   -0.488552
     36          6           0        2.337684    4.573467   -0.282099
     37          6           0       -2.813103   -4.022353   -0.154556
     38          6           0        5.385149    0.542687    0.733426
     39          6           0       -6.782461   -0.841959   -0.712255
     40          6           0        3.636251    5.288199   -0.427908
     41          6           0        2.211166    3.120747    0.101003
     42          6           0        0.688570    6.552772   -0.873813
     43          6           0        4.192203    5.604719    1.013853
     44          1           0        0.303450    0.321510   -0.060587
     45          1           0       -2.960202   -1.238787    0.871944
     46          1           0       -2.532784   -2.780462    2.378620
     47          1           0       -1.180491   -3.929927    2.859728
     48          1           0        5.515006   -2.546971   -2.329265
     49          1           0       -5.177399    0.508669    1.316576
     50          1           0       -5.815515    1.636657    0.163329
     51          1           0        2.763900    0.119159    0.313582
     52          1           0       -0.674922    1.849370    0.534525
     53          1           0        1.369019   -4.578044    1.146711
     54          1           0        2.657953   -3.603537    1.846615
     55          1           0        1.292008   -4.095401    2.897351
     56          1           0        2.259730   -3.270210   -0.757543
     57          1           0       -1.204958   -5.110878    0.661045
     58          1           0       -2.879779   -5.067081    1.767379
     59          1           0       -4.918475   -1.000602   -0.783262
     60          1           0       -5.505856    0.443524   -1.983197
     61          1           0       -4.785707    4.398839    0.529048
     62          1           0       -5.574760    3.335035   -0.878610
     63          1           0       -3.867812    4.668401   -1.353580
     64          1           0       -1.732981    5.066328   -0.859785
     65          1           0        7.692983   -3.090773   -0.928015
     66          1           0        6.806993   -4.394798   -1.323517
     67          1           0        6.539342   -4.007771    0.131545
     68          1           0        6.855114   -0.788649   -0.187495
     69          1           0        4.795067    1.476382    0.082952
     70          1           0        6.313837    0.951252    1.390295
     71          1           0        4.621382    0.131886    1.353482
     72          1           0        3.604089    6.097764   -0.979200
     73          1           0        4.366763    4.585045   -0.852811
     74          1           0        0.040610    6.584618   -1.661744
     75          1           0        1.603513    7.285178   -0.967476
     76          1           0        0.241055    7.264442   -0.102807
     77          1           0        3.456846    5.982337    1.564001
     78          1           0        4.941966    6.395883    1.015221
     79          1           0        4.596743    4.605979    1.388019
     80          1           0       -3.525207   -4.244573   -1.825208
     81          1           0       -7.779448   -1.950018   -1.694894
 ---------------------------------------------------------------------

 SCF Done:  E(RB3LYP) =  -1948.99670509     A.U. after   17 cycles

 Excitation energies and oscillator strengths:

 Excited State   1:      Singlet-A      1.5936 eV  778.04 nm  f=0.2239  <S**2>=0.000
     156 ->157         0.70741
     156 <-157        -0.10135
 This state for optimization and/or second-order correction.
 Total Energy, E(TD-HF/TD-DFT) =  -1948.93814313
 Copying the excited state density for this state as the 1-particle RhoCI density.

 The electronic state is 1-A.
 Alpha  occ. eigenvalues --  -19.21065 -19.19008 -19.14621 -19.13172 -19.11709
 Alpha  occ. eigenvalues --  -19.11022 -14.37869 -14.36261 -14.34873 -14.28251
 Alpha  occ. eigenvalues --  -10.34118 -10.32750 -10.28340 -10.27068 -10.24835
 Alpha  occ. eigenvalues --  -10.24372 -10.24372 -10.24012 -10.23929 -10.23412
 Alpha  occ. eigenvalues --  -10.23254 -10.23084 -10.21922 -10.21518 -10.21124
 Alpha  occ. eigenvalues --  -10.20554 -10.20251 -10.20222 -10.20219 -10.20215
 Alpha  occ. eigenvalues --  -10.20207 -10.20192 -10.20081 -10.19900 -10.19815
 Alpha  occ. eigenvalues --  -10.19650 -10.19390 -10.18562 -10.18349 -10.18096
 Alpha  occ. eigenvalues --  -10.17556 -10.16950 -10.16815  -1.11224  -1.09512
 Alpha  occ. eigenvalues --   -1.05758  -1.03907  -1.01042  -1.00460  -1.00039
 Alpha  occ. eigenvalues --   -0.97795  -0.92705  -0.90930  -0.83838  -0.82568
 Alpha  occ. eigenvalues --   -0.81722  -0.81170  -0.79449  -0.79190  -0.78571
 Alpha  occ. eigenvalues --   -0.77991  -0.76423  -0.75449  -0.74322  -0.72295
 Alpha  occ. eigenvalues --   -0.71621  -0.70469  -0.69656  -0.68413  -0.67929
 Alpha  occ. eigenvalues --   -0.67488  -0.65744  -0.63275  -0.62687  -0.62266
 Alpha  occ. eigenvalues --   -0.60650  -0.59077  -0.58398  -0.58080  -0.57507
 Alpha  occ. eigenvalues --   -0.55816  -0.55007  -0.54461  -0.54019  -0.53148
 Alpha  occ. eigenvalues --   -0.52292  -0.51781  -0.51203  -0.50558  -0.49971
 Alpha  occ. eigenvalues --   -0.49317  -0.48913  -0.48448  -0.48011  -0.47866
 Alpha  occ. eigenvalues --   -0.47180  -0.46856  -0.46678  -0.45994  -0.45761
 Alpha  occ. eigenvalues --   -0.45425  -0.44734  -0.44396  -0.44357  -0.43944
 Alpha  occ. eigenvalues --   -0.43856  -0.43639  -0.43388  -0.42986  -0.42549
 Alpha  occ. eigenvalues --   -0.42387  -0.42038  -0.41663  -0.41469  -0.41100
 Alpha  occ. eigenvalues --   -0.40825  -0.40413  -0.40284  -0.40220  -0.39879
 Alpha  occ. eigenvalues --   -0.39550  -0.39277  -0.38692  -0.38400  -0.38111
 Alpha  occ. eigenvalues --   -0.37965  -0.37343  -0.37151  -0.36818  -0.36273
 Alpha  occ. eigenvalues --   -0.36236  -0.35678  -0.35417  -0.35018  -0.34787
 Alpha  occ. eigenvalues --   -0.34587  -0.34240  -0.33731  -0.33146  -0.32971
 Alpha  occ. eigenvalues --   -0.32937  -0.32613  -0.32033  -0.30144  -0.29997
 Alpha  occ. eigenvalues --   -0.28267  -0.28000  -0.26492  -0.25929  -0.25667
 Alpha  occ. eigenvalues --   -0.24879  -0.24371  -0.24177  -0.22553  -0.21561
 Alpha  occ. eigenvalues --   -0.17365
 Alpha virt. eigenvalues --   -0.10607  -0.06641  -0.04535  -0.04023  -0.00846
 Alpha virt. eigenvalues --    0.00124   0.01545   0.01814   0.02263   0.02612
 Alpha virt. eigenvalues --    0.03467   0.04040   0.04515   0.05566   0.05937

 Mulliken charges:
               1
     1  O   -0.147486
     2  O   -0.248935
     3  O   -0.128706
     4  O   -0.287049
     5  O   -0.253878
     6  O   -0.175277
     7  N   -0.074820
     8  N    0.107548
     9  N   -0.142252
    10  N   -0.346537
    11  C   -0.158261
    12  C    0.037138
    13  C   -0.073808
    14  C    0.083196
    15  C   -0.126423
    16  C    0.129877
    17  C   -0.079463
    18  C   -0.036055
    19  C    0.136669
    20  C   -0.073868
    21  C    0.081485
    22  C    0.017854
    23  C    0.020278
    24  C    0.133390
    25  C   -0.172897
    26  C   -0.006920
    27  C    0.085444
    28  C   -0.035914
    29  C    0.024504
    30  C   -0.099624
    31  C   -0.108187
    32  C    0.153640
    33  C   -0.078496
    34  C    0.045997
    35  C   -0.060676
    36  C   -0.225261
    37  C    0.181849
    38  C   -0.030513
    39  C    0.125285
    40  C    0.154805
    41  C    0.186946
    42  C    0.077118
    43  C    0.016857
    44  H    0.158259
    45  H    0.023441
    46  H    0.025056
    47  H    0.012973
    48  H    0.019704
    49  H    0.028917
    50  H   -0.036716
    51  H    0.050871
    52  H   -0.002420
    53  H    0.017287
    54  H    0.040136
    55  H    0.041626
    56  H    0.087430
    57  H    0.042539
    58  H    0.085706
    59  H    0.022544
    60  H    0.066487
    61  H    0.062822
    62  H    0.055380
    63  H    0.070135
    64  H    0.021591
    65  H    0.013050
    66  H   -0.043421
    67  H   -0.009392
    68  H   -0.040621
    69  H    0.110516
    70  H    0.018038
    71  H    0.026514
    72  H   -0.053811
    73  H    0.005488
    74  H    0.005340
    75  H    0.019952
    76  H    0.023492
    77  H   -0.020567
    78  H    0.000684
    79  H    0.046975
    80  H    0.248043
    81  H    0.127376
 Sum of Mulliken charges =  -0.00000

 Dipole moment (field-independent basis, Debye):
    X=             -2.9565    Y=              0.6834    Z=             -1.2201  Tot=              3.2705
 Quadrupole moment (field-independent basis, Debye-Ang):
   XX=           -253.3741   YY=           -236.7536   ZZ=           -255.9587
   XY=             13.4022   XZ=             16.0412   YZ=            -17.1514

 Normal termination of Gaussian 16 at Sat Jun 29 03:12:54 2019.
