 Gaussian 16, Revision A.03,
 Gaussian 16:  ES64L-G16RevA.03 25-Dec-2016

 --------------------------
 # td=(NStates=1) B3LYP/SVP
 --------------------------

 --
 TD
 --
 Symbolic Z-matrix:
 Charge =  0 Multiplicity = 1

                         Standard orientation:
 ---------------------------------------------------------------------
 Center     Atomic      Atomic             Coordinates (Angstroms)
 Number     Number       Type             X           Y           Z
 ---------------------------------------------------------------------
      1          8           0        4.021914   -4.795145   -1.850646
      2          8           0       -2.830082   -4.789854   -1.116584
      3          8           0       -6.990551   -1.573286   -1.745990
      4          8           0       -3.926749   -3.328942    0.113328
      5          8           0       -7.702545   -0.229122   -0.032379
      6          8           0        3.082927    2.340376    0.501379
      7          7           0        0.223015   -0.534442    0.787987
      8          7           0       -1.434594    1.783292    0.341794
      9          7           0        3.241391   -3.042171   -0.700054
     10          7           0        0.843606    2.894661    0.039730
     11          6           0       -0.653472   -2.450051    1.481658
     12          6           0       -0.966069   -1.019950    1.129111
     13          6           0        0.731287   -2.758226    1.241567
     14          6           0        1.265921   -1.495306    0.774139
     15          6           0       -3.682590    1.658195    0.301774
     16          6           0       -2.483991    0.864690    0.623553
     17          6           0       -2.210411   -0.424412    0.993694
     18          6           0       -3.496196    2.848612   -0.100430
     19          6           0       -1.748960   -3.365469    1.891219
     20          6           0        5.468388   -2.816697   -1.415794
     21          6           0        3.547439   -1.814131   -0.256172
     22          6           0       -1.940548    2.977495   -0.075602
     23          6           0        4.987578   -1.642207   -0.515019
     24          6           0       -5.070469    0.936131    0.287461
     25          6           0        2.596402   -1.063143    0.392440
     26          6           0        1.384201   -3.960301    1.688112
     27          6           0        4.252986   -3.753070   -1.379941
     28          6           0       -1.964153   -4.577384    1.031160
     29          6           0       -5.382740   -0.020320   -0.776551
     30          6           0       -4.293766    3.971766   -0.748290
     31          6           0       -1.255949    4.162015   -0.391877
     32          6           0        6.718327   -3.544845   -1.016115
     33          6           0        5.760644   -0.611463   -0.254757
     34          6           0        0.186579    4.030787   -0.244523
     35          6           0        1.133464    5.126026   -0.497076
     36          6           0        2.389360    4.611354   -0.176265
     37          6           0       -2.986265   -4.090256    0.026894
     38          6           0        5.368389    0.556943    0.715707
     39          6           0       -6.833005   -0.545860   -0.833067
     40          6           0        3.697126    5.294737   -0.178609
     41          6           0        2.206915    3.207090    0.121873
     42          6           0        0.723027    6.489094   -0.823095
     43          6           0        4.374416    5.423450    1.202013
     44          1           0        0.605039    0.250554    0.183357
     45          1           0       -3.270018   -1.107436    1.181917
     46          1           0       -2.733172   -2.991600    2.185171
     47          1           0       -1.290711   -3.928126    2.878562
     48          1           0        5.662215   -2.642901   -2.662828
     49          1           0       -5.070635    0.393178    1.231880
     50          1           0       -5.591189    1.770593    0.283103
     51          1           0        2.654796    0.025117    0.515783
     52          1           0       -0.277999    2.034716    0.598933
     53          1           0        1.068672   -4.756870    1.115703
     54          1           0        2.477579   -4.060033    1.576052
     55          1           0        0.821899   -4.230786    2.655039
     56          1           0        2.459391   -3.426608   -0.542970
     57          1           0       -1.100776   -4.798551    0.684913
     58          1           0       -2.340416   -5.493230    1.660604
     59          1           0       -4.846779   -0.958207   -0.527981
     60          1           0       -5.309097    0.262338   -1.964770
     61          1           0       -4.311876    4.993213   -0.272249
     62          1           0       -5.380451    3.632981   -0.617985
     63          1           0       -3.943077    4.110499   -1.892693
     64          1           0       -1.708721    5.306427   -0.606138
     65          1           0        7.541326   -2.930048   -1.235636
     66          1           0        6.827332   -4.597238   -1.255748
     67          1           0        6.665403   -3.527814    0.269554
     68          1           0        6.869942   -0.503929   -0.704889
     69          1           0        4.584429    1.261261    0.156805
     70          1           0        6.276052    1.231582    1.081889
     71          1           0        4.666224    0.220375    1.655983
     72          1           0        3.766650    6.216492   -0.548127
     73          1           0        4.344347    4.940377   -0.960709
     74          1           0        0.261735    6.648779   -1.935993
     75          1           0        1.501852    7.336334   -0.447015
     76          1           0       -0.347576    6.712966   -0.243465
     77          1           0        3.730551    6.078230    1.827705
     78          1           0        5.326566    5.990180    1.013136
     79          1           0        4.588410    4.598791    1.814482
     80          1           0       -3.442151   -4.428294   -1.992145
     81          1           0       -8.032174   -1.566667   -1.713430
 ---------------------------------------------------------------------

 SCF Done:  E(RB3LYP) =  -1948.98509986     A.U. after   17 cycles

 Excitation energies and oscillator strengths:

 Excited State   1:      Singlet-A      1.5410 eV  804.59 nm  f=0.2118  <S**2>=0.000
     156 ->157         0.70887
     156 <-157        -0.11376
 This state for optimization and/or second-order correction.
 Total Energy, E(TD-HF/TD-DFT) =  -1948.92847078
 Copying the excited state density for this state as the 1-particle RhoCI density.

 The electronic state is 1-A.
 Alpha  occ. eigenvalues --  -19.18579 -19.18528 -19.13814 -19.12773 -19.11924
 Alpha  occ. eigenvalues --  -19.10724 -14.37718 -14.35377 -14.35015 -14.30470
 Alpha  occ. eigenvalues --  -10.32945 -10.31900 -10.29265 -10.27502 -10.24437
 Alpha  occ. eigenvalues --  -10.24020 -10.23644 -10.23508 -10.23443 -10.23039
 Alpha  occ. eigenvalues --  -10.23008 -10.22373 -10.22316 -10.22051 -10.21338
 Alpha  occ. eigenvalues --  -10.21155 -10.21155 -10.21038 -10.20947 -10.20747
 Alpha  occ. eigenvalues --  -10.20717 -10.20266 -10.20176 -10.19964 -10.19933
 Alpha  occ. eigenvalues --  -10.19763 -10.19588 -10.19562 -10.19132 -10.18494
 Alpha  occ. eigenvalues --  -10.18491 -10.17953 -10.17705  -1.09067  -1.08190
 Alpha  occ. eigenvalues --   -1.06837  -0.99584  -0.99425  -0.99300  -0.98049
 Alpha  occ. eigenvalues --   -0.97322  -0.95838  -0.92292  -0.83368  -0.82458
 Alpha  occ. eigenvalues --   -0.82133  -0.81298  -0.80445  -0.79088  -0.78113
 Alpha  occ. eigenvalues --   -0.77280  -0.76698  -0.75634  -0.73949  -0.72381
 Alpha  occ. eigenvalues --   -0.70952  -0.69899  -0.69115  -0.68377  -0.67034
 Alpha  occ. eigenvalues --   -0.66844  -0.64735  -0.63977  -0.63028  -0.62244
 Alpha  occ. eigenvalues --   -0.59952  -0.59239  -0.57733  -0.57363  -0.56731
 Alpha  occ. eigenvalues --   -0.55806  -0.55139  -0.54966  -0.53150  -0.52641
 Alpha  occ. eigenvalues --   -0.52288  -0.51908  -0.51502  -0.49839  -0.49593
 Alpha  occ. eigenvalues --   -0.49149  -0.48451  -0.48160  -0.48039  -0.47679
 Alpha  occ. eigenvalues --   -0.47020  -0.46882  -0.46250  -0.45610  -0.44811
 Alpha  occ. eigenvalues --   -0.44703  -0.44615  -0.44291  -0.43975  -0.43366
 Alpha  occ. eigenvalues --   -0.43324  -0.43282  -0.42770  -0.42668  -0.42133
 Alpha  occ. eigenvalues --   -0.41996  -0.41409  -0.41033  -0.40929  -0.40682
 Alpha  occ. eigenvalues --   -0.40469  -0.40194  -0.40066  -0.39909  -0.39710
 Alpha  occ. eigenvalues --   -0.39462  -0.39282  -0.38872  -0.38747  -0.38196
 Alpha  occ. eigenvalues --   -0.37919  -0.37449  -0.37261  -0.36985  -0.36461
 Alpha  occ. eigenvalues --   -0.35843  -0.35739  -0.35387  -0.34993  -0.34539
 Alpha  occ. eigenvalues --   -0.34279  -0.33220  -0.33069  -0.32575  -0.32288
 Alpha  occ. eigenvalues --   -0.32129  -0.31918  -0.31471  -0.29971  -0.29246
 Alpha  occ. eigenvalues --   -0.27892  -0.27369  -0.26867  -0.26820  -0.26203
 Alpha  occ. eigenvalues --   -0.25312  -0.25016  -0.24292  -0.23715  -0.22017
 Alpha  occ. eigenvalues --   -0.17207
 Alpha virt. eigenvalues --   -0.10766  -0.06447  -0.03798  -0.01938  -0.00873
 Alpha virt. eigenvalues --    0.00061   0.00589   0.01750   0.02754   0.03457
 Alpha virt. eigenvalues --    0.03756   0.04357   0.04603   0.04894   0.05383

 Mulliken charges:
               1
     1  O   -0.146020
     2  O   -0.262549
     3  O   -0.236099
     4  O   -0.218131
     5  O   -0.238054
     6  O   -0.279658
     7  N   -0.081518
     8  N   -0.223206
     9  N   -0.011843
    10  N   -0.308577
    11  C   -0.113070
    12  C    0.106396
    13  C   -0.136040
    14  C   -0.024543
    15  C   -0.118256
    16  C    0.086478
    17  C   -0.119628
    18  C   -0.111546
    19  C   -0.023118
    20  C   -0.127674
    21  C    0.128249
    22  C    0.059985
    23  C    0.042712
    24  C    0.223106
    25  C   -0.120196
    26  C    0.156280
    27  C    0.105861
    28  C    0.150445
    29  C   -0.006471
    30  C    0.047358
    31  C   -0.148890
    32  C    0.027509
    33  C   -0.164936
    34  C    0.058915
    35  C   -0.042954
    36  C   -0.143634
    37  C    0.131408
    38  C   -0.089465
    39  C    0.130183
    40  C    0.167383
    41  C    0.199165
    42  C   -0.051940
    43  C   -0.001685
    44  H    0.174182
    45  H    0.074947
    46  H    0.027201
    47  H    0.004769
    48  H    0.066284
    49  H    0.005400
    50  H   -0.057178
    51  H    0.008945
    52  H    0.234313
    53  H   -0.011963
    54  H    0.029018
    55  H    0.027610
    56  H    0.029707
    57  H   -0.068256
    58  H    0.065768
    59  H    0.052991
    60  H    0.050778
    61  H    0.036160
    62  H    0.021927
    63  H    0.058626
    64  H    0.046264
    65  H    0.012041
    66  H    0.044192
    67  H    0.014271
    68  H    0.031460
    69  H    0.109829
    70  H    0.028126
    71  H    0.054184
    72  H   -0.072536
    73  H   -0.008258
    74  H    0.053177
    75  H    0.061633
    76  H    0.037233
    77  H    0.003076
    78  H    0.005347
    79  H    0.024304
    80  H    0.250018
    81  H    0.202680
 Sum of Mulliken charges =  -0.00000

 Dipole moment (field-independent basis, Debye):
    X=             -0.6859    Y=              1.7541    Z=             -1.8840  Tot=              2.6640
 Quadrupole moment (field-independent basis, Debye-Ang):
   XX=           -256.4897   YY=           -231.5783   ZZ=           -254.4965
   XY=              7.1938   XZ=             11.2826   YZ=            -13.7280

 Normal termination of Gaussian 16 at Mon Jul  1 16:17:34 2019.
