 Gaussian 16, Revision A.03,
 Gaussian 16:  ES64L-G16RevA.03 25-Dec-2016

 --------------------------
 # td=(NStates=1) B3LYP/SVP
 --------------------------

 --
 TD
 --
 Symbolic Z-matrix:
 Charge =  0 Multiplicity = 1

                         Standard orientation:
 ---------------------------------------------------------------------
 Center     Atomic      Atomic             Coordinates (Angstroms)
 Number     Number       Type             X           Y           Z
 ---------------------------------------------------------------------
      1          8           0        4.428534   -4.882301   -1.679566
      2          8           0       -2.796132   -4.678646   -1.299204
      3          8           0       -6.921696   -1.549278   -1.864507
      4          8           0       -3.826320   -3.156935   -0.007536
      5          8           0       -7.537151   -0.905850    0.302718
      6          8           0        2.982196    2.348747    0.268514
      7          7           0        0.257779   -0.490703    0.576548
      8          7           0       -1.623601    1.842401    0.454034
      9          7           0        3.445437   -3.071235   -0.623044
     10          7           0        0.745658    2.866953    0.226892
     11          6           0       -0.590772   -2.432842    1.346833
     12          6           0       -0.945883   -1.067290    0.936914
     13          6           0        0.794974   -2.610915    1.173478
     14          6           0        1.316271   -1.411915    0.611000
     15          6           0       -3.859512    1.584929    0.358829
     16          6           0       -2.557421    0.898546    0.670284
     17          6           0       -2.303586   -0.440352    0.889263
     18          6           0       -3.591268    2.851686   -0.086943
     19          6           0       -1.624582   -3.405914    1.883481
     20          6           0        5.555989   -2.740227   -1.247633
     21          6           0        3.686264   -1.751201   -0.242972
     22          6           0       -2.113536    3.033042    0.004819
     23          6           0        5.020278   -1.538436   -0.435464
     24          6           0       -5.182905    0.833544    0.375738
     25          6           0        2.592539   -1.022785    0.265943
     26          6           0        1.568764   -3.820460    1.638292
     27          6           0        4.385966   -3.770209   -1.279679
     28          6           0       -2.126328   -4.529520    0.956278
     29          6           0       -5.461907   -0.158722   -0.745059
     30          6           0       -4.574136    3.810676   -0.589616
     31          6           0       -1.344959    4.136906   -0.261043
     32          6           0        6.872881   -3.410445   -0.663641
     33          6           0        5.829169   -0.503969   -0.013708
     34          6           0        0.142854    4.011992   -0.104831
     35          6           0        1.028452    5.121993   -0.485165
     36          6           0        2.186869    4.589930   -0.270876
     37          6           0       -2.993717   -4.068065   -0.232833
     38          6           0        5.467998    0.749496    0.710954
     39          6           0       -6.786754   -0.843627   -0.725590
     40          6           0        3.555245    5.304391   -0.396078
     41          6           0        2.101732    3.221071    0.138066
     42          6           0        0.622400    6.511489   -0.957405
     43          6           0        4.359984    5.644085    1.027032
     44          1           0        0.292777    0.399909    0.101307
     45          1           0       -3.066174   -1.247574    1.061754
     46          1           0       -2.378503   -2.776776    2.203012
     47          1           0       -1.424780   -4.051306    2.947663
     48          1           0        5.585109   -2.483520   -2.379261
     49          1           0       -5.392584    0.362633    1.365105
     50          1           0       -6.057694    1.500865    0.395229
     51          1           0        2.681816    0.066297    0.332274
     52          1           0       -0.656275    1.675482    0.622339
     53          1           0        1.476986   -4.559694    0.925585
     54          1           0        2.717790   -3.575082    1.705472
     55          1           0        1.147945   -4.143069    2.722878
     56          1           0        2.601950   -3.560504   -0.786481
     57          1           0       -1.087277   -5.061610    0.655909
     58          1           0       -2.759202   -5.485295    1.549528
     59          1           0       -4.646608   -0.936628   -0.697358
     60          1           0       -5.310022    0.345961   -1.864710
     61          1           0       -4.291769    4.762730   -0.011626
     62          1           0       -5.654106    3.670538   -0.364979
     63          1           0       -4.304260    4.013970   -1.838152
     64          1           0       -1.763312    5.246018   -0.599216
     65          1           0        7.739577   -2.734476   -0.803236
     66          1           0        7.038744   -4.387650   -1.292568
     67          1           0        6.738379   -3.690746    0.285104
     68          1           0        7.029335   -0.800051   -0.196241
     69          1           0        4.685547    1.207963    0.086172
     70          1           0        6.313691    1.329492    1.103055
     71          1           0        4.673783    0.653100    1.626724
     72          1           0        3.733559    6.261680   -1.158419
     73          1           0        4.237560    4.485125   -0.837701
     74          1           0       -0.102418    6.495474   -1.911674
     75          1           0        1.458879    7.130927   -0.968009
     76          1           0       -0.079491    6.889947   -0.238191
     77          1           0        3.750997    6.760935    1.430134
     78          1           0        5.428086    5.904844    1.118850
     79          1           0        4.152496    4.743909    1.646323
     80          1           0       -3.303771   -4.370932   -1.942822
     81          1           0       -7.807287   -2.141988   -1.690130
 ---------------------------------------------------------------------

 SCF Done:  E(RB3LYP) =  -1949.06076100     A.U. after   16 cycles

 Excitation energies and oscillator strengths:

 Excited State   1:      Singlet-A      1.4634 eV  847.26 nm  f=0.2274  <S**2>=0.000
     156 ->157         0.71146
     156 <-157        -0.12756
 This state for optimization and/or second-order correction.
 Total Energy, E(TD-HF/TD-DFT) =  -1949.00698379
 Copying the excited state density for this state as the 1-particle RhoCI density.

 The electronic state is 1-A.
 Alpha  occ. eigenvalues --  -19.22081 -19.20002 -19.13284 -19.12615 -19.11533
 Alpha  occ. eigenvalues --  -19.10938 -14.37592 -14.36759 -14.36142 -14.29821
 Alpha  occ. eigenvalues --  -10.33977 -10.32476 -10.27894 -10.27379 -10.24984
 Alpha  occ. eigenvalues --  -10.24150 -10.23948 -10.23793 -10.23709 -10.23556
 Alpha  occ. eigenvalues --  -10.23012 -10.22076 -10.21791 -10.21627 -10.21410
 Alpha  occ. eigenvalues --  -10.21283 -10.21083 -10.20976 -10.20969 -10.20876
 Alpha  occ. eigenvalues --  -10.20861 -10.20705 -10.20276 -10.20251 -10.20051
 Alpha  occ. eigenvalues --  -10.19979 -10.19915 -10.19374 -10.19369 -10.19228
 Alpha  occ. eigenvalues --  -10.18564 -10.18531 -10.18336  -1.17397  -1.08239
 Alpha  occ. eigenvalues --   -1.04986  -1.01785  -1.01160  -0.99490  -0.98033
 Alpha  occ. eigenvalues --   -0.97314  -0.96724  -0.93496  -0.82124  -0.81488
 Alpha  occ. eigenvalues --   -0.81233  -0.81088  -0.80435  -0.79153  -0.77139
 Alpha  occ. eigenvalues --   -0.77016  -0.75605  -0.74242  -0.73607  -0.72484
 Alpha  occ. eigenvalues --   -0.71382  -0.70828  -0.69986  -0.69638  -0.67804
 Alpha  occ. eigenvalues --   -0.67500  -0.65617  -0.64139  -0.63562  -0.62438
 Alpha  occ. eigenvalues --   -0.60813  -0.59320  -0.58651  -0.57412  -0.57120
 Alpha  occ. eigenvalues --   -0.56361  -0.55430  -0.54768  -0.54145  -0.53310
 Alpha  occ. eigenvalues --   -0.52347  -0.51791  -0.51497  -0.50583  -0.50213
 Alpha  occ. eigenvalues --   -0.49630  -0.48819  -0.48460  -0.47997  -0.47047
 Alpha  occ. eigenvalues --   -0.46850  -0.46261  -0.46060  -0.45571  -0.45115
 Alpha  occ. eigenvalues --   -0.44782  -0.44245  -0.44031  -0.43885  -0.43593
 Alpha  occ. eigenvalues --   -0.43304  -0.43172  -0.42798  -0.42440  -0.41974
 Alpha  occ. eigenvalues --   -0.41749  -0.41042  -0.40882  -0.40789  -0.40634
 Alpha  occ. eigenvalues --   -0.40338  -0.40253  -0.40129  -0.39940  -0.39760
 Alpha  occ. eigenvalues --   -0.39426  -0.39250  -0.38885  -0.38206  -0.37910
 Alpha  occ. eigenvalues --   -0.37670  -0.37164  -0.36890  -0.36608  -0.36095
 Alpha  occ. eigenvalues --   -0.35976  -0.34867  -0.34584  -0.34535  -0.34420
 Alpha  occ. eigenvalues --   -0.34017  -0.33773  -0.33545  -0.33177  -0.32774
 Alpha  occ. eigenvalues --   -0.32453  -0.31625  -0.31282  -0.30031  -0.29093
 Alpha  occ. eigenvalues --   -0.28768  -0.27759  -0.26907  -0.25989  -0.25827
 Alpha  occ. eigenvalues --   -0.25703  -0.25171  -0.24817  -0.24284  -0.21636
 Alpha  occ. eigenvalues --   -0.16970
 Alpha virt. eigenvalues --   -0.10943  -0.06671  -0.04579  -0.01959  -0.01257
 Alpha virt. eigenvalues --    0.01482   0.02014   0.02115   0.02844   0.03339
 Alpha virt. eigenvalues --    0.03708   0.04332   0.04461   0.05187   0.05815

 Mulliken charges:
               1
     1  O   -0.182549
     2  O    0.020041
     3  O   -0.221513
     4  O   -0.283288
     5  O   -0.290433
     6  O   -0.223150
     7  N   -0.087034
     8  N   -0.028927
     9  N   -0.095327
    10  N   -0.276407
    11  C   -0.103691
    12  C   -0.020680
    13  C   -0.167904
    14  C    0.105809
    15  C   -0.067968
    16  C    0.079473
    17  C   -0.044045
    18  C   -0.105222
    19  C    0.073793
    20  C   -0.132994
    21  C    0.133413
    22  C    0.153030
    23  C    0.000627
    24  C    0.104347
    25  C   -0.145735
    26  C    0.070042
    27  C    0.065810
    28  C   -0.081445
    29  C   -0.067598
    30  C    0.013977
    31  C   -0.188900
    32  C    0.071162
    33  C   -0.156265
    34  C    0.016487
    35  C   -0.100694
    36  C   -0.126210
    37  C    0.108998
    38  C    0.022503
    39  C    0.193104
    40  C   -0.035033
    41  C    0.169026
    42  C    0.153720
    43  C   -0.076850
    44  H    0.124686
    45  H    0.046834
    46  H   -0.009820
    47  H    0.026715
    48  H    0.047422
    49  H    0.021940
    50  H   -0.013496
    51  H   -0.001588
    52  H    0.114458
    53  H    0.008578
    54  H    0.047147
    55  H    0.048825
    56  H    0.104426
    57  H    0.041000
    58  H    0.070427
    59  H    0.068921
    60  H    0.043721
    61  H    0.033442
    62  H    0.036729
    63  H    0.053352
    64  H    0.028803
    65  H    0.027517
    66  H    0.038851
    67  H   -0.011204
    68  H    0.024737
    69  H    0.078100
    70  H    0.027583
    71  H    0.041270
    72  H    0.037238
    73  H    0.029519
    74  H    0.043597
    75  H    0.007740
    76  H    0.010862
    77  H    0.014899
    78  H    0.039144
    79  H    0.042516
    80  H    0.132770
    81  H    0.226839
 Sum of Mulliken charges =  -0.00000

 Dipole moment (field-independent basis, Debye):
    X=             -2.8099    Y=              1.6328    Z=             -2.3360  Tot=              4.0023
 Quadrupole moment (field-independent basis, Debye-Ang):
   XX=           -260.8948   YY=           -235.1613   ZZ=           -255.5135
   XY=             18.4959   XZ=             21.2848   YZ=             -6.9984

 Normal termination of Gaussian 16 at Sat Jun 29 18:43:34 2019.
