 Gaussian 16, Revision A.03,
 Gaussian 16:  ES64L-G16RevA.03 25-Dec-2016

 --------------------------
 # td=(NStates=1) B3LYP/SVP
 --------------------------

 --
 TD
 --
 Symbolic Z-matrix:
 Charge =  0 Multiplicity = 1

                         Standard orientation:
 ---------------------------------------------------------------------
 Center     Atomic      Atomic             Coordinates (Angstroms)
 Number     Number       Type             X           Y           Z
 ---------------------------------------------------------------------
      1          8           0        3.969353   -4.843165   -1.956563
      2          8           0       -2.993705   -4.885756   -1.026087
      3          8           0       -6.963151   -1.399313   -2.037049
      4          8           0       -3.750436   -3.086046    0.049378
      5          8           0       -7.595341   -0.450884    0.005838
      6          8           0        3.126215    2.418502    0.461120
      7          7           0        0.280525   -0.450367    0.614773
      8          7           0       -1.513592    1.792903    0.293995
      9          7           0        3.231950   -3.120955   -0.659459
     10          7           0        0.863365    2.940714    0.056951
     11          6           0       -0.592786   -2.417688    1.448545
     12          6           0       -0.915093   -1.072856    0.964818
     13          6           0        0.720685   -2.618927    1.278047
     14          6           0        1.294052   -1.390387    0.786002
     15          6           0       -3.695338    1.557984    0.341369
     16          6           0       -2.482667    0.838049    0.576279
     17          6           0       -2.243233   -0.429151    0.940080
     18          6           0       -3.520644    2.849615   -0.060024
     19          6           0       -1.684680   -3.317279    2.076835
     20          6           0        5.446194   -2.901703   -1.276155
     21          6           0        3.640736   -1.952289   -0.082793
     22          6           0       -2.047792    3.090996    0.041403
     23          6           0        4.932761   -1.674948   -0.490684
     24          6           0       -5.088193    0.814084    0.425871
     25          6           0        2.656311   -1.040826    0.436394
     26          6           0        1.559945   -3.854127    1.637376
     27          6           0        4.185931   -3.820790   -1.356840
     28          6           0       -2.090663   -4.523489    1.057687
     29          6           0       -5.380210   -0.030541   -0.748649
     30          6           0       -4.395209    3.855935   -0.475712
     31          6           0       -1.192370    4.136640   -0.365166
     32          6           0        6.550619   -3.695761   -0.763667
     33          6           0        5.786293   -0.605440   -0.326975
     34          6           0        0.138027    4.070744   -0.244512
     35          6           0        1.120398    5.174264   -0.435561
     36          6           0        2.342905    4.723561   -0.168783
     37          6           0       -3.073684   -4.072761   -0.014650
     38          6           0        5.390003    0.721635    0.338030
     39          6           0       -6.775220   -0.660441   -0.894098
     40          6           0        3.636540    5.364009   -0.176366
     41          6           0        2.212068    3.211011    0.127140
     42          6           0        0.709798    6.497410   -0.942833
     43          6           0        4.419208    5.213699    1.175887
     44          1           0        0.422457    0.438954    0.339936
     45          1           0       -3.049573   -1.112447    1.011700
     46          1           0       -2.551985   -2.664341    2.596564
     47          1           0       -1.110830   -3.709808    2.702751
     48          1           0        5.624945   -2.401172   -2.365361
     49          1           0       -5.134461    0.339856    1.413605
     50          1           0       -5.819012    1.599476    0.755930
     51          1           0        2.889648    0.076700    0.767640
     52          1           0       -0.333986    1.982028    0.454834
     53          1           0        1.312870   -4.726844    1.163295
     54          1           0        2.535936   -3.685309    1.560842
     55          1           0        1.352899   -4.162366    2.950791
     56          1           0        2.429495   -3.653093   -0.520437
     57          1           0       -1.142299   -4.899928    0.518987
     58          1           0       -2.579553   -5.214536    1.721462
     59          1           0       -4.637964   -0.848321   -0.870109
     60          1           0       -5.427275    0.527957   -1.746007
     61          1           0       -4.091372    4.965263   -0.184576
     62          1           0       -5.333061    3.616081    0.112227
     63          1           0       -4.377731    4.056695   -1.568634
     64          1           0       -1.579052    5.099895   -0.719087
     65          1           0        7.553371   -3.194466   -0.951005
     66          1           0        6.625500   -4.682056   -1.506424
     67          1           0        6.312383   -3.838080    0.360935
     68          1           0        6.809982   -0.444807   -0.723737
     69          1           0        4.600952    1.317665   -0.195229
     70          1           0        6.417666    1.431836    0.565361
     71          1           0        4.918781    0.443664    1.347580
     72          1           0        3.625255    6.354157   -0.388481
     73          1           0        4.127308    4.854031   -1.319600
     74          1           0        0.084672    6.449682   -1.892659
     75          1           0        1.662528    7.102825   -1.069342
     76          1           0        0.007909    6.971836   -0.270580
     77          1           0        3.976082    5.810749    2.069412
     78          1           0        5.287139    5.794161    0.856042
     79          1           0        4.501927    4.162012    1.394102
     80          1           0       -3.756448   -4.704450   -1.620394
     81          1           0       -7.922497   -1.857643   -1.839021
 ---------------------------------------------------------------------

 SCF Done:  E(RB3LYP) =  -1949.05970311     A.U. after   16 cycles

 Excitation energies and oscillator strengths:

 Excited State   1:      Singlet-A      1.6426 eV  754.79 nm  f=0.2970  <S**2>=0.000
     156 ->157         0.70997
     156 <-157        -0.11731
 This state for optimization and/or second-order correction.
 Total Energy, E(TD-HF/TD-DFT) =  -1948.99933721
 Copying the excited state density for this state as the 1-particle RhoCI density.

 The electronic state is 1-A.
 Alpha  occ. eigenvalues --  -19.20762 -19.19883 -19.14290 -19.12549 -19.11476
 Alpha  occ. eigenvalues --  -19.10152 -14.37592 -14.36770 -14.34591 -14.29373
 Alpha  occ. eigenvalues --  -10.33444 -10.32213 -10.28844 -10.26862 -10.24834
 Alpha  occ. eigenvalues --  -10.24085 -10.23972 -10.23418 -10.22503 -10.22313
 Alpha  occ. eigenvalues --  -10.22182 -10.21054 -10.20934 -10.20904 -10.20787
 Alpha  occ. eigenvalues --  -10.20778 -10.20496 -10.20432 -10.20175 -10.20166
 Alpha  occ. eigenvalues --  -10.20088 -10.20005 -10.19987 -10.19977 -10.19850
 Alpha  occ. eigenvalues --  -10.19631 -10.19527 -10.19467 -10.18904 -10.18541
 Alpha  occ. eigenvalues --  -10.18462 -10.18014 -10.17925  -1.13330  -1.07765
 Alpha  occ. eigenvalues --   -1.04611  -1.03412  -0.99693  -0.99487  -0.98131
 Alpha  occ. eigenvalues --   -0.96813  -0.95198  -0.91307  -0.82888  -0.81958
 Alpha  occ. eigenvalues --   -0.81338  -0.81219  -0.79803  -0.78902  -0.77614
 Alpha  occ. eigenvalues --   -0.77440  -0.76656  -0.75028  -0.73903  -0.72875
 Alpha  occ. eigenvalues --   -0.71393  -0.70348  -0.70083  -0.68404  -0.67325
 Alpha  occ. eigenvalues --   -0.66294  -0.65344  -0.63210  -0.62553  -0.62429
 Alpha  occ. eigenvalues --   -0.61120  -0.59245  -0.58731  -0.57611  -0.56981
 Alpha  occ. eigenvalues --   -0.55609  -0.55494  -0.54482  -0.54038  -0.52553
 Alpha  occ. eigenvalues --   -0.52272  -0.51691  -0.51077  -0.50516  -0.49729
 Alpha  occ. eigenvalues --   -0.49084  -0.48877  -0.48350  -0.48088  -0.47690
 Alpha  occ. eigenvalues --   -0.47296  -0.46732  -0.46131  -0.45727  -0.45457
 Alpha  occ. eigenvalues --   -0.45006  -0.44849  -0.44270  -0.44042  -0.43675
 Alpha  occ. eigenvalues --   -0.43385  -0.43245  -0.43076  -0.42901  -0.42398
 Alpha  occ. eigenvalues --   -0.42130  -0.41789  -0.41500  -0.41113  -0.40742
 Alpha  occ. eigenvalues --   -0.40324  -0.40123  -0.39827  -0.39685  -0.39547
 Alpha  occ. eigenvalues --   -0.39123  -0.38747  -0.38733  -0.38382  -0.38112
 Alpha  occ. eigenvalues --   -0.37964  -0.37474  -0.37026  -0.36892  -0.36537
 Alpha  occ. eigenvalues --   -0.36141  -0.35742  -0.35446  -0.35056  -0.34693
 Alpha  occ. eigenvalues --   -0.34600  -0.33406  -0.33187  -0.33025  -0.32864
 Alpha  occ. eigenvalues --   -0.32348  -0.31712  -0.30910  -0.29893  -0.29252
 Alpha  occ. eigenvalues --   -0.27251  -0.27031  -0.26481  -0.26327  -0.25973
 Alpha  occ. eigenvalues --   -0.25073  -0.24287  -0.24052  -0.22802  -0.21708
 Alpha  occ. eigenvalues --   -0.17392
 Alpha virt. eigenvalues --   -0.10616  -0.05917  -0.04191  -0.00701  -0.00031
 Alpha virt. eigenvalues --    0.00380   0.01736   0.01960   0.02298   0.03190
 Alpha virt. eigenvalues --    0.03834   0.04048   0.04699   0.04950   0.05799

 Mulliken charges:
               1
     1  O   -0.200483
     2  O   -0.135346
     3  O   -0.250174
     4  O   -0.209559
     5  O   -0.252298
     6  O   -0.268127
     7  N   -0.013364
     8  N   -0.271982
     9  N   -0.073063
    10  N   -0.335860
    11  C   -0.150933
    12  C    0.023232
    13  C   -0.156880
    14  C    0.034744
    15  C   -0.137343
    16  C    0.168627
    17  C   -0.044852
    18  C   -0.080539
    19  C    0.224265
    20  C   -0.119317
    21  C    0.121563
    22  C    0.103183
    23  C   -0.009035
    24  C    0.127104
    25  C   -0.133393
    26  C    0.108881
    27  C    0.098516
    28  C   -0.033606
    29  C    0.034204
    30  C    0.048631
    31  C   -0.103371
    32  C    0.022383
    33  C   -0.135841
    34  C    0.112435
    35  C   -0.085737
    36  C   -0.171984
    37  C    0.113447
    38  C   -0.053652
    39  C    0.150897
    40  C    0.034670
    41  C    0.199773
    42  C    0.096310
    43  C   -0.010905
    44  H    0.069796
    45  H   -0.002464
    46  H    0.053749
    47  H   -0.088392
    48  H    0.058325
    49  H    0.001808
    50  H   -0.006727
    51  H    0.079203
    52  H    0.231611
    53  H    0.012498
    54  H   -0.013557
    55  H    0.035921
    56  H    0.098521
    57  H    0.061594
    58  H    0.044826
    59  H    0.051538
    60  H    0.035035
    61  H    0.017389
    62  H    0.037333
    63  H    0.030503
    64  H   -0.035794
    65  H    0.024892
    66  H    0.055343
    67  H    0.035099
    68  H    0.012593
    69  H    0.097331
    70  H    0.019786
    71  H    0.039316
    72  H   -0.046466
    73  H    0.033120
    74  H    0.025354
    75  H    0.023486
    76  H    0.009229
    77  H    0.026786
    78  H    0.010306
    79  H    0.058047
    80  H    0.189659
    81  H    0.228182
 Sum of Mulliken charges =  -0.00000

 Dipole moment (field-independent basis, Debye):
    X=             -2.9694    Y=             -0.5916    Z=             -0.4070  Tot=              3.0550
 Quadrupole moment (field-independent basis, Debye-Ang):
   XX=           -252.5581   YY=           -232.3879   ZZ=           -256.1053
   XY=             19.3943   XZ=             12.8500   YZ=            -13.6023

 Normal termination of Gaussian 16 at Thu Jun 27 01:51:32 2019.
