 Gaussian 16, Revision A.03,
 Gaussian 16:  ES64L-G16RevA.03 25-Dec-2016

 --------------------------
 # td=(NStates=1) B3LYP/SVP
 --------------------------

 --
 TD
 --
 Symbolic Z-matrix:
 Charge =  0 Multiplicity = 1

                         Standard orientation:
 ---------------------------------------------------------------------
 Center     Atomic      Atomic             Coordinates (Angstroms)
 Number     Number       Type             X           Y           Z
 ---------------------------------------------------------------------
      1          8           0        4.200875   -4.797163   -2.030181
      2          8           0       -2.943771   -4.825336   -0.977069
      3          8           0       -6.926962   -1.537680   -2.052630
      4          8           0       -3.668332   -3.068610    0.251472
      5          8           0       -7.621228   -0.498510   -0.162540
      6          8           0        3.044276    2.478628    0.460186
      7          7           0        0.298682   -0.566442    0.653049
      8          7           0       -1.630225    1.781130    0.403025
      9          7           0        3.344944   -3.082522   -0.752009
     10          7           0        0.839639    2.963236    0.054258
     11          6           0       -0.566726   -2.467118    1.638273
     12          6           0       -0.808487   -1.134262    1.131295
     13          6           0        0.787578   -2.665463    1.448950
     14          6           0        1.329429   -1.555167    0.644867
     15          6           0       -3.787273    1.388976    0.220643
     16          6           0       -2.529257    0.809528    0.615090
     17          6           0       -2.186913   -0.470286    1.086419
     18          6           0       -3.601056    2.686480   -0.206203
     19          6           0       -1.542829   -3.350815    2.251055
     20          6           0        5.481646   -2.705654   -1.458574
     21          6           0        3.585663   -1.788323   -0.376728
     22          6           0       -2.110551    2.959648   -0.102843
     23          6           0        5.056779   -1.481686   -0.742381
     24          6           0       -5.151340    0.746996    0.286540
     25          6           0        2.618288   -1.030159    0.356224
     26          6           0        1.644681   -3.859258    1.891075
     27          6           0        4.299190   -3.733022   -1.487326
     28          6           0       -2.000558   -4.506718    1.269517
     29          6           0       -5.390733   -0.033015   -0.937781
     30          6           0       -4.621396    3.735698   -0.704128
     31          6           0       -1.306941    4.046406   -0.385196
     32          6           0        6.782091   -3.487625   -0.958201
     33          6           0        5.791964   -0.427889   -0.409218
     34          6           0        0.215942    3.972610   -0.271279
     35          6           0        1.008968    5.205190   -0.328314
     36          6           0        2.259379    4.741061   -0.101395
     37          6           0       -2.950332   -4.004362    0.124780
     38          6           0        5.300380    0.663376    0.430528
     39          6           0       -6.808932   -0.741936   -0.999372
     40          6           0        3.653313    5.421820   -0.075406
     41          6           0        2.201263    3.282045    0.113975
     42          6           0        0.639588    6.559577   -0.890982
     43          6           0        4.231991    5.430870    1.420563
     44          1           0        0.534349    0.404064    0.170335
     45          1           0       -3.016848   -1.140574    1.386241
     46          1           0       -2.530238   -2.715510    2.626134
     47          1           0       -1.237519   -3.967980    3.085918
     48          1           0        5.600619   -2.859832   -2.729529
     49          1           0       -5.417396    0.230507    1.288711
     50          1           0       -5.921980    1.478980    0.560504
     51          1           0        2.972316   -0.000000    0.505707
     52          1           0       -0.510553    1.832977    0.523008
     53          1           0        1.667513   -4.496487    1.240119
     54          1           0        2.774754   -3.705792    2.292473
     55          1           0        0.980797   -4.322913    2.754677
     56          1           0        2.364137   -3.401810   -0.425085
     57          1           0       -1.167552   -4.975162    0.894100
     58          1           0       -2.397230   -5.233637    1.851812
     59          1           0       -4.866785   -0.997090   -0.862446
     60          1           0       -5.285366    0.547518   -1.862518
     61          1           0       -4.200640    4.819147   -0.345786
     62          1           0       -5.706871    3.566768   -0.281129
     63          1           0       -4.808018    3.491996   -2.022936
     64          1           0       -2.030583    4.808072   -0.679777
     65          1           0        7.951856   -2.976342   -1.497816
     66          1           0        6.794628   -4.554835   -1.372161
     67          1           0        6.819843   -3.664601    0.119903
     68          1           0        6.842550   -0.391795   -0.849057
     69          1           0        4.379611    1.115178   -0.074083
     70          1           0        6.157499    1.703343    0.708181
     71          1           0        4.856037    0.475670    1.437650
     72          1           0        3.516930    6.446431   -0.450489
     73          1           0        4.337159    5.002044   -0.638829
     74          1           0        0.123089    6.461393   -1.824496
     75          1           0        1.412469    7.279625   -0.733970
     76          1           0       -0.183790    6.875669   -0.021045
     77          1           0        3.569179    6.131144    2.041660
     78          1           0        5.255055    5.891745    1.428020
     79          1           0        4.149277    4.527523    1.848385
     80          1           0       -3.699315   -4.597125   -1.426550
     81          1           0       -7.877976   -2.011880   -2.054798
 ---------------------------------------------------------------------

 SCF Done:  E(RB3LYP) =  -1948.98573785     A.U. after   17 cycles

 Excitation energies and oscillator strengths:

 Excited State   1:      Singlet-A      1.4969 eV  828.25 nm  f=0.2060  <S**2>=0.000
     156 ->157         0.70772
     156 <-157        -0.11871
 This state for optimization and/or second-order correction.
 Total Energy, E(TD-HF/TD-DFT) =  -1948.93072598
 Copying the excited state density for this state as the 1-particle RhoCI density.

 The electronic state is 1-A.
 Alpha  occ. eigenvalues --  -19.19796 -19.18995 -19.15079 -19.12362 -19.12358
 Alpha  occ. eigenvalues --  -19.10957 -14.38256 -14.36860 -14.35671 -14.30097
 Alpha  occ. eigenvalues --  -10.33802 -10.31643 -10.29050 -10.27867 -10.24316
 Alpha  occ. eigenvalues --  -10.24157 -10.24013 -10.23900 -10.23742 -10.23293
 Alpha  occ. eigenvalues --  -10.22844 -10.21978 -10.21762 -10.21420 -10.21352
 Alpha  occ. eigenvalues --  -10.21071 -10.20758 -10.20504 -10.20445 -10.20345
 Alpha  occ. eigenvalues --  -10.20234 -10.20172 -10.20052 -10.19943 -10.19921
 Alpha  occ. eigenvalues --  -10.19619 -10.19615 -10.19507 -10.19368 -10.19280
 Alpha  occ. eigenvalues --  -10.18707 -10.18654 -10.17869  -1.11889  -1.09869
 Alpha  occ. eigenvalues --   -1.03958  -1.03935  -1.03750  -1.01418  -0.98164
 Alpha  occ. eigenvalues --   -0.97263  -0.96103  -0.95468  -0.82484  -0.81683
 Alpha  occ. eigenvalues --   -0.80991  -0.80489  -0.79837  -0.78335  -0.77357
 Alpha  occ. eigenvalues --   -0.76244  -0.75542  -0.74910  -0.73142  -0.72156
 Alpha  occ. eigenvalues --   -0.70207  -0.69324  -0.68340  -0.68142  -0.66717
 Alpha  occ. eigenvalues --   -0.66401  -0.65391  -0.63832  -0.62810  -0.62216
 Alpha  occ. eigenvalues --   -0.61739  -0.59707  -0.59006  -0.57359  -0.56244
 Alpha  occ. eigenvalues --   -0.55671  -0.55137  -0.54735  -0.54170  -0.53615
 Alpha  occ. eigenvalues --   -0.52746  -0.51974  -0.50868  -0.50427  -0.49722
 Alpha  occ. eigenvalues --   -0.49034  -0.48964  -0.48488  -0.48130  -0.47614
 Alpha  occ. eigenvalues --   -0.46661  -0.46249  -0.45710  -0.45607  -0.45439
 Alpha  occ. eigenvalues --   -0.44967  -0.44322  -0.44175  -0.43993  -0.43777
 Alpha  occ. eigenvalues --   -0.43508  -0.43451  -0.42828  -0.42285  -0.42178
 Alpha  occ. eigenvalues --   -0.41987  -0.41813  -0.41499  -0.41251  -0.40865
 Alpha  occ. eigenvalues --   -0.40713  -0.40613  -0.40302  -0.39728  -0.39424
 Alpha  occ. eigenvalues --   -0.39317  -0.38617  -0.38468  -0.38021  -0.37898
 Alpha  occ. eigenvalues --   -0.37803  -0.37662  -0.36696  -0.36446  -0.35909
 Alpha  occ. eigenvalues --   -0.35689  -0.35352  -0.34982  -0.34883  -0.34640
 Alpha  occ. eigenvalues --   -0.34520  -0.34447  -0.34016  -0.33441  -0.33162
 Alpha  occ. eigenvalues --   -0.32963  -0.32123  -0.32026  -0.30307  -0.29375
 Alpha  occ. eigenvalues --   -0.29211  -0.27239  -0.26211  -0.26050  -0.25696
 Alpha  occ. eigenvalues --   -0.25331  -0.25006  -0.24664  -0.24499  -0.21127
 Alpha  occ. eigenvalues --   -0.16948
 Alpha virt. eigenvalues --   -0.10688  -0.06289  -0.03882  -0.01275  -0.00376
 Alpha virt. eigenvalues --    0.01267   0.01772   0.02248   0.02517   0.03537
 Alpha virt. eigenvalues --    0.03798   0.04241   0.04588   0.04970   0.05473

 Mulliken charges:
               1
     1  O   -0.187956
     2  O   -0.152354
     3  O   -0.214644
     4  O   -0.185814
     5  O   -0.208765
     6  O   -0.185861
     7  N   -0.122820
     8  N   -0.132535
     9  N   -0.122952
    10  N   -0.205030
    11  C   -0.041104
    12  C    0.031904
    13  C   -0.158804
    14  C    0.059311
    15  C   -0.071032
    16  C    0.096576
    17  C   -0.057521
    18  C   -0.079910
    19  C    0.010651
    20  C   -0.171963
    21  C   -0.005362
    22  C   -0.004460
    23  C    0.089053
    24  C    0.058572
    25  C   -0.101537
    26  C    0.122350
    27  C    0.141315
    28  C    0.088620
    29  C    0.030968
    30  C   -0.049652
    31  C   -0.057899
    32  C   -0.036259
    33  C   -0.097865
    34  C    0.053169
    35  C   -0.142988
    36  C   -0.194674
    37  C    0.139175
    38  C   -0.066985
    39  C    0.099889
    40  C    0.164226
    41  C    0.152600
    42  C    0.111574
    43  C   -0.000473
    44  H    0.188888
    45  H    0.010911
    46  H    0.045439
    47  H   -0.000563
    48  H    0.068621
    49  H    0.014702
    50  H   -0.006077
    51  H    0.001676
    52  H    0.180527
    53  H   -0.045087
    54  H    0.059407
    55  H    0.014276
    56  H    0.153854
    57  H   -0.011047
    58  H    0.001409
    59  H    0.041182
    60  H    0.037850
    61  H    0.064799
    62  H    0.050660
    63  H    0.056973
    64  H   -0.047173
    65  H    0.033921
    66  H    0.042347
    67  H    0.023922
    68  H    0.012128
    69  H    0.096258
    70  H    0.024499
    71  H    0.045761
    72  H   -0.018671
    73  H   -0.029131
    74  H    0.042777
    75  H    0.018814
    76  H    0.031930
    77  H    0.005778
    78  H    0.021040
    79  H    0.007773
    80  H    0.144575
    81  H    0.222322
 Sum of Mulliken charges =  -0.00000

 Dipole moment (field-independent basis, Debye):
    X=             -3.6341    Y=              1.0049    Z=             -0.2171  Tot=              3.7767
 Quadrupole moment (field-independent basis, Debye-Ang):
   XX=           -252.1190   YY=           -235.1292   ZZ=           -256.3107
   XY=             23.9577   XZ=             16.3499   YZ=            -16.5032

 Normal termination of Gaussian 16 at Sun Jun 30 01:56:16 2019.
