 Gaussian 16, Revision A.03,
 Gaussian 16:  ES64L-G16RevA.03 25-Dec-2016

 --------------------------
 # td=(NStates=1) B3LYP/SVP
 --------------------------

 --
 TD
 --
 Symbolic Z-matrix:
 Charge =  0 Multiplicity = 1

                         Standard orientation:
 ---------------------------------------------------------------------
 Center     Atomic      Atomic             Coordinates (Angstroms)
 Number     Number       Type             X           Y           Z
 ---------------------------------------------------------------------
      1          8           0        4.551952   -4.793734   -1.750971
      2          8           0       -2.545816   -5.021955   -1.070359
      3          8           0       -7.249689   -1.585895   -1.804637
      4          8           0       -3.745162   -3.400771    0.130217
      5          8           0       -7.830730   -0.565206    0.084871
      6          8           0        2.935070    2.479340    0.443566
      7          7           0        0.292747   -0.467908    0.454767
      8          7           0       -1.650295    1.710217    0.356492
      9          7           0        3.406483   -3.020686   -0.893681
     10          7           0        0.785115    2.891400   -0.042997
     11          6           0       -0.562349   -2.295908    1.459152
     12          6           0       -0.870227   -1.036284    1.003223
     13          6           0        0.867424   -2.476296    1.364555
     14          6           0        1.375006   -1.353271    0.689160
     15          6           0       -3.853362    1.343834    0.176762
     16          6           0       -2.522217    0.749804    0.568383
     17          6           0       -2.231444   -0.476569    0.940025
     18          6           0       -3.574598    2.651569   -0.113834
     19          6           0       -1.465536   -3.378954    2.111009
     20          6           0        5.627435   -2.601142   -1.394547
     21          6           0        3.707301   -1.681603   -0.313446
     22          6           0       -2.170937    2.869965   -0.147339
     23          6           0        5.080442   -1.366738   -0.538971
     24          6           0       -5.175240    0.723852    0.340635
     25          6           0        2.672120   -0.942008    0.263687
     26          6           0        1.767457   -3.660605    1.725201
     27          6           0        4.465729   -3.646497   -1.462424
     28          6           0       -1.831488   -4.511371    1.157820
     29          6           0       -5.462729   -0.358277   -0.702085
     30          6           0       -4.749850    3.615758   -0.706578
     31          6           0       -1.442462    4.002698   -0.394675
     32          6           0        6.920824   -3.227066   -0.842563
     33          6           0        5.841401   -0.359174   -0.204352
     34          6           0        0.043985    3.918998   -0.403122
     35          6           0        0.893241    5.171968   -0.468217
     36          6           0        2.185972    4.742626   -0.227450
     37          6           0       -2.812994   -4.227793    0.022658
     38          6           0        5.469708    0.822019    0.747187
     39          6           0       -6.951161   -0.799683   -0.747214
     40          6           0        3.427131    5.507949   -0.133522
     41          6           0        2.134915    3.277263    0.029145
     42          6           0        0.436477    6.541245   -0.851783
     43          6           0        3.979705    5.593614    1.331211
     44          1           0        0.515026    0.502010    0.042059
     45          1           0       -3.105485   -1.303069    1.048954
     46          1           0       -2.366923   -2.990201    2.672073
     47          1           0       -0.901747   -4.080313    2.885660
     48          1           0        5.791826   -2.407321   -2.341437
     49          1           0       -5.147150    0.143641    1.276426
     50          1           0       -5.976263    1.339980    0.421321
     51          1           0        2.848551    0.060490    0.526659
     52          1           0       -0.503189    1.652835    0.692983
     53          1           0        1.760385   -4.388648    0.946704
     54          1           0        2.817735   -3.137488    1.805713
     55          1           0        1.542114   -4.166335    2.704306
     56          1           0        2.640502   -3.441455   -0.681719
     57          1           0       -0.904150   -5.109802    0.738507
     58          1           0       -2.200658   -5.484386    1.650965
     59          1           0       -4.845772   -1.301016   -0.619652
     60          1           0       -5.384686   -0.180812   -1.852383
     61          1           0       -4.448754    4.707312   -0.377216
     62          1           0       -5.529753    3.177478   -0.315833
     63          1           0       -4.650713    3.500050   -1.900016
     64          1           0       -1.937529    4.982010   -0.373137
     65          1           0        7.849308   -2.604330   -1.257561
     66          1           0        6.928876   -4.317751   -1.340995
     67          1           0        6.832811   -3.434490    0.265584
     68          1           0        7.125015   -0.384553   -0.526221
     69          1           0        4.772063    1.492608    0.073716
     70          1           0        6.476070    1.136483    1.259059
     71          1           0        4.932846    0.351575    1.662581
     72          1           0        3.321792    6.365764   -0.679829
     73          1           0        4.103170    4.952745   -0.619678
     74          1           0       -0.133912    6.546410   -1.830432
     75          1           0        1.235595    7.308876   -1.164660
     76          1           0       -0.103128    6.723096    0.018643
     77          1           0        3.360586    6.509951    1.984925
     78          1           0        4.882341    6.022074    1.555875
     79          1           0        3.700680    4.658816    1.914367
     80          1           0       -3.239927   -4.866619   -1.683295
     81          1           0       -8.138985   -2.024549   -1.632746
 ---------------------------------------------------------------------

 SCF Done:  E(RB3LYP) =  -1949.06297738     A.U. after   16 cycles

 Excitation energies and oscillator strengths:

 Excited State   1:      Singlet-A      1.7525 eV  707.47 nm  f=0.2178  <S**2>=0.000
     156 ->157         0.70465
 This state for optimization and/or second-order correction.
 Total Energy, E(TD-HF/TD-DFT) =  -1948.99857427
 Copying the excited state density for this state as the 1-particle RhoCI density.

 The electronic state is 1-A.
 Alpha  occ. eigenvalues --  -19.20121 -19.18196 -19.14854 -19.12152 -19.12046
 Alpha  occ. eigenvalues --  -19.10412 -14.37304 -14.36661 -14.35168 -14.29978
 Alpha  occ. eigenvalues --  -10.34304 -10.32077 -10.27976 -10.27611 -10.24715
 Alpha  occ. eigenvalues --  -10.24513 -10.24326 -10.23200 -10.22779 -10.22746
 Alpha  occ. eigenvalues --  -10.22436 -10.22413 -10.21864 -10.21339 -10.21265
 Alpha  occ. eigenvalues --  -10.21000 -10.20914 -10.20894 -10.20582 -10.20293
 Alpha  occ. eigenvalues --  -10.20213 -10.20149 -10.19920 -10.19654 -10.19642
 Alpha  occ. eigenvalues --  -10.19566 -10.19507 -10.19387 -10.19337 -10.19180
 Alpha  occ. eigenvalues --  -10.18652 -10.18604 -10.18006  -1.10238  -1.08839
 Alpha  occ. eigenvalues --   -1.04239  -1.04031  -1.01403  -0.99444  -0.98770
 Alpha  occ. eigenvalues --   -0.96010  -0.94170  -0.92811  -0.82505  -0.81971
 Alpha  occ. eigenvalues --   -0.81390  -0.81003  -0.80902  -0.78619  -0.77110
 Alpha  occ. eigenvalues --   -0.76926  -0.76499  -0.75462  -0.73888  -0.72010
 Alpha  occ. eigenvalues --   -0.70537  -0.69538  -0.68935  -0.68421  -0.68015
 Alpha  occ. eigenvalues --   -0.66993  -0.65294  -0.64357  -0.63321  -0.61922
 Alpha  occ. eigenvalues --   -0.60699  -0.59505  -0.58964  -0.57858  -0.56444
 Alpha  occ. eigenvalues --   -0.55868  -0.55708  -0.54661  -0.53977  -0.53041
 Alpha  occ. eigenvalues --   -0.51902  -0.51412  -0.50816  -0.50272  -0.49634
 Alpha  occ. eigenvalues --   -0.48638  -0.48226  -0.47919  -0.47719  -0.47464
 Alpha  occ. eigenvalues --   -0.47164  -0.46891  -0.46327  -0.46017  -0.45173
 Alpha  occ. eigenvalues --   -0.44979  -0.44642  -0.44460  -0.44108  -0.43914
 Alpha  occ. eigenvalues --   -0.43211  -0.42732  -0.42671  -0.42582  -0.42486
 Alpha  occ. eigenvalues --   -0.42268  -0.42025  -0.41318  -0.41145  -0.40891
 Alpha  occ. eigenvalues --   -0.40827  -0.40632  -0.40299  -0.40199  -0.39945
 Alpha  occ. eigenvalues --   -0.39847  -0.39360  -0.38769  -0.38228  -0.37949
 Alpha  occ. eigenvalues --   -0.37831  -0.37716  -0.37310  -0.36992  -0.36278
 Alpha  occ. eigenvalues --   -0.35904  -0.35778  -0.35593  -0.35114  -0.34541
 Alpha  occ. eigenvalues --   -0.34350  -0.33781  -0.33617  -0.33366  -0.33067
 Alpha  occ. eigenvalues --   -0.31742  -0.31651  -0.30625  -0.30424  -0.29689
 Alpha  occ. eigenvalues --   -0.28322  -0.27465  -0.26755  -0.25989  -0.25577
 Alpha  occ. eigenvalues --   -0.25410  -0.25216  -0.24529  -0.23905  -0.21857
 Alpha  occ. eigenvalues --   -0.18219
 Alpha virt. eigenvalues --   -0.10844  -0.06067  -0.04363  -0.02661   0.00137
 Alpha virt. eigenvalues --    0.02082   0.02227   0.03187   0.03455   0.04026
 Alpha virt. eigenvalues --    0.04271   0.04729   0.05012   0.05314   0.05656

 Mulliken charges:
               1
     1  O   -0.186800
     2  O   -0.164640
     3  O   -0.208739
     4  O   -0.257042
     5  O   -0.256813
     6  O   -0.172345
     7  N   -0.176794
     8  N   -0.135705
     9  N   -0.064759
    10  N   -0.288039
    11  C   -0.088534
    12  C    0.072471
    13  C   -0.150408
    14  C    0.080339
    15  C   -0.054061
    16  C    0.113242
    17  C   -0.159148
    18  C   -0.190397
    19  C    0.096799
    20  C   -0.035851
    21  C    0.097361
    22  C    0.164069
    23  C    0.113285
    24  C    0.196912
    25  C   -0.101994
    26  C    0.034012
    27  C    0.105896
    28  C   -0.064860
    29  C   -0.091072
    30  C    0.104417
    31  C   -0.157645
    32  C   -0.035566
    33  C   -0.271211
    34  C    0.080187
    35  C   -0.138992
    36  C   -0.228906
    37  C    0.178935
    38  C   -0.015585
    39  C    0.131534
    40  C    0.260522
    41  C    0.152723
    42  C    0.080931
    43  C   -0.038466
    44  H    0.162063
    45  H    0.066526
    46  H    0.034003
    47  H    0.020558
    48  H   -0.018238
    49  H    0.020400
    50  H   -0.015849
    51  H   -0.006144
    52  H    0.217078
    53  H    0.033651
    54  H    0.051234
    55  H    0.023430
    56  H    0.043043
    57  H    0.036356
    58  H    0.048770
    59  H    0.072693
    60  H    0.039629
    61  H    0.044106
    62  H   -0.020721
    63  H    0.060111
    64  H   -0.006292
    65  H    0.039633
    66  H    0.046454
    67  H    0.027806
    68  H    0.034694
    69  H    0.110106
    70  H    0.027997
    71  H    0.038484
    72  H   -0.042995
    73  H   -0.032374
    74  H    0.038297
    75  H    0.032524
    76  H    0.032242
    77  H   -0.011867
    78  H    0.002912
    79  H    0.051190
    80  H    0.167133
    81  H    0.202095
 Sum of Mulliken charges =  -0.00000

 Dipole moment (field-independent basis, Debye):
    X=             -2.5293    Y=              2.0547    Z=             -0.6016  Tot=              3.3138
 Quadrupole moment (field-independent basis, Debye-Ang):
   XX=           -266.6063   YY=           -233.3051   ZZ=           -253.6458
   XY=             25.1661   XZ=             14.7197   YZ=            -13.6960

 Normal termination of Gaussian 16 at Mon Jul  1 19:29:47 2019.
