 Gaussian 16, Revision A.03,
 Gaussian 16:  ES64L-G16RevA.03 25-Dec-2016

 --------------------------
 # td=(NStates=1) B3LYP/SVP
 --------------------------

 --
 TD
 --
 Symbolic Z-matrix:
 Charge =  0 Multiplicity = 1

                         Standard orientation:
 ---------------------------------------------------------------------
 Center     Atomic      Atomic             Coordinates (Angstroms)
 Number     Number       Type             X           Y           Z
 ---------------------------------------------------------------------
      1          8           0       -4.363527   -4.742315    2.082230
      2          8           0        2.849859   -4.818916    1.107813
      3          8           0        7.123471   -1.545821    1.897353
      4          8           0        3.892553   -3.120158   -0.072095
      5          8           0        7.590110   -0.508462   -0.088948
      6          8           0       -2.966948    2.389474   -0.551838
      7          7           0       -0.210214   -0.497791   -0.633298
      8          7           0        1.604228    1.741959   -0.511505
      9          7           0       -3.356826   -3.052944    0.743298
     10          7           0       -0.699934    2.854290   -0.176421
     11          6           0        0.626179   -2.428796   -1.570998
     12          6           0        0.918422   -1.164541   -1.009756
     13          6           0       -0.759579   -2.578945   -1.257976
     14          6           0       -1.281120   -1.415135   -0.725254
     15          6           0        3.785788    1.444427   -0.242654
     16          6           0        2.496880    0.758712   -0.680166
     17          6           0        2.250644   -0.563176   -0.923395
     18          6           0        3.520933    2.786228    0.051221
     19          6           0        1.564749   -3.393183   -2.045274
     20          6           0       -5.676209   -2.598411    1.409200
     21          6           0       -3.688861   -1.755036    0.251822
     22          6           0        2.146838    2.926191    0.040941
     23          6           0       -5.144499   -1.618689    0.449469
     24          6           0        5.111819    0.764483   -0.269855
     25          6           0       -2.603602   -1.018389   -0.314692
     26          6           0       -1.551386   -3.875455   -1.649776
     27          6           0       -4.448422   -3.718136    1.456535
     28          6           0        1.958560   -4.439003   -1.070159
     29          6           0        5.529824   -0.143183    0.835415
     30          6           0        4.503460    3.779978    0.558628
     31          6           0        1.280564    3.981834    0.263824
     32          6           0       -6.878570   -3.359184    0.759807
     33          6           0       -5.807752   -0.472819    0.042085
     34          6           0       -0.105210    4.072728    0.221282
     35          6           0       -1.046207    5.147832    0.512867
     36          6           0       -2.333112    4.637687    0.296883
     37          6           0        3.014524   -3.985654    0.069675
     38          6           0       -5.540417    0.703308   -0.824343
     39          6           0        6.833557   -0.736122    0.794134
     40          6           0       -3.570850    5.284234    0.312415
     41          6           0       -2.043278    3.159519   -0.200265
     42          6           0       -0.636669    6.567403    1.023677
     43          6           0       -4.223147    5.563987   -1.097581
     44          1           0       -0.318058    0.326370   -0.152256
     45          1           0        3.146461   -1.208200   -0.960392
     46          1           0        2.404639   -2.854787   -2.498135
     47          1           0        1.127840   -4.023209   -2.786516
     48          1           0       -6.112586   -2.221832    2.324941
     49          1           0        5.331124    0.122832   -1.415956
     50          1           0        5.913783    1.619557   -0.404964
     51          1           0       -2.922344    0.140807   -0.388145
     52          1           0        0.681470    1.614364   -0.370488
     53          1           0       -1.098093   -4.614288   -0.891611
     54          1           0       -2.714523   -3.762709   -1.557581
     55          1           0       -1.478217   -4.147829   -2.787932
     56          1           0       -2.471861   -3.338947    0.908247
     57          1           0        1.245862   -4.731559   -0.338426
     58          1           0        2.400480   -5.184374   -1.541814
     59          1           0        4.880764   -1.198920    0.834779
     60          1           0        5.443745    0.402809    1.779132
     61          1           0        4.565993    4.464037   -0.211664
     62          1           0        5.514148    3.435224    0.683482
     63          1           0        4.179819    4.174383    1.496714
     64          1           0        1.704568    4.931639    0.592558
     65          1           0       -7.824397   -2.803889    0.857390
     66          1           0       -6.788465   -4.381237    1.174740
     67          1           0       -6.766593   -3.673677   -0.206996
     68          1           0       -6.928429   -0.608846    0.359863
     69          1           0       -4.771589    1.339761   -0.196598
     70          1           0       -6.433937    1.260252   -1.017483
     71          1           0       -5.170242    0.501616   -1.807328
     72          1           0       -3.443484    6.216909    0.692970
     73          1           0       -4.289340    4.547512    0.932789
     74          1           0       -0.165056    6.477452    2.139492
     75          1           0       -1.548714    7.253872    1.118533
     76          1           0        0.304720    6.719449    0.458973
     77          1           0       -3.228159    6.163515   -1.607076
     78          1           0       -5.286024    6.146382   -0.813273
     79          1           0       -4.329255    4.779077   -1.774841
     80          1           0        3.558232   -4.640282    1.736165
     81          1           0        8.097703   -1.680408    1.881656
 ---------------------------------------------------------------------

 SCF Done:  E(RB3LYP) =  -1949.06661552     A.U. after   17 cycles

 Excitation energies and oscillator strengths:

 Excited State   1:      Singlet-A      1.5638 eV  792.85 nm  f=0.2739  <S**2>=0.000
     156 ->157         0.71068
     156 <-157        -0.12597
 This state for optimization and/or second-order correction.
 Total Energy, E(TD-HF/TD-DFT) =  -1949.00914799
 Copying the excited state density for this state as the 1-particle RhoCI density.

 The electronic state is 1-A.
 Alpha  occ. eigenvalues --  -19.21424 -19.17543 -19.15266 -19.12926 -19.12595
 Alpha  occ. eigenvalues --  -19.09168 -14.36850 -14.35771 -14.34887 -14.28202
 Alpha  occ. eigenvalues --  -10.34430 -10.31347 -10.30541 -10.25745 -10.24486
 Alpha  occ. eigenvalues --  -10.23963 -10.23220 -10.23157 -10.22979 -10.22643
 Alpha  occ. eigenvalues --  -10.22154 -10.21585 -10.21356 -10.21256 -10.21083
 Alpha  occ. eigenvalues --  -10.20864 -10.20864 -10.20686 -10.20646 -10.20439
 Alpha  occ. eigenvalues --  -10.20260 -10.20209 -10.20072 -10.19908 -10.19406
 Alpha  occ. eigenvalues --  -10.19357 -10.19239 -10.19056 -10.18965 -10.18858
 Alpha  occ. eigenvalues --  -10.18631 -10.17886 -10.17650  -1.11928  -1.08821
 Alpha  occ. eigenvalues --   -1.04330  -1.02238  -1.00869  -0.99000  -0.98616
 Alpha  occ. eigenvalues --   -0.97598  -0.93723  -0.89728  -0.83861  -0.82714
 Alpha  occ. eigenvalues --   -0.81577  -0.81196  -0.80084  -0.78748  -0.78199
 Alpha  occ. eigenvalues --   -0.77066  -0.75821  -0.74816  -0.73527  -0.72493
 Alpha  occ. eigenvalues --   -0.71665  -0.70167  -0.69488  -0.68662  -0.67290
 Alpha  occ. eigenvalues --   -0.67244  -0.65258  -0.63901  -0.63112  -0.62237
 Alpha  occ. eigenvalues --   -0.60965  -0.59387  -0.58394  -0.57685  -0.57355
 Alpha  occ. eigenvalues --   -0.56341  -0.54716  -0.53907  -0.53144  -0.51999
 Alpha  occ. eigenvalues --   -0.51782  -0.51508  -0.51114  -0.50586  -0.50235
 Alpha  occ. eigenvalues --   -0.50014  -0.49307  -0.48736  -0.47981  -0.47735
 Alpha  occ. eigenvalues --   -0.47172  -0.46649  -0.46251  -0.45959  -0.45421
 Alpha  occ. eigenvalues --   -0.45029  -0.44858  -0.44360  -0.44024  -0.43691
 Alpha  occ. eigenvalues --   -0.43672  -0.43345  -0.42991  -0.42379  -0.42158
 Alpha  occ. eigenvalues --   -0.42036  -0.41867  -0.41577  -0.41042  -0.40967
 Alpha  occ. eigenvalues --   -0.40653  -0.40476  -0.40316  -0.39926  -0.39556
 Alpha  occ. eigenvalues --   -0.39319  -0.38787  -0.38685  -0.37931  -0.37838
 Alpha  occ. eigenvalues --   -0.37676  -0.37551  -0.36913  -0.36796  -0.36384
 Alpha  occ. eigenvalues --   -0.35973  -0.35857  -0.35572  -0.35306  -0.34862
 Alpha  occ. eigenvalues --   -0.34710  -0.34057  -0.33340  -0.32849  -0.32712
 Alpha  occ. eigenvalues --   -0.32053  -0.31740  -0.31655  -0.29448  -0.29237
 Alpha  occ. eigenvalues --   -0.27802  -0.27631  -0.26658  -0.26195  -0.25380
 Alpha  occ. eigenvalues --   -0.25067  -0.24565  -0.22986  -0.22212  -0.20831
 Alpha  occ. eigenvalues --   -0.17182
 Alpha virt. eigenvalues --   -0.10838  -0.05486  -0.04280  -0.02212  -0.01215
 Alpha virt. eigenvalues --    0.00986   0.01772   0.03100   0.03443   0.04127
 Alpha virt. eigenvalues --    0.04215   0.04407   0.05401   0.05451   0.05922

 Mulliken charges:
               1
     1  O   -0.183205
     2  O   -0.151617
     3  O   -0.241412
     4  O   -0.244098
     5  O   -0.192972
     6  O   -0.260223
     7  N   -0.039865
     8  N   -0.000724
     9  N   -0.156957
    10  N   -0.332733
    11  C   -0.120487
    12  C    0.050096
    13  C   -0.182708
    14  C    0.126628
    15  C   -0.053199
    16  C    0.061053
    17  C   -0.056299
    18  C   -0.116388
    19  C    0.185136
    20  C   -0.122158
    21  C    0.059235
    22  C    0.103869
    23  C    0.017131
    24  C   -0.068789
    25  C   -0.161166
    26  C   -0.012543
    27  C    0.188728
    28  C    0.073304
    29  C    0.009655
    30  C    0.184294
    31  C   -0.102768
    32  C    0.076541
    33  C   -0.167385
    34  C    0.073508
    35  C   -0.074344
    36  C   -0.185087
    37  C    0.130784
    38  C    0.088932
    39  C    0.117916
    40  C    0.093997
    41  C    0.173436
    42  C    0.053171
    43  C   -0.058920
    44  H    0.099474
    45  H    0.019049
    46  H    0.016905
    47  H   -0.019362
    48  H    0.038100
    49  H    0.051604
    50  H    0.029669
    51  H    0.066893
    52  H    0.057227
    53  H    0.039888
    54  H    0.050793
    55  H    0.048456
    56  H    0.091833
    57  H    0.025366
    58  H   -0.000700
    59  H    0.087124
    60  H    0.029059
    61  H    0.001765
    62  H   -0.004229
    63  H    0.024727
    64  H   -0.056765
    65  H    0.029936
    66  H    0.014260
    67  H   -0.025107
    68  H   -0.001853
    69  H    0.102217
    70  H   -0.005513
    71  H    0.029493
    72  H   -0.035907
    73  H    0.035284
    74  H    0.032908
    75  H    0.047285
    76  H    0.033623
    77  H    0.021172
    78  H    0.047570
    79  H    0.028473
    80  H    0.182829
    81  H    0.185092
 Sum of Mulliken charges =  -0.00000

 Dipole moment (field-independent basis, Debye):
    X=              2.6572    Y=              0.1112    Z=              1.9473  Tot=              3.2962
 Quadrupole moment (field-independent basis, Debye-Ang):
   XX=           -245.1350   YY=           -237.9576   ZZ=           -255.3615
   XY=            -14.7128   XZ=             17.3721   YZ=             15.3834

 Normal termination of Gaussian 16 at Fri Jun 28 20:23:06 2019.
