 Gaussian 16, Revision A.03,
 Gaussian 16:  ES64L-G16RevA.03 25-Dec-2016

 --------------------------
 # td=(NStates=1) B3LYP/SVP
 --------------------------

 --
 TD
 --
 Symbolic Z-matrix:
 Charge =  0 Multiplicity = 1

                         Standard orientation:
 ---------------------------------------------------------------------
 Center     Atomic      Atomic             Coordinates (Angstroms)
 Number     Number       Type             X           Y           Z
 ---------------------------------------------------------------------
      1          8           0        4.397310   -4.955901   -1.651831
      2          8           0       -2.981506   -4.797091   -1.141119
      3          8           0       -7.028434   -1.568523   -1.718753
      4          8           0       -3.898513   -3.171545    0.158401
      5          8           0       -7.631981   -0.489098    0.119421
      6          8           0        2.996058    2.392845    0.449583
      7          7           0        0.291786   -0.511462    0.569413
      8          7           0       -1.558972    1.794164    0.250893
      9          7           0        3.370278   -3.204047   -0.601925
     10          7           0        0.706211    2.912967    0.139280
     11          6           0       -0.660907   -2.435129    1.243752
     12          6           0       -0.951793   -1.030872    0.884237
     13          6           0        0.713273   -2.574824    1.094357
     14          6           0        1.274468   -1.416313    0.636991
     15          6           0       -3.824333    1.535610    0.210203
     16          6           0       -2.463240    0.860765    0.464206
     17          6           0       -2.237548   -0.542736    0.828337
     18          6           0       -3.619552    2.860197   -0.101711
     19          6           0       -1.633572   -3.425883    1.813020
     20          6           0        5.597907   -2.748858   -1.393234
     21          6           0        3.678271   -1.882228   -0.221664
     22          6           0       -2.161514    2.981594   -0.142589
     23          6           0        5.021640   -1.655484   -0.494918
     24          6           0       -5.087297    0.756900    0.388754
     25          6           0        2.664336   -1.032642    0.318612
     26          6           0        1.485256   -3.732677    1.798079
     27          6           0        4.429773   -3.870365   -1.207829
     28          6           0       -2.038151   -4.521842    0.985945
     29          6           0       -5.438413   -0.224481   -0.748220
     30          6           0       -4.581240    3.920525   -0.456495
     31          6           0       -1.303130    4.119064   -0.426898
     32          6           0        6.902139   -3.392208   -1.007131
     33          6           0        5.805244   -0.569811   -0.031779
     34          6           0        0.180655    4.054305   -0.254409
     35          6           0        1.075283    5.196041   -0.472366
     36          6           0        2.292562    4.702946   -0.190399
     37          6           0       -3.074180   -4.113370   -0.024591
     38          6           0        5.496256    0.504540    0.924110
     39          6           0       -6.804714   -0.714932   -0.757837
     40          6           0        3.598056    5.317591   -0.220805
     41          6           0        2.125304    3.310807    0.257097
     42          6           0        0.757896    6.645271   -0.946482
     43          6           0        4.222317    5.793443    1.088581
     44          1           0        0.493497    0.329791   -0.099661
     45          1           0       -3.031392   -1.260746    1.072009
     46          1           0       -2.370909   -3.010590    2.389196
     47          1           0       -1.028843   -3.828019    2.703657
     48          1           0        5.727470   -2.602314   -2.373215
     49          1           0       -5.009752    0.223087    1.295830
     50          1           0       -5.982845    1.483660    0.649906
     51          1           0        2.834677   -0.013094    0.342628
     52          1           0       -0.480024    1.827032    0.387434
     53          1           0        1.604803   -4.562116    1.208311
     54          1           0        2.757392   -3.650415    1.983237
     55          1           0        0.862394   -3.912347    2.714391
     56          1           0        2.329290   -3.478382   -0.544299
     57          1           0       -1.425595   -5.141065    0.401799
     58          1           0       -2.509566   -5.305100    1.744165
     59          1           0       -4.623247   -1.020747   -0.623504
     60          1           0       -5.275334    0.315087   -1.800502
     61          1           0       -4.608026    4.727525    0.168333
     62          1           0       -5.623652    3.320289   -0.483567
     63          1           0       -4.391474    4.008840   -1.595977
     64          1           0       -1.693291    4.948030   -0.705964
     65          1           0        7.727096   -2.525916   -1.264056
     66          1           0        7.101295   -4.164000   -1.732813
     67          1           0        6.722585   -3.653678    0.070885
     68          1           0        6.779592   -0.577322   -0.556298
     69          1           0        5.020613    1.436721    0.373256
     70          1           0        6.506978    0.979112    1.316532
     71          1           0        4.885831    0.176864    1.852798
     72          1           0        3.504714    6.123199   -1.018736
     73          1           0        4.444110    4.622923   -0.623146
     74          1           0       -0.018626    6.596258   -1.800223
     75          1           0        1.758310    7.008168   -1.204074
     76          1           0        0.233701    7.308039   -0.180201
     77          1           0        3.530498    6.420991    1.664868
     78          1           0        5.345128    6.420277    0.979394
     79          1           0        4.420281    4.676136    1.503004
     80          1           0       -3.684690   -4.581098   -1.894813
     81          1           0       -7.967886   -1.941606   -1.571362
 ---------------------------------------------------------------------

 SCF Done:  E(RB3LYP) =  -1949.08944722     A.U. after   17 cycles

 Excitation energies and oscillator strengths:

 Excited State   1:      Singlet-A      1.5954 eV  777.15 nm  f=0.3223  <S**2>=0.000
     156 ->157         0.71677
     156 <-157        -0.16144
 This state for optimization and/or second-order correction.
 Total Energy, E(TD-HF/TD-DFT) =  -1949.03081840
 Copying the excited state density for this state as the 1-particle RhoCI density.

 The electronic state is 1-A.
 Alpha  occ. eigenvalues --  -19.21403 -19.18727 -19.13525 -19.11593 -19.11275
 Alpha  occ. eigenvalues --  -19.10660 -14.38039 -14.36799 -14.35390 -14.29406
 Alpha  occ. eigenvalues --  -10.33850 -10.31055 -10.29056 -10.26998 -10.24146
 Alpha  occ. eigenvalues --  -10.23428 -10.23237 -10.22989 -10.22945 -10.22590
 Alpha  occ. eigenvalues --  -10.22048 -10.21227 -10.21030 -10.20801 -10.20676
 Alpha  occ. eigenvalues --  -10.20622 -10.20601 -10.20578 -10.20530 -10.20277
 Alpha  occ. eigenvalues --  -10.20005 -10.19977 -10.19869 -10.19689 -10.19654
 Alpha  occ. eigenvalues --  -10.19632 -10.19550 -10.19474 -10.19324 -10.19071
 Alpha  occ. eigenvalues --  -10.18940 -10.18698 -10.17997  -1.10971  -1.10403
 Alpha  occ. eigenvalues --   -1.05494  -0.99836  -0.99113  -0.99104  -0.98792
 Alpha  occ. eigenvalues --   -0.97322  -0.94879  -0.91482  -0.83858  -0.81473
 Alpha  occ. eigenvalues --   -0.81299  -0.81021  -0.80251  -0.78753  -0.78026
 Alpha  occ. eigenvalues --   -0.76839  -0.75483  -0.74877  -0.73545  -0.71575
 Alpha  occ. eigenvalues --   -0.71053  -0.70101  -0.69425  -0.68890  -0.67373
 Alpha  occ. eigenvalues --   -0.67053  -0.64804  -0.63096  -0.62387  -0.61816
 Alpha  occ. eigenvalues --   -0.60453  -0.59357  -0.58844  -0.58201  -0.57074
 Alpha  occ. eigenvalues --   -0.56075  -0.55354  -0.54008  -0.53247  -0.52257
 Alpha  occ. eigenvalues --   -0.51933  -0.51324  -0.51027  -0.50117  -0.49812
 Alpha  occ. eigenvalues --   -0.49349  -0.49227  -0.48531  -0.48191  -0.47744
 Alpha  occ. eigenvalues --   -0.47084  -0.46758  -0.46468  -0.45957  -0.45366
 Alpha  occ. eigenvalues --   -0.45071  -0.44299  -0.44256  -0.44033  -0.43797
 Alpha  occ. eigenvalues --   -0.43517  -0.43323  -0.42957  -0.42842  -0.42358
 Alpha  occ. eigenvalues --   -0.41653  -0.41524  -0.41189  -0.40951  -0.40645
 Alpha  occ. eigenvalues --   -0.40446  -0.40318  -0.40053  -0.39571  -0.39394
 Alpha  occ. eigenvalues --   -0.39153  -0.38790  -0.38686  -0.38186  -0.37684
 Alpha  occ. eigenvalues --   -0.37311  -0.36974  -0.36715  -0.36554  -0.36454
 Alpha  occ. eigenvalues --   -0.35956  -0.35387  -0.35172  -0.34349  -0.34033
 Alpha  occ. eigenvalues --   -0.33918  -0.33590  -0.33509  -0.33181  -0.32561
 Alpha  occ. eigenvalues --   -0.32289  -0.31771  -0.31498  -0.29853  -0.28978
 Alpha  occ. eigenvalues --   -0.28755  -0.27193  -0.26407  -0.25835  -0.25657
 Alpha  occ. eigenvalues --   -0.25156  -0.24861  -0.24218  -0.23370  -0.20907
 Alpha  occ. eigenvalues --   -0.16390
 Alpha virt. eigenvalues --   -0.10324  -0.06341  -0.04542  -0.02567   0.00326
 Alpha virt. eigenvalues --    0.00414   0.00928   0.02499   0.03615   0.03826
 Alpha virt. eigenvalues --    0.04181   0.04676   0.04988   0.05524   0.05633

 Mulliken charges:
               1
     1  O   -0.158439
     2  O   -0.186902
     3  O   -0.170101
     4  O   -0.278456
     5  O   -0.257285
     6  O   -0.258965
     7  N   -0.079461
     8  N   -0.083047
     9  N   -0.161160
    10  N   -0.313668
    11  C   -0.139926
    12  C    0.078704
    13  C   -0.171062
    14  C    0.030291
    15  C   -0.105696
    16  C    0.053401
    17  C   -0.082226
    18  C   -0.133588
    19  C    0.150262
    20  C   -0.048958
    21  C    0.088541
    22  C    0.061434
    23  C   -0.042996
    24  C    0.079160
    25  C   -0.028351
    26  C    0.046491
    27  C    0.110264
    28  C    0.067769
    29  C   -0.049275
    30  C    0.103028
    31  C   -0.006509
    32  C    0.021205
    33  C   -0.091154
    34  C    0.052023
    35  C   -0.092612
    36  C   -0.134034
    37  C    0.129469
    38  C    0.005706
    39  C    0.129872
    40  C    0.019812
    41  C    0.195449
    42  C    0.079601
    43  C   -0.078175
    44  H    0.179533
    45  H    0.026292
    46  H   -0.012999
    47  H   -0.007622
    48  H   -0.007725
    49  H    0.000392
    50  H    0.025768
    51  H   -0.040986
    52  H    0.171806
    53  H   -0.009971
    54  H    0.049721
    55  H    0.038544
    56  H    0.157163
    57  H    0.007043
    58  H    0.056417
    59  H    0.078578
    60  H    0.042452
    61  H    0.024428
    62  H    0.023645
    63  H    0.042801
    64  H   -0.136553
    65  H    0.026192
    66  H    0.029159
    67  H    0.031908
    68  H   -0.004976
    69  H    0.095255
    70  H    0.016258
    71  H    0.056586
    72  H   -0.000185
    73  H    0.022290
    74  H    0.037904
    75  H    0.022136
    76  H    0.043171
    77  H    0.025165
    78  H    0.038777
    79  H    0.057085
    80  H    0.241560
    81  H    0.202551
 Sum of Mulliken charges =  -0.00000

 Dipole moment (field-independent basis, Debye):
    X=             -2.0680    Y=             -0.4934    Z=             -2.1357  Tot=              3.0136
 Quadrupole moment (field-independent basis, Debye-Ang):
   XX=           -258.4697   YY=           -233.1829   ZZ=           -251.7604
   XY=             22.7993   XZ=             13.6735   YZ=             -8.7723

 Normal termination of Gaussian 16 at Fri Jun 28 11:05:45 2019.
