 Gaussian 16, Revision A.03,
 Gaussian 16:  ES64L-G16RevA.03 25-Dec-2016

 --------------------------
 # td=(NStates=1) B3LYP/SVP
 --------------------------

 --
 TD
 --
 Symbolic Z-matrix:
 Charge =  0 Multiplicity = 1

                         Standard orientation:
 ---------------------------------------------------------------------
 Center     Atomic      Atomic             Coordinates (Angstroms)
 Number     Number       Type             X           Y           Z
 ---------------------------------------------------------------------
      1          8           0        4.124197   -4.877236   -1.825759
      2          8           0       -3.275898   -5.035677   -0.990475
      3          8           0       -7.006564   -1.517970   -1.738139
      4          8           0       -3.718705   -3.085571    0.162886
      5          8           0       -7.625396   -0.313941   -0.049487
      6          8           0        2.975800    2.276113    0.426986
      7          7           0        0.251017   -0.433004    0.569729
      8          7           0       -1.532025    1.863241    0.408653
      9          7           0        3.271011   -3.012250   -0.713205
     10          7           0        0.789810    2.814318   -0.046227
     11          6           0       -0.673990   -2.332085    1.274163
     12          6           0       -0.925628   -1.021007    0.910233
     13          6           0        0.808913   -2.518191    1.235921
     14          6           0        1.304670   -1.387487    0.681867
     15          6           0       -3.739002    1.466141    0.262571
     16          6           0       -2.466947    0.895458    0.624021
     17          6           0       -2.198143   -0.390452    1.022078
     18          6           0       -3.551830    2.824683   -0.184346
     19          6           0       -1.676650   -3.247936    1.922641
     20          6           0        5.469886   -2.819149   -1.397871
     21          6           0        3.551374   -1.774162   -0.324062
     22          6           0       -2.166537    2.991808   -0.091953
     23          6           0        5.012400   -1.596828   -0.519752
     24          6           0       -5.008805    0.805014    0.440884
     25          6           0        2.608962   -0.941007    0.292257
     26          6           0        1.533667   -3.734242    1.832798
     27          6           0        4.322185   -3.754757   -1.385845
     28          6           0       -2.093729   -4.522618    1.055762
     29          6           0       -5.369179    0.047360   -0.841904
     30          6           0       -4.585288    3.797774   -0.544161
     31          6           0       -1.269663    4.130159   -0.375846
     32          6           0        6.855218   -3.524615   -0.956808
     33          6           0        5.752274   -0.566847   -0.166317
     34          6           0        0.234580    4.005325   -0.376053
     35          6           0        1.096624    5.050916   -0.514769
     36          6           0        2.395032    4.596443   -0.236369
     37          6           0       -3.148364   -4.166123    0.023931
     38          6           0        5.423812    0.556717    0.793685
     39          6           0       -6.785271   -0.610050   -0.833827
     40          6           0        3.779748    5.077026   -0.181321
     41          6           0        2.145242    3.105903    0.142128
     42          6           0        0.817600    6.490589   -0.948683
     43          6           0        4.379921    5.323739    1.308787
     44          1           0        0.433007    0.337234    0.236949
     45          1           0       -3.103121   -0.960294    1.244382
     46          1           0       -2.331961   -2.804379    2.231369
     47          1           0       -1.185592   -3.588575    2.761852
     48          1           0        5.593380   -2.259505   -2.372472
     49          1           0       -5.112920    0.282225    1.311325
     50          1           0       -5.732918    1.601181    0.519010
     51          1           0        2.937859    0.022046    0.524305
     52          1           0       -0.394049    2.064972    0.617431
     53          1           0        1.748857   -4.425722    0.988484
     54          1           0        2.659177   -3.353374    2.049589
     55          1           0        1.087960   -4.217743    2.747486
     56          1           0        2.379894   -3.636448   -0.477198
     57          1           0       -1.344117   -5.077013    0.671956
     58          1           0       -2.722753   -5.163534    2.044660
     59          1           0       -4.664929   -0.935834   -1.021110
     60          1           0       -4.966412    0.622656   -1.724334
     61          1           0       -4.396966    4.968297   -0.209207
     62          1           0       -5.601699    3.609275   -0.434075
     63          1           0       -4.443836    4.025783   -1.599000
     64          1           0       -1.785757    5.147438   -0.576856
     65          1           0        7.538308   -2.839569   -1.065017
     66          1           0        7.003173   -4.451590   -1.635295
     67          1           0        6.722289   -3.980808   -0.011682
     68          1           0        6.967648   -0.731782   -0.304008
     69          1           0        4.914820    1.346067    0.158223
     70          1           0        6.408281    0.894777    1.353568
     71          1           0        4.625445    0.267473    1.219634
     72          1           0        3.848726    6.127268   -0.515252
     73          1           0        4.693827    4.569950   -0.629836
     74          1           0        0.591719    6.732275   -1.973664
     75          1           0        1.631780    7.332190   -0.938894
     76          1           0       -0.021892    6.855955   -0.395204
     77          1           0        3.798135    6.033771    1.867890
     78          1           0        5.322962    5.876327    1.305986
     79          1           0        4.523814    4.350886    1.981162
     80          1           0       -3.931298   -4.609250   -1.522412
     81          1           0       -7.935514   -1.769509   -1.513519
 ---------------------------------------------------------------------

 SCF Done:  E(RB3LYP) =  -1948.99476760     A.U. after   17 cycles

 Excitation energies and oscillator strengths:

 Excited State   1:      Singlet-A      1.6932 eV  732.25 nm  f=0.2831  <S**2>=0.000
     156 ->157         0.70570
     156 <-157        -0.12055
 This state for optimization and/or second-order correction.
 Total Energy, E(TD-HF/TD-DFT) =  -1948.93254392
 Copying the excited state density for this state as the 1-particle RhoCI density.

 The electronic state is 1-A.
 Alpha  occ. eigenvalues --  -19.20938 -19.18945 -19.14217 -19.12252 -19.12121
 Alpha  occ. eigenvalues --  -19.09955 -14.36980 -14.34894 -14.33800 -14.28700
 Alpha  occ. eigenvalues --  -10.33851 -10.31776 -10.29964 -10.25985 -10.23907
 Alpha  occ. eigenvalues --  -10.23377 -10.22919 -10.22816 -10.22571 -10.22464
 Alpha  occ. eigenvalues --  -10.22105 -10.21723 -10.21704 -10.21512 -10.21063
 Alpha  occ. eigenvalues --  -10.20239 -10.20222 -10.20214 -10.20138 -10.20120
 Alpha  occ. eigenvalues --  -10.20061 -10.19965 -10.19866 -10.19771 -10.19442
 Alpha  occ. eigenvalues --  -10.19426 -10.19348 -10.18953 -10.18611 -10.18409
 Alpha  occ. eigenvalues --  -10.18166 -10.17205 -10.17109  -1.12497  -1.12196
 Alpha  occ. eigenvalues --   -1.03611  -1.02427  -1.01759  -1.01389  -0.98127
 Alpha  occ. eigenvalues --   -0.96188  -0.95417  -0.91898  -0.82578  -0.82099
 Alpha  occ. eigenvalues --   -0.81170  -0.80781  -0.78946  -0.78711  -0.77547
 Alpha  occ. eigenvalues --   -0.76764  -0.75380  -0.74830  -0.73173  -0.71778
 Alpha  occ. eigenvalues --   -0.70815  -0.70572  -0.69783  -0.68639  -0.68152
 Alpha  occ. eigenvalues --   -0.67506  -0.65873  -0.64883  -0.62735  -0.61841
 Alpha  occ. eigenvalues --   -0.61059  -0.59618  -0.58479  -0.58247  -0.56914
 Alpha  occ. eigenvalues --   -0.56122  -0.55310  -0.54646  -0.53172  -0.52718
 Alpha  occ. eigenvalues --   -0.52583  -0.52049  -0.51097  -0.50884  -0.50341
 Alpha  occ. eigenvalues --   -0.49669  -0.48821  -0.48566  -0.48248  -0.47837
 Alpha  occ. eigenvalues --   -0.47195  -0.46956  -0.46158  -0.45696  -0.44629
 Alpha  occ. eigenvalues --   -0.44356  -0.44150  -0.44081  -0.43897  -0.43650
 Alpha  occ. eigenvalues --   -0.43321  -0.42936  -0.42835  -0.42618  -0.42499
 Alpha  occ. eigenvalues --   -0.42264  -0.42006  -0.41566  -0.41183  -0.40944
 Alpha  occ. eigenvalues --   -0.40498  -0.40340  -0.40066  -0.39988  -0.39599
 Alpha  occ. eigenvalues --   -0.39428  -0.38970  -0.38792  -0.38476  -0.38147
 Alpha  occ. eigenvalues --   -0.37857  -0.37799  -0.37378  -0.36942  -0.36852
 Alpha  occ. eigenvalues --   -0.36087  -0.35637  -0.35404  -0.35234  -0.35098
 Alpha  occ. eigenvalues --   -0.34512  -0.34178  -0.33812  -0.33530  -0.33150
 Alpha  occ. eigenvalues --   -0.32739  -0.32680  -0.31865  -0.29745  -0.29351
 Alpha  occ. eigenvalues --   -0.28360  -0.28087  -0.27145  -0.25771  -0.24852
 Alpha  occ. eigenvalues --   -0.24249  -0.23901  -0.23321  -0.22708  -0.20634
 Alpha  occ. eigenvalues --   -0.17467
 Alpha virt. eigenvalues --   -0.10598  -0.06179  -0.03583  -0.02785  -0.00980
 Alpha virt. eigenvalues --    0.01141   0.02566   0.03524   0.03808   0.04248
 Alpha virt. eigenvalues --    0.04650   0.04798   0.05246   0.05698   0.06017

 Mulliken charges:
               1
     1  O   -0.203572
     2  O   -0.133490
     3  O   -0.140001
     4  O   -0.244823
     5  O   -0.224147
     6  O   -0.202401
     7  N    0.041693
     8  N   -0.178960
     9  N   -0.182083
    10  N   -0.317068
    11  C   -0.189820
    12  C    0.127570
    13  C   -0.181408
    14  C    0.106778
    15  C   -0.170428
    16  C    0.107145
    17  C   -0.076644
    18  C   -0.065791
    19  C    0.425122
    20  C   -0.108726
    21  C    0.085950
    22  C    0.063325
    23  C   -0.001038
    24  C    0.223047
    25  C   -0.081169
    26  C    0.038033
    27  C    0.167477
    28  C   -0.036622
    29  C   -0.119260
    30  C    0.090696
    31  C   -0.124922
    32  C    0.119884
    33  C   -0.268063
    34  C    0.095556
    35  C   -0.067351
    36  C   -0.115018
    37  C    0.156993
    38  C    0.168205
    39  C    0.137809
    40  C    0.048186
    41  C    0.145109
    42  C    0.064806
    43  C   -0.061021
    44  H    0.002868
    45  H    0.012021
    46  H   -0.180643
    47  H   -0.040798
    48  H    0.068636
    49  H   -0.016717
    50  H   -0.007532
    51  H   -0.033412
    52  H    0.218310
    53  H    0.014071
    54  H    0.044768
    55  H    0.047628
    56  H    0.171781
    57  H   -0.000146
    58  H    0.065885
    59  H    0.056242
    60  H    0.046492
    61  H    0.027838
    62  H    0.004470
    63  H    0.009686
    64  H   -0.005260
    65  H   -0.012175
    66  H    0.039372
    67  H    0.009714
    68  H    0.013601
    69  H    0.061132
    70  H    0.041841
    71  H   -0.049702
    72  H   -0.010871
    73  H    0.042968
    74  H    0.011147
    75  H    0.016132
    76  H    0.011119
    77  H   -0.000901
    78  H    0.002855
    79  H    0.049558
    80  H    0.169981
    81  H    0.178489
 Sum of Mulliken charges =  -0.00000

 Dipole moment (field-independent basis, Debye):
    X=             -1.6513    Y=             -0.1870    Z=             -0.1391  Tot=              1.6676
 Quadrupole moment (field-independent basis, Debye-Ang):
   XX=           -239.4939   YY=           -236.6250   ZZ=           -253.5280
   XY=             16.1426   XZ=             12.4699   YZ=            -15.1595

 Normal termination of Gaussian 16 at Fri Jun 28 06:58:59 2019.
