 Gaussian 16, Revision A.03,
 Gaussian 16:  ES64L-G16RevA.03 25-Dec-2016

 --------------------------
 # td=(NStates=1) B3LYP/SVP
 --------------------------

 --
 TD
 --
 Symbolic Z-matrix:
 Charge =  0 Multiplicity = 1

                         Standard orientation:
 ---------------------------------------------------------------------
 Center     Atomic      Atomic             Coordinates (Angstroms)
 Number     Number       Type             X           Y           Z
 ---------------------------------------------------------------------
      1          8           0        4.118067   -4.939042   -1.786765
      2          8           0       -3.175446   -4.682271   -1.190335
      3          8           0       -6.961297   -1.723316   -1.688926
      4          8           0       -4.060180   -3.045850    0.164440
      5          8           0       -7.474378   -0.283046    0.012370
      6          8           0        3.099996    2.315168    0.464850
      7          7           0        0.124200   -0.534650    0.505736
      8          7           0       -1.503254    1.951709    0.328075
      9          7           0        3.204808   -3.178459   -0.594442
     10          7           0        0.770583    2.869180   -0.081293
     11          6           0       -0.704937   -2.402734    1.319128
     12          6           0       -1.032254   -1.050741    0.950534
     13          6           0        0.583966   -2.650647    1.178795
     14          6           0        1.216776   -1.370349    0.677943
     15          6           0       -3.698580    1.663720    0.307641
     16          6           0       -2.431314    1.004021    0.537601
     17          6           0       -2.272279   -0.406422    0.775663
     18          6           0       -3.445311    2.967520   -0.035091
     19          6           0       -1.700419   -3.412061    1.914543
     20          6           0        5.455057   -2.928116   -1.310155
     21          6           0        3.513432   -1.899100   -0.260864
     22          6           0       -2.020542    3.142667   -0.062424
     23          6           0        4.942647   -1.714161   -0.459118
     24          6           0       -5.022417    0.951323    0.402620
     25          6           0        2.566763   -1.045353    0.213976
     26          6           0        1.317520   -3.881270    1.832777
     27          6           0        4.204750   -3.833598   -1.321908
     28          6           0       -2.151470   -4.425665    0.887281
     29          6           0       -5.245017    0.049264   -0.891616
     30          6           0       -4.412201    4.097855   -0.400648
     31          6           0       -1.126075    4.207861   -0.401510
     32          6           0        6.712981   -3.567169   -0.762220
     33          6           0        5.804817   -0.715104   -0.062231
     34          6           0        0.302907    4.094552   -0.347080
     35          6           0        1.324811    5.126694   -0.516711
     36          6           0        2.488047    4.553453   -0.381405
     37          6           0       -3.292983   -3.990445   -0.040700
     38          6           0        5.397106    0.451997    0.738637
     39          6           0       -6.597208   -0.642373   -0.741066
     40          6           0        3.862236    5.143820   -0.320431
     41          6           0        2.236253    3.115567   -0.007924
     42          6           0        0.952146    6.548506   -0.713599
     43          6           0        4.421007    5.091695    1.222134
     44          1           0        0.241957    0.320087    0.059204
     45          1           0       -3.236329   -0.803939    0.995118
     46          1           0       -2.589544   -3.017986    2.392615
     47          1           0       -1.329543   -3.981602    2.705123
     48          1           0        5.659058   -2.495120   -2.409333
     49          1           0       -5.098595    0.208557    1.298209
     50          1           0       -5.982621    1.676194    0.459323
     51          1           0        2.584797    0.111690    0.306143
     52          1           0       -0.322413    2.068065    0.401341
     53          1           0        1.378679   -4.851819    1.384731
     54          1           0        2.311730   -3.539195    2.118521
     55          1           0        0.822135   -4.206003    2.770796
     56          1           0        2.316981   -3.444025   -0.440643
     57          1           0       -1.272608   -4.935835    0.158925
     58          1           0       -2.494388   -5.368682    1.531784
     59          1           0       -4.474682   -0.762888   -1.030356
     60          1           0       -5.122913    0.784248   -1.667001
     61          1           0       -4.476628    5.202590    0.138260
     62          1           0       -5.458658    3.774580   -0.159814
     63          1           0       -4.340634    4.321945   -1.579102
     64          1           0       -1.438733    5.251399   -0.577563
     65          1           0        7.647923   -2.944816   -1.012496
     66          1           0        6.957254   -4.450241   -1.225314
     67          1           0        6.768067   -3.707311    0.473613
     68          1           0        6.800122   -0.882087   -0.388265
     69          1           0        4.819977    1.211204    0.058769
     70          1           0        6.340187    0.936940    1.124637
     71          1           0        4.706675    0.263937    1.578038
     72          1           0        4.035937    6.354299   -0.654537
     73          1           0        4.484252    4.593050   -0.975697
     74          1           0        0.760663    6.922578   -1.729733
     75          1           0        1.687488    7.278947   -0.382094
     76          1           0       -0.050519    6.862897    0.045222
     77          1           0        3.698597    5.584210    1.824915
     78          1           0        5.476493    5.301598    1.540894
     79          1           0        4.425468    4.070263    1.597804
     80          1           0       -3.812819   -4.101211   -1.833242
     81          1           0       -7.872552   -2.145390   -1.345834
 ---------------------------------------------------------------------

 SCF Done:  E(RB3LYP) =  -1949.13076738     A.U. after   17 cycles

 Excitation energies and oscillator strengths:

 Excited State   1:      Singlet-A      1.6571 eV  748.20 nm  f=0.3150  <S**2>=0.000
     156 ->157         0.71243
     156 <-157        -0.13728
 This state for optimization and/or second-order correction.
 Total Energy, E(TD-HF/TD-DFT) =  -1949.06986975
 Copying the excited state density for this state as the 1-particle RhoCI density.

 The electronic state is 1-A.
 Alpha  occ. eigenvalues --  -19.20629 -19.16174 -19.14693 -19.13335 -19.11817
 Alpha  occ. eigenvalues --  -19.11554 -14.38696 -14.37046 -14.33828 -14.30574
 Alpha  occ. eigenvalues --  -10.33771 -10.32404 -10.30072 -10.28397 -10.25334
 Alpha  occ. eigenvalues --  -10.24886 -10.23606 -10.23359 -10.23014 -10.22657
 Alpha  occ. eigenvalues --  -10.22575 -10.22158 -10.21713 -10.21617 -10.21448
 Alpha  occ. eigenvalues --  -10.21380 -10.21137 -10.21092 -10.20715 -10.20482
 Alpha  occ. eigenvalues --  -10.20425 -10.20307 -10.20246 -10.20165 -10.20099
 Alpha  occ. eigenvalues --  -10.20069 -10.19836 -10.19768 -10.19680 -10.19637
 Alpha  occ. eigenvalues --  -10.19103 -10.18050 -10.17613  -1.10107  -1.06123
 Alpha  occ. eigenvalues --   -1.04764  -1.01233  -1.00165  -0.99958  -0.97485
 Alpha  occ. eigenvalues --   -0.97363  -0.96587  -0.92295  -0.83192  -0.81849
 Alpha  occ. eigenvalues --   -0.81787  -0.80647  -0.80295  -0.78248  -0.77875
 Alpha  occ. eigenvalues --   -0.76324  -0.75947  -0.74898  -0.74051  -0.72140
 Alpha  occ. eigenvalues --   -0.70724  -0.70082  -0.68931  -0.68452  -0.67942
 Alpha  occ. eigenvalues --   -0.65691  -0.65321  -0.64688  -0.63097  -0.61774
 Alpha  occ. eigenvalues --   -0.60588  -0.59141  -0.58965  -0.57773  -0.56616
 Alpha  occ. eigenvalues --   -0.55697  -0.55588  -0.54709  -0.54241  -0.53496
 Alpha  occ. eigenvalues --   -0.52091  -0.51669  -0.50728  -0.50289  -0.49626
 Alpha  occ. eigenvalues --   -0.49271  -0.48541  -0.48201  -0.47988  -0.47164
 Alpha  occ. eigenvalues --   -0.46886  -0.46543  -0.46115  -0.45553  -0.45255
 Alpha  occ. eigenvalues --   -0.44679  -0.44583  -0.44317  -0.44159  -0.43622
 Alpha  occ. eigenvalues --   -0.43475  -0.43265  -0.42504  -0.42348  -0.42221
 Alpha  occ. eigenvalues --   -0.41946  -0.41501  -0.41004  -0.40704  -0.40579
 Alpha  occ. eigenvalues --   -0.40285  -0.40147  -0.39668  -0.39478  -0.38961
 Alpha  occ. eigenvalues --   -0.38865  -0.38564  -0.38363  -0.38110  -0.37717
 Alpha  occ. eigenvalues --   -0.37597  -0.37238  -0.36788  -0.36730  -0.36308
 Alpha  occ. eigenvalues --   -0.36069  -0.36017  -0.35573  -0.35363  -0.35335
 Alpha  occ. eigenvalues --   -0.35039  -0.34542  -0.34351  -0.33666  -0.33612
 Alpha  occ. eigenvalues --   -0.33256  -0.32322  -0.30736  -0.30022  -0.29721
 Alpha  occ. eigenvalues --   -0.29177  -0.27867  -0.27329  -0.26798  -0.26499
 Alpha  occ. eigenvalues --   -0.25589  -0.25017  -0.24706  -0.24116  -0.21836
 Alpha  occ. eigenvalues --   -0.17377
 Alpha virt. eigenvalues --   -0.10772  -0.06367  -0.04381  -0.02664  -0.01365
 Alpha virt. eigenvalues --   -0.00921   0.01759   0.02247   0.03420   0.03621
 Alpha virt. eigenvalues --    0.03741   0.04287   0.04853   0.04962   0.06057

 Mulliken charges:
               1
     1  O   -0.183595
     2  O   -0.215100
     3  O   -0.329916
     4  O   -0.245376
     5  O   -0.215591
     6  O   -0.267598
     7  N   -0.009768
     8  N   -0.158951
     9  N   -0.031510
    10  N   -0.348874
    11  C   -0.062442
    12  C    0.088464
    13  C   -0.161233
    14  C   -0.035021
    15  C   -0.058096
    16  C    0.012574
    17  C   -0.011923
    18  C   -0.075132
    19  C    0.197803
    20  C   -0.108963
    21  C    0.112565
    22  C    0.081173
    23  C   -0.049094
    24  C   -0.039759
    25  C   -0.114724
    26  C    0.069299
    27  C    0.153925
    28  C   -0.134607
    29  C   -0.002469
    30  C   -0.017850
    31  C   -0.079836
    32  C    0.033781
    33  C   -0.084262
    34  C    0.029756
    35  C   -0.009986
    36  C   -0.135386
    37  C    0.182031
    38  C    0.039153
    39  C    0.209095
    40  C    0.035199
    41  C    0.218233
    42  C    0.018696
    43  C   -0.018765
    44  H    0.100286
    45  H   -0.010332
    46  H    0.003949
    47  H   -0.035637
    48  H    0.067568
    49  H    0.044458
    50  H    0.056889
    51  H    0.053268
    52  H    0.211481
    53  H    0.018963
    54  H    0.032665
    55  H    0.011661
    56  H    0.077630
    57  H    0.070526
    58  H    0.055534
    59  H    0.051877
    60  H    0.045591
    61  H    0.046419
    62  H    0.010518
    63  H    0.044676
    64  H   -0.029861
    65  H    0.019794
    66  H    0.005748
    67  H    0.043094
    68  H   -0.029221
    69  H    0.090184
    70  H    0.008078
    71  H    0.039762
    72  H    0.028653
    73  H    0.007488
    74  H    0.036803
    75  H    0.010864
    76  H    0.044527
    77  H    0.005590
    78  H    0.015829
    79  H    0.021205
    80  H    0.229102
    81  H    0.218446
 Sum of Mulliken charges =  -0.00000

 Dipole moment (field-independent basis, Debye):
    X=              0.5038    Y=              0.1502    Z=              0.0719  Tot=              0.5306
 Quadrupole moment (field-independent basis, Debye-Ang):
   XX=           -256.0713   YY=           -242.1130   ZZ=           -255.1451
   XY=             13.7691   XZ=              5.6921   YZ=            -16.4612

 Normal termination of Gaussian 16 at Fri Jun 28 01:56:52 2019.
