 Gaussian 16, Revision A.03,
 Gaussian 16:  ES64L-G16RevA.03 25-Dec-2016

 --------------------------
 # td=(NStates=1) B3LYP/SVP
 --------------------------

 --
 TD
 --
 Symbolic Z-matrix:
 Charge =  0 Multiplicity = 1

                         Standard orientation:
 ---------------------------------------------------------------------
 Center     Atomic      Atomic             Coordinates (Angstroms)
 Number     Number       Type             X           Y           Z
 ---------------------------------------------------------------------
      1          8           0        3.923794   -4.958425   -2.018392
      2          8           0       -3.467833   -4.703150   -0.915881
      3          8           0       -6.853994   -1.261845   -1.905669
      4          8           0       -4.061728   -2.912562    0.165454
      5          8           0       -7.570810   -0.095607   -0.111221
      6          8           0        3.139756    2.260882    0.530819
      7          7           0        0.230418   -0.383961    0.646396
      8          7           0       -1.426900    1.888056    0.378834
      9          7           0        2.968366   -3.295217   -0.769309
     10          7           0        0.969204    2.890843    0.128201
     11          6           0       -0.802824   -2.315075    1.370664
     12          6           0       -1.046151   -0.975888    0.946348
     13          6           0        0.538904   -2.604050    1.162273
     14          6           0        1.195216   -1.427280    0.664710
     15          6           0       -3.668943    1.690559    0.273536
     16          6           0       -2.430561    0.978610    0.578306
     17          6           0       -2.274952   -0.357632    0.890433
     18          6           0       -3.339112    3.025097   -0.098334
     19          6           0       -1.842557   -3.202384    2.063228
     20          6           0        5.310136   -3.050575   -1.334856
     21          6           0        3.444487   -2.098588   -0.154417
     22          6           0       -1.910111    3.109379   -0.046428
     23          6           0        4.787528   -1.868729   -0.534983
     24          6           0       -5.032322    1.054185    0.302514
     25          6           0        2.524001   -1.134271    0.251866
     26          6           0        1.299510   -3.819903    1.735478
     27          6           0        4.093819   -3.944819   -1.361227
     28          6           0       -2.261787   -4.367735    1.142398
     29          6           0       -5.187323    0.035569   -0.857184
     30          6           0       -4.277079    4.145442   -0.405078
     31          6           0       -1.030629    4.109292   -0.393847
     32          6           0        6.489468   -3.806520   -0.882403
     33          6           0        5.655647   -0.854223   -0.171300
     34          6           0        0.387485    3.989947   -0.297887
     35          6           0        1.408693    5.050823   -0.538118
     36          6           0        2.633936    4.471481   -0.065558
     37          6           0       -3.336534   -3.893345    0.126369
     38          6           0        5.486136    0.309687    0.772613
     39          6           0       -6.673620   -0.430527   -0.850252
     40          6           0        4.103301    5.082169   -0.225323
     41          6           0        2.389936    3.092096    0.219672
     42          6           0        1.121753    6.368635   -1.017747
     43          6           0        4.714195    5.125544    1.175511
     44          1           0        0.223797    0.548088    0.130637
     45          1           0       -3.155221   -1.064016    0.885313
     46          1           0       -2.737702   -2.789321    2.199431
     47          1           0       -1.462426   -3.503585    3.200213
     48          1           0        5.329172   -2.603750   -2.386005
     49          1           0       -5.483230    0.434346    1.193544
     50          1           0       -5.850365    1.824443    0.109999
     51          1           0        2.934253   -0.074571    0.432718
     52          1           0       -0.293189    1.959207    0.277640
     53          1           0        1.168639   -4.623849    1.174381
     54          1           0        2.514737   -3.646748    1.865489
     55          1           0        1.114537   -3.963549    2.843234
     56          1           0        2.065416   -3.668643   -0.736972
     57          1           0       -1.546882   -5.001906    0.538754
     58          1           0       -3.018667   -5.034993    1.835573
     59          1           0       -4.364075   -0.709582   -0.705116
     60          1           0       -5.008767    0.527523   -1.804974
     61          1           0       -3.911572    5.139729    0.067162
     62          1           0       -5.382474    3.949008   -0.137295
     63          1           0       -4.138384    4.353392   -1.540925
     64          1           0       -1.630666    5.027025   -0.721029
     65          1           0        7.619746   -3.080755   -0.889436
     66          1           0        6.549127   -4.507432   -1.734445
     67          1           0        6.304867   -4.172779    0.196212
     68          1           0        6.712879   -1.010677   -0.680862
     69          1           0        4.782935    1.124598    0.228154
     70          1           0        6.453496    0.803793    1.013250
     71          1           0        4.824854    0.004490    1.693680
     72          1           0        3.902255    6.104289   -0.729315
     73          1           0        4.817720    4.477743   -0.836715
     74          1           0        0.624364    6.311232   -2.007256
     75          1           0        2.119286    6.955550   -1.147880
     76          1           0        0.324477    6.796562   -0.407387
     77          1           0        4.102145    5.840269    1.793008
     78          1           0        5.769563    5.485315    1.169841
     79          1           0        4.795085    4.068184    1.608215
     80          1           0       -4.060838   -4.162804   -1.278394
     81          1           0       -7.887870   -1.370024   -2.008034
 ---------------------------------------------------------------------

 SCF Done:  E(RB3LYP) =  -1949.13183522     A.U. after   17 cycles

 Excitation energies and oscillator strengths:

 Excited State   1:      Singlet-A      1.5883 eV  780.59 nm  f=0.2914  <S**2>=0.000
     156 ->157         0.71274
     156 <-157        -0.13875
 This state for optimization and/or second-order correction.
 Total Energy, E(TD-HF/TD-DFT) =  -1949.07346455
 Copying the excited state density for this state as the 1-particle RhoCI density.

 The electronic state is 1-A.
 Alpha  occ. eigenvalues --  -19.19719 -19.18484 -19.15082 -19.13293 -19.11255
 Alpha  occ. eigenvalues --  -19.11077 -14.37385 -14.36585 -14.34309 -14.28892
 Alpha  occ. eigenvalues --  -10.34347 -10.32222 -10.29331 -10.26570 -10.24333
 Alpha  occ. eigenvalues --  -10.24237 -10.24216 -10.22880 -10.22625 -10.22611
 Alpha  occ. eigenvalues --  -10.22545 -10.22115 -10.21712 -10.21203 -10.21179
 Alpha  occ. eigenvalues --  -10.21082 -10.20904 -10.20472 -10.20456 -10.20405
 Alpha  occ. eigenvalues --  -10.20287 -10.20264 -10.20208 -10.20173 -10.20167
 Alpha  occ. eigenvalues --  -10.20086 -10.19757 -10.19736 -10.19517 -10.19186
 Alpha  occ. eigenvalues --  -10.19075 -10.19001 -10.18184  -1.15669  -1.08958
 Alpha  occ. eigenvalues --   -1.05488  -1.03327  -1.02902  -1.00284  -0.96966
 Alpha  occ. eigenvalues --   -0.95450  -0.94258  -0.92272  -0.82662  -0.82556
 Alpha  occ. eigenvalues --   -0.81383  -0.80613  -0.79249  -0.78541  -0.77975
 Alpha  occ. eigenvalues --   -0.76694  -0.76395  -0.75305  -0.74052  -0.72005
 Alpha  occ. eigenvalues --   -0.70357  -0.69966  -0.69326  -0.68655  -0.66851
 Alpha  occ. eigenvalues --   -0.65829  -0.64818  -0.64287  -0.61992  -0.60349
 Alpha  occ. eigenvalues --   -0.59944  -0.58375  -0.58196  -0.57375  -0.57068
 Alpha  occ. eigenvalues --   -0.55713  -0.55276  -0.54057  -0.53452  -0.52862
 Alpha  occ. eigenvalues --   -0.52469  -0.51859  -0.51023  -0.50566  -0.49755
 Alpha  occ. eigenvalues --   -0.49601  -0.49009  -0.48557  -0.48373  -0.48064
 Alpha  occ. eigenvalues --   -0.47363  -0.46466  -0.46332  -0.45734  -0.45187
 Alpha  occ. eigenvalues --   -0.44610  -0.44414  -0.44211  -0.43981  -0.43595
 Alpha  occ. eigenvalues --   -0.43449  -0.43099  -0.42877  -0.42771  -0.42352
 Alpha  occ. eigenvalues --   -0.42288  -0.41892  -0.41639  -0.41439  -0.40932
 Alpha  occ. eigenvalues --   -0.40650  -0.40492  -0.39936  -0.39879  -0.39726
 Alpha  occ. eigenvalues --   -0.39144  -0.39038  -0.38902  -0.38351  -0.38073
 Alpha  occ. eigenvalues --   -0.37865  -0.37476  -0.37174  -0.36579  -0.36531
 Alpha  occ. eigenvalues --   -0.36086  -0.35943  -0.35404  -0.34967  -0.34621
 Alpha  occ. eigenvalues --   -0.34448  -0.34306  -0.34093  -0.33593  -0.33370
 Alpha  occ. eigenvalues --   -0.33045  -0.32403  -0.32257  -0.30702  -0.30239
 Alpha  occ. eigenvalues --   -0.28835  -0.28529  -0.26415  -0.26134  -0.25793
 Alpha  occ. eigenvalues --   -0.25034  -0.24703  -0.23876  -0.22965  -0.21295
 Alpha  occ. eigenvalues --   -0.16926
 Alpha virt. eigenvalues --   -0.10578  -0.06535  -0.04609  -0.02049  -0.01096
 Alpha virt. eigenvalues --    0.00066   0.02005   0.03141   0.03585   0.03665
 Alpha virt. eigenvalues --    0.04199   0.04515   0.04813   0.05265   0.05924

 Mulliken charges:
               1
     1  O   -0.211990
     2  O   -0.074635
     3  O   -0.224977
     4  O   -0.257289
     5  O   -0.224410
     6  O   -0.145787
     7  N   -0.150552
     8  N   -0.188025
     9  N   -0.135470
    10  N   -0.341241
    11  C   -0.101751
    12  C    0.083576
    13  C   -0.174382
    14  C    0.115647
    15  C   -0.054055
    16  C    0.130978
    17  C   -0.131601
    18  C   -0.094018
    19  C    0.164583
    20  C   -0.006672
    21  C    0.115693
    22  C    0.022382
    23  C   -0.098364
    24  C    0.012273
    25  C   -0.124549
    26  C    0.062405
    27  C    0.090010
    28  C   -0.035608
    29  C   -0.039185
    30  C    0.027674
    31  C   -0.114566
    32  C    0.007594
    33  C   -0.143409
    34  C    0.118541
    35  C   -0.117576
    36  C   -0.191162
    37  C    0.102148
    38  C   -0.002159
    39  C    0.167426
    40  C    0.047309
    41  C    0.170523
    42  C    0.108987
    43  C   -0.036295
    44  H    0.146674
    45  H    0.045620
    46  H   -0.036164
    47  H    0.048687
    48  H    0.058897
    49  H    0.046263
    50  H    0.006896
    51  H    0.047611
    52  H    0.199983
    53  H   -0.009436
    54  H    0.043324
    55  H    0.036853
    56  H    0.111644
    57  H    0.059469
    58  H    0.069684
    59  H    0.060285
    60  H    0.022760
    61  H    0.034877
    62  H    0.047468
    63  H    0.031274
    64  H   -0.025697
    65  H    0.037562
    66  H    0.050048
    67  H    0.044749
    68  H    0.012266
    69  H    0.104786
    70  H    0.022289
    71  H    0.050997
    72  H    0.004565
    73  H    0.024015
    74  H    0.019190
    75  H    0.036076
    76  H    0.029927
    77  H    0.019980
    78  H    0.005047
    79  H    0.046681
    80  H    0.111207
    81  H    0.205623
 Sum of Mulliken charges =  -0.00000

 Dipole moment (field-independent basis, Debye):
    X=             -1.1318    Y=              0.4920    Z=             -0.7257  Tot=              1.4317
 Quadrupole moment (field-independent basis, Debye-Ang):
   XX=           -249.2729   YY=           -244.0302   ZZ=           -255.9811
   XY=             15.2131   XZ=             13.1051   YZ=            -21.5601

 Normal termination of Gaussian 16 at Sun Jun 30 22:37:00 2019.
