 Gaussian 16, Revision A.03,
 Gaussian 16:  ES64L-G16RevA.03 25-Dec-2016

 --------------------------
 # td=(NStates=1) B3LYP/SVP
 --------------------------

 --
 TD
 --
 Symbolic Z-matrix:
 Charge =  0 Multiplicity = 1

                         Standard orientation:
 ---------------------------------------------------------------------
 Center     Atomic      Atomic             Coordinates (Angstroms)
 Number     Number       Type             X           Y           Z
 ---------------------------------------------------------------------
      1          8           0        4.229113   -4.841163   -1.985444
      2          8           0       -3.005366   -4.760243   -1.115526
      3          8           0       -7.042861   -1.445377   -1.953337
      4          8           0       -3.850975   -3.086021    0.097141
      5          8           0       -7.432212   -0.601484    0.084654
      6          8           0        2.952972    2.436874    0.420636
      7          7           0        0.253483   -0.528352    0.621733
      8          7           0       -1.487687    1.818172    0.254981
      9          7           0        3.339983   -3.206399   -0.592955
     10          7           0        0.810034    2.977339    0.182625
     11          6           0       -0.662144   -2.412742    1.457212
     12          6           0       -0.950331   -1.050285    0.938485
     13          6           0        0.684017   -2.687125    1.292850
     14          6           0        1.315999   -1.447884    0.793396
     15          6           0       -3.748190    1.462040    0.321735
     16          6           0       -2.511647    0.832173    0.508360
     17          6           0       -2.240008   -0.408684    0.926860
     18          6           0       -3.522503    2.820184   -0.060255
     19          6           0       -1.587190   -3.415499    2.060193
     20          6           0        5.464793   -2.819717   -1.331336
     21          6           0        3.587126   -1.898430   -0.263548
     22          6           0       -2.116129    3.055443   -0.015079
     23          6           0        5.005371   -1.580901   -0.456037
     24          6           0       -5.096569    0.759213    0.318334
     25          6           0        2.618510   -1.030691    0.316889
     26          6           0        1.528288   -3.893490    1.818979
     27          6           0        4.265315   -3.787401   -1.452853
     28          6           0       -2.206831   -4.575851    1.129280
     29          6           0       -5.374834    0.003957   -0.936009
     30          6           0       -4.605144    3.822141   -0.416675
     31          6           0       -1.302271    4.149878   -0.239795
     32          6           0        6.808023   -3.474938   -0.870489
     33          6           0        5.848515   -0.602691   -0.106575
     34          6           0        0.173130    4.154212   -0.217023
     35          6           0        1.098247    5.207179   -0.460240
     36          6           0        2.374147    4.705746   -0.259710
     37          6           0       -3.069786   -3.949878   -0.011116
     38          6           0        5.512985    0.546275    0.666139
     39          6           0       -6.759557   -0.682037   -0.854608
     40          6           0        3.724351    5.331762   -0.337042
     41          6           0        2.141584    3.277722    0.175683
     42          6           0        0.690871    6.559355   -0.812025
     43          6           0        4.389211    5.434428    1.109743
     44          1           0        0.406643    0.329880    0.045788
     45          1           0       -3.080957   -1.133527    0.892492
     46          1           0       -2.475106   -2.992145    2.544738
     47          1           0       -1.325162   -3.631284    2.894314
     48          1           0        5.793164   -2.297942   -2.384670
     49          1           0       -4.981639    0.154964    1.187020
     50          1           0       -5.893847    1.435176    0.407376
     51          1           0        3.126617   -0.024772    0.448105
     52          1           0       -0.547703    1.939843    0.475759
     53          1           0        1.742821   -4.708495    0.893566
     54          1           0        2.715948   -3.466733    2.028934
     55          1           0        0.973056   -4.637121    2.494304
     56          1           0        2.448504   -3.579114   -0.631735
     57          1           0       -1.364436   -5.068950    0.625324
     58          1           0       -2.884139   -5.230127    1.709499
     59          1           0       -4.617535   -0.848471   -1.273145
     60          1           0       -5.181264    0.578826   -1.822915
     61          1           0       -4.414840    4.787355    0.229601
     62          1           0       -5.675075    3.384303   -0.320394
     63          1           0       -4.621914    3.934530   -1.531960
     64          1           0       -1.868156    4.959046   -0.543558
     65          1           0        7.772885   -3.024267   -1.052423
     66          1           0        6.707531   -4.478499   -1.556895
     67          1           0        6.661648   -3.627207    0.190243
     68          1           0        6.903693   -0.724963   -0.381964
     69          1           0        4.798612    1.195480    0.058222
     70          1           0        6.409884    1.175282    0.845016
     71          1           0        4.833656    0.225437    1.593668
     72          1           0        3.541256    6.274086   -0.619904
     73          1           0        4.472924    4.661156   -1.112494
     74          1           0        0.074896    6.406956   -1.823193
     75          1           0        1.562884    7.357635   -1.139153
     76          1           0        0.103587    6.982335   -0.179931
     77          1           0        3.901511    6.377685    1.687313
     78          1           0        5.600517    5.572470    1.009840
     79          1           0        3.954194    4.476674    1.625494
     80          1           0       -3.658592   -4.441960   -1.781891
     81          1           0       -7.996229   -1.760323   -1.782397
 ---------------------------------------------------------------------

 SCF Done:  E(RB3LYP) =  -1949.06803810     A.U. after   17 cycles

 Excitation energies and oscillator strengths:

 Excited State   1:      Singlet-A      1.6676 eV  743.48 nm  f=0.2968  <S**2>=0.000
     156 ->157         0.70951
     156 <-157        -0.12629
 This state for optimization and/or second-order correction.
 Total Energy, E(TD-HF/TD-DFT) =  -1949.00675421
 Copying the excited state density for this state as the 1-particle RhoCI density.

 The electronic state is 1-A.
 Alpha  occ. eigenvalues --  -19.18840 -19.18389 -19.14835 -19.13447 -19.12261
 Alpha  occ. eigenvalues --  -19.09721 -14.38105 -14.36863 -14.33973 -14.27865
 Alpha  occ. eigenvalues --  -10.33269 -10.31945 -10.29622 -10.25275 -10.24573
 Alpha  occ. eigenvalues --  -10.24290 -10.23590 -10.23438 -10.23397 -10.23288
 Alpha  occ. eigenvalues --  -10.22666 -10.22389 -10.21457 -10.20942 -10.20839
 Alpha  occ. eigenvalues --  -10.20792 -10.20655 -10.20600 -10.20472 -10.20353
 Alpha  occ. eigenvalues --  -10.20320 -10.19923 -10.19893 -10.19687 -10.19545
 Alpha  occ. eigenvalues --  -10.19406 -10.19344 -10.19265 -10.19151 -10.19051
 Alpha  occ. eigenvalues --  -10.19042 -10.18633 -10.18171  -1.11383  -1.10752
 Alpha  occ. eigenvalues --   -1.05827  -1.02787  -1.02576  -1.02090  -0.97664
 Alpha  occ. eigenvalues --   -0.96733  -0.95529  -0.90961  -0.82581  -0.81954
 Alpha  occ. eigenvalues --   -0.81439  -0.80701  -0.79648  -0.78058  -0.77259
 Alpha  occ. eigenvalues --   -0.76606  -0.76117  -0.75417  -0.74214  -0.71960
 Alpha  occ. eigenvalues --   -0.70567  -0.69653  -0.68631  -0.68107  -0.67463
 Alpha  occ. eigenvalues --   -0.67067  -0.65084  -0.64329  -0.62349  -0.60828
 Alpha  occ. eigenvalues --   -0.60304  -0.58864  -0.58792  -0.57796  -0.56712
 Alpha  occ. eigenvalues --   -0.56036  -0.55230  -0.55199  -0.53918  -0.53371
 Alpha  occ. eigenvalues --   -0.51911  -0.50993  -0.50647  -0.50365  -0.49666
 Alpha  occ. eigenvalues --   -0.49362  -0.49146  -0.48738  -0.48525  -0.47702
 Alpha  occ. eigenvalues --   -0.47012  -0.46680  -0.46300  -0.45672  -0.45122
 Alpha  occ. eigenvalues --   -0.44821  -0.44354  -0.44263  -0.43941  -0.43739
 Alpha  occ. eigenvalues --   -0.43470  -0.43234  -0.42968  -0.42204  -0.42060
 Alpha  occ. eigenvalues --   -0.41994  -0.41800  -0.41293  -0.41096  -0.40837
 Alpha  occ. eigenvalues --   -0.40613  -0.40363  -0.40199  -0.39693  -0.39456
 Alpha  occ. eigenvalues --   -0.39299  -0.39216  -0.38759  -0.38559  -0.37964
 Alpha  occ. eigenvalues --   -0.37808  -0.37382  -0.36921  -0.36883  -0.36535
 Alpha  occ. eigenvalues --   -0.35884  -0.35775  -0.35210  -0.34718  -0.34428
 Alpha  occ. eigenvalues --   -0.34141  -0.33941  -0.33637  -0.33354  -0.33314
 Alpha  occ. eigenvalues --   -0.33263  -0.32694  -0.31404  -0.29871  -0.29797
 Alpha  occ. eigenvalues --   -0.29134  -0.27426  -0.27188  -0.26107  -0.25689
 Alpha  occ. eigenvalues --   -0.24898  -0.24485  -0.23831  -0.22695  -0.21222
 Alpha  occ. eigenvalues --   -0.17417
 Alpha virt. eigenvalues --   -0.10731  -0.06342  -0.04079  -0.01093  -0.00375
 Alpha virt. eigenvalues --    0.01092   0.02000   0.03133   0.03188   0.03689
 Alpha virt. eigenvalues --    0.04109   0.04377   0.04773   0.05074   0.06030

 Mulliken charges:
               1
     1  O   -0.161114
     2  O   -0.207115
     3  O   -0.226283
     4  O   -0.174199
     5  O   -0.168776
     6  O   -0.174597
     7  N   -0.076636
     8  N   -0.135610
     9  N   -0.077138
    10  N   -0.301647
    11  C   -0.116657
    12  C    0.026800
    13  C   -0.105689
    14  C    0.076026
    15  C   -0.112143
    16  C    0.145301
    17  C   -0.082063
    18  C   -0.113641
    19  C    0.206698
    20  C   -0.194654
    21  C   -0.008481
    22  C    0.057791
    23  C    0.044751
    24  C    0.213729
    25  C   -0.084149
    26  C   -0.034203
    27  C    0.163777
    28  C    0.030519
    29  C   -0.057470
    30  C    0.051123
    31  C   -0.062681
    32  C    0.014076
    33  C   -0.151715
    34  C    0.093226
    35  C   -0.064189
    36  C   -0.226342
    37  C    0.114012
    38  C    0.028929
    39  C    0.146269
    40  C    0.127132
    41  C    0.119231
    42  C    0.100394
    43  C   -0.104229
    44  H    0.159707
    45  H    0.037044
    46  H   -0.021918
    47  H   -0.106137
    48  H    0.056430
    49  H    0.012262
    50  H   -0.013854
    51  H    0.030507
    52  H    0.093205
    53  H    0.023004
    54  H    0.083906
    55  H    0.040816
    56  H    0.109821
    57  H    0.030331
    58  H    0.054334
    59  H    0.046495
    60  H    0.011868
    61  H    0.059662
    62  H    0.017645
    63  H    0.029302
    64  H   -0.077081
    65  H    0.026626
    66  H    0.047810
    67  H    0.015811
    68  H   -0.013840
    69  H    0.079396
    70  H    0.010450
    71  H    0.057113
    72  H   -0.049214
    73  H    0.047712
    74  H    0.030641
    75  H    0.038870
    76  H   -0.020022
    77  H    0.026274
    78  H    0.047119
    79  H    0.057941
    80  H    0.187256
    81  H    0.194348
 Sum of Mulliken charges =  -0.00000

 Dipole moment (field-independent basis, Debye):
    X=             -3.3168    Y=              0.8454    Z=             -1.0933  Tot=              3.5932
 Quadrupole moment (field-independent basis, Debye-Ang):
   XX=           -240.6433   YY=           -242.2218   ZZ=           -256.2182
   XY=             16.2111   XZ=             13.3052   YZ=            -15.0685

 Normal termination of Gaussian 16 at Sun Jun 30 12:03:19 2019.
