 Gaussian 16, Revision A.03,
 Gaussian 16:  ES64L-G16RevA.03 25-Dec-2016

 --------------------------
 # td=(NStates=1) B3LYP/SVP
 --------------------------

 --
 TD
 --
 Symbolic Z-matrix:
 Charge =  0 Multiplicity = 1

                         Standard orientation:
 ---------------------------------------------------------------------
 Center     Atomic      Atomic             Coordinates (Angstroms)
 Number     Number       Type             X           Y           Z
 ---------------------------------------------------------------------
      1          8           0        4.338900   -4.731030   -1.919930
      2          8           0       -2.796149   -4.848252   -1.202722
      3          8           0       -6.911352   -1.745006   -1.732303
      4          8           0       -3.565491   -3.108457    0.008875
      5          8           0       -7.592909   -0.762592    0.097670
      6          8           0        2.944976    2.466168    0.370004
      7          7           0        0.347547   -0.530412    0.618239
      8          7           0       -1.619603    1.794098    0.335044
      9          7           0        3.347255   -3.032930   -0.657822
     10          7           0        0.697440    2.916097   -0.067892
     11          6           0       -0.682990   -2.481735    1.389927
     12          6           0       -0.853833   -1.041635    0.970630
     13          6           0        0.754170   -2.609568    1.286763
     14          6           0        1.354557   -1.450897    0.723005
     15          6           0       -3.760155    1.418861    0.293549
     16          6           0       -2.435928    0.815458    0.477155
     17          6           0       -2.157429   -0.406228    0.875561
     18          6           0       -3.586912    2.848810   -0.097617
     19          6           0       -1.623741   -3.447166    1.948901
     20          6           0        5.598117   -2.759256   -1.366000
     21          6           0        3.603319   -1.739169   -0.191282
     22          6           0       -2.172834    3.048944   -0.046502
     23          6           0        5.063285   -1.594881   -0.458745
     24          6           0       -5.159633    0.763923    0.371065
     25          6           0        2.666571   -0.927009    0.426161
     26          6           0        1.476162   -3.843830    1.787420
     27          6           0        4.455649   -3.678484   -1.303970
     28          6           0       -2.055451   -4.516575    0.987527
     29          6           0       -5.503052   -0.120162   -0.870239
     30          6           0       -4.596549    3.882093   -0.422852
     31          6           0       -1.402130    4.118629   -0.334542
     32          6           0        6.875307   -3.346727   -0.870129
     33          6           0        5.870322   -0.431896   -0.058947
     34          6           0        0.048309    4.012284   -0.335868
     35          6           0        0.956936    5.126840   -0.586463
     36          6           0        2.210556    4.632851   -0.247196
     37          6           0       -2.903442   -4.098065   -0.134626
     38          6           0        5.468571    0.644537    0.848412
     39          6           0       -6.794184   -0.878251   -0.694809
     40          6           0        3.586614    5.305728   -0.251393
     41          6           0        2.041125    3.217995    0.147607
     42          6           0        0.538109    6.613511   -0.870282
     43          6           0        4.222327    5.571366    1.098849
     44          1           0        0.617700    0.431285    0.291142
     45          1           0       -3.043284   -0.972877    1.164278
     46          1           0       -2.548179   -2.957216    2.430650
     47          1           0       -1.049016   -3.896983    2.646661
     48          1           0        5.594727   -2.292906   -2.305219
     49          1           0       -5.278188   -0.023497    1.393267
     50          1           0       -5.976488    1.643893    0.292773
     51          1           0        2.718194    0.025205    0.859806
     52          1           0       -0.563865    1.852807    0.462871
     53          1           0        1.439794   -4.816270    1.022078
     54          1           0        2.519801   -3.843263    1.937550
     55          1           0        1.205919   -4.145172    2.903392
     56          1           0        2.276145   -3.414394   -0.773514
     57          1           0       -1.124793   -4.911508    0.590782
     58          1           0       -2.382170   -5.351798    1.540377
     59          1           0       -4.728627   -0.900286   -0.853357
     60          1           0       -5.681959    0.424524   -1.981666
     61          1           0       -4.348123    4.895668    0.002963
     62          1           0       -5.659154    3.411928    0.241572
     63          1           0       -5.093892    3.996150   -1.567894
     64          1           0       -1.565843    5.219170   -0.615820
     65          1           0        7.762368   -2.630012   -0.923621
     66          1           0        7.044796   -4.288432   -1.536469
     67          1           0        6.736645   -3.623397    0.255090
     68          1           0        6.843704   -0.436727   -0.501325
     69          1           0        5.067093    1.457912    0.234042
     70          1           0        6.221355    1.474763    1.241700
     71          1           0        4.891925    0.369642    1.736417
     72          1           0        3.615295    6.125223   -0.897164
     73          1           0        4.074835    4.405318   -0.781416
     74          1           0       -0.204180    6.619032   -1.851396
     75          1           0        1.575553    7.195768   -1.024068
     76          1           0       -0.142884    7.187522   -0.144054
     77          1           0        3.408126    6.189225    1.731756
     78          1           0        5.053221    5.832055    1.072966
     79          1           0        4.355179    4.709648    1.639259
     80          1           0       -3.364753   -4.676437   -1.907718
     81          1           0       -7.629693   -2.381977   -1.538859
 ---------------------------------------------------------------------

 SCF Done:  E(RB3LYP) =  -1949.00292207     A.U. after   17 cycles

 Excitation energies and oscillator strengths:

 Excited State   1:      Singlet-A      1.6849 eV  735.87 nm  f=0.3072  <S**2>=0.000
     156 ->157         0.70832
     156 <-157        -0.12964
 This state for optimization and/or second-order correction.
 Total Energy, E(TD-HF/TD-DFT) =  -1948.94100463
 Copying the excited state density for this state as the 1-particle RhoCI density.

 The electronic state is 1-A.
 Alpha  occ. eigenvalues --  -19.19946 -19.16280 -19.13300 -19.12423 -19.11402
 Alpha  occ. eigenvalues --  -19.11028 -14.37930 -14.37515 -14.34525 -14.28417
 Alpha  occ. eigenvalues --  -10.32923 -10.30388 -10.29553 -10.26374 -10.24696
 Alpha  occ. eigenvalues --  -10.23639 -10.23554 -10.22898 -10.22827 -10.22720
 Alpha  occ. eigenvalues --  -10.22428 -10.22404 -10.22006 -10.21351 -10.21176
 Alpha  occ. eigenvalues --  -10.21111 -10.20863 -10.20763 -10.20701 -10.20631
 Alpha  occ. eigenvalues --  -10.20519 -10.20312 -10.20120 -10.19983 -10.19943
 Alpha  occ. eigenvalues --  -10.19839 -10.19813 -10.19073 -10.18867 -10.18849
 Alpha  occ. eigenvalues --  -10.18642 -10.18488 -10.16092  -1.12619  -1.11149
 Alpha  occ. eigenvalues --   -1.03316  -1.03253  -1.02992  -1.01692  -0.98775
 Alpha  occ. eigenvalues --   -0.97811  -0.93874  -0.93089  -0.83077  -0.81815
 Alpha  occ. eigenvalues --   -0.81113  -0.79841  -0.79164  -0.78626  -0.77796
 Alpha  occ. eigenvalues --   -0.76567  -0.75844  -0.75215  -0.74455  -0.72243
 Alpha  occ. eigenvalues --   -0.70683  -0.69405  -0.68884  -0.68571  -0.67284
 Alpha  occ. eigenvalues --   -0.66175  -0.65334  -0.64480  -0.63889  -0.63098
 Alpha  occ. eigenvalues --   -0.61321  -0.59261  -0.58360  -0.57587  -0.56660
 Alpha  occ. eigenvalues --   -0.55734  -0.55210  -0.54027  -0.53160  -0.52980
 Alpha  occ. eigenvalues --   -0.52418  -0.52050  -0.51277  -0.50079  -0.49642
 Alpha  occ. eigenvalues --   -0.49377  -0.48879  -0.48432  -0.48277  -0.47211
 Alpha  occ. eigenvalues --   -0.47018  -0.46752  -0.46452  -0.45581  -0.45292
 Alpha  occ. eigenvalues --   -0.44900  -0.44658  -0.44248  -0.43907  -0.43597
 Alpha  occ. eigenvalues --   -0.43417  -0.43056  -0.42873  -0.42498  -0.42253
 Alpha  occ. eigenvalues --   -0.41974  -0.41514  -0.41279  -0.40928  -0.40457
 Alpha  occ. eigenvalues --   -0.40191  -0.40053  -0.39851  -0.39587  -0.39092
 Alpha  occ. eigenvalues --   -0.38902  -0.38621  -0.38379  -0.38251  -0.38210
 Alpha  occ. eigenvalues --   -0.37823  -0.37591  -0.37213  -0.37007  -0.36846
 Alpha  occ. eigenvalues --   -0.36089  -0.35616  -0.35331  -0.35055  -0.34291
 Alpha  occ. eigenvalues --   -0.34191  -0.34014  -0.33540  -0.33264  -0.32701
 Alpha  occ. eigenvalues --   -0.32267  -0.32235  -0.32026  -0.29946  -0.28998
 Alpha  occ. eigenvalues --   -0.27984  -0.27905  -0.26569  -0.25940  -0.24730
 Alpha  occ. eigenvalues --   -0.24480  -0.24235  -0.23392  -0.22626  -0.21146
 Alpha  occ. eigenvalues --   -0.17183
 Alpha virt. eigenvalues --   -0.10502  -0.05990  -0.04708  -0.01221  -0.00245
 Alpha virt. eigenvalues --    0.02038   0.02403   0.02506   0.03224   0.03589
 Alpha virt. eigenvalues --    0.04074   0.04120   0.04797   0.05505   0.05861

 Mulliken charges:
               1
     1  O   -0.216193
     2  O   -0.115523
     3  O   -0.218953
     4  O   -0.214020
     5  O   -0.133893
     6  O   -0.186463
     7  N   -0.065355
     8  N   -0.077141
     9  N   -0.223764
    10  N   -0.296447
    11  C   -0.142028
    12  C    0.035730
    13  C   -0.131093
    14  C    0.040351
    15  C   -0.075497
    16  C    0.101997
    17  C   -0.057072
    18  C   -0.055420
    19  C    0.215689
    20  C    0.038503
    21  C    0.191664
    22  C    0.204634
    23  C   -0.166092
    24  C   -0.027636
    25  C   -0.121312
    26  C   -0.008462
    27  C    0.133717
    28  C    0.025519
    29  C   -0.047937
    30  C   -0.072833
    31  C   -0.123475
    32  C    0.004216
    33  C   -0.062215
    34  C   -0.030033
    35  C   -0.070155
    36  C   -0.203331
    37  C    0.125314
    38  C    0.054938
    39  C    0.085918
    40  C    0.052868
    41  C    0.148956
    42  C   -0.028355
    43  C    0.193095
    44  H    0.155760
    45  H   -0.009417
    46  H    0.024507
    47  H   -0.049683
    48  H    0.036963
    49  H    0.060363
    50  H    0.032873
    51  H    0.005368
    52  H    0.142905
    53  H    0.035267
    54  H   -0.000621
    55  H    0.037809
    56  H    0.185915
    57  H    0.004865
    58  H    0.017441
    59  H    0.046281
    60  H    0.070655
    61  H    0.046198
    62  H    0.039770
    63  H    0.065170
    64  H   -0.016224
    65  H    0.034664
    66  H    0.051059
    67  H    0.033893
    68  H   -0.019871
    69  H    0.051631
    70  H    0.005025
    71  H    0.047261
    72  H   -0.020563
    73  H    0.021864
    74  H    0.039499
    75  H    0.048674
    76  H    0.052751
    77  H    0.022969
    78  H   -0.101180
    79  H   -0.020716
    80  H    0.166085
    81  H    0.172382
 Sum of Mulliken charges =  -0.00000

 Dipole moment (field-independent basis, Debye):
    X=             -0.8391    Y=             -0.1148    Z=             -0.2626  Tot=              0.8867
 Quadrupole moment (field-independent basis, Debye-Ang):
   XX=           -250.8413   YY=           -237.0296   ZZ=           -254.4319
   XY=             22.2634   XZ=             13.6466   YZ=             -9.1668

 Normal termination of Gaussian 16 at Sun Jun 30 03:48:40 2019.
