 Gaussian 16, Revision A.03,
 Gaussian 16:  ES64L-G16RevA.03 25-Dec-2016

 --------------------------
 # td=(NStates=1) B3LYP/SVP
 --------------------------

 --
 TD
 --
 Symbolic Z-matrix:
 Charge =  0 Multiplicity = 1

                         Standard orientation:
 ---------------------------------------------------------------------
 Center     Atomic      Atomic             Coordinates (Angstroms)
 Number     Number       Type             X           Y           Z
 ---------------------------------------------------------------------
      1          8           0       -4.469081   -4.737895    1.952048
      2          8           0        3.149552   -4.953075    0.961223
      3          8           0        6.842326   -1.668865    2.142399
      4          8           0        3.625154   -3.043299   -0.358249
      5          8           0        7.568325   -0.608166    0.191126
      6          8           0       -3.016785    2.419576   -0.256699
      7          7           0       -0.297234   -0.508047   -0.589819
      8          7           0        1.538866    1.800422   -0.468997
      9          7           0       -3.387485   -3.019590    0.781452
     10          7           0       -0.713278    2.930894   -0.069861
     11          6           0        0.578890   -2.441953   -1.464883
     12          6           0        0.847007   -1.024344   -1.130663
     13          6           0       -0.753798   -2.602866   -1.172425
     14          6           0       -1.327044   -1.388949   -0.746888
     15          6           0        3.782669    1.413373   -0.408797
     16          6           0        2.483868    0.816643   -0.597879
     17          6           0        2.227571   -0.518060   -0.989292
     18          6           0        3.586060    2.677680    0.003942
     19          6           0        1.522198   -3.444022   -1.999305
     20          6           0       -5.577140   -2.686326    1.329106
     21          6           0       -3.649733   -1.808282    0.230348
     22          6           0        2.138809    2.953857   -0.079171
     23          6           0       -5.009843   -1.533542    0.548152
     24          6           0        5.102257    0.628973   -0.361933
     25          6           0       -2.605016   -1.103134   -0.355226
     26          6           0       -1.640701   -3.794504   -1.671607
     27          6           0       -4.409925   -3.706658    1.347539
     28          6           0        1.905322   -4.627274   -1.035293
     29          6           0        5.289014   -0.130018    0.889147
     30          6           0        4.606368    3.741415    0.286254
     31          6           0        1.375303    4.073714    0.252700
     32          6           0       -6.864301   -3.270287    0.702032
     33          6           0       -5.818245   -0.425511    0.162844
     34          6           0       -0.038807    3.993566    0.181184
     35          6           0       -0.939686    5.151872    0.420340
     36          6           0       -2.176969    4.792201    0.241483
     37          6           0        2.950857   -4.093050   -0.128769
     38          6           0       -5.375402    0.637012   -0.711463
     39          6           0        6.666689   -0.835137    0.993758
     40          6           0       -3.426788    5.398932    0.290322
     41          6           0       -2.107553    3.204073   -0.066256
     42          6           0       -0.414273    6.556539    0.763292
     43          6           0       -4.062725    5.685313   -0.923319
     44          1           0       -0.475082    0.347153   -0.120523
     45          1           0        3.098277   -1.269685   -1.195183
     46          1           0        2.323737   -3.061529   -2.296584
     47          1           0        1.210021   -4.051971   -2.947815
     48          1           0       -5.666937   -2.436065    2.562900
     49          1           0        5.241200   -0.213589   -1.292047
     50          1           0        6.065274    1.174021   -0.576558
     51          1           0       -2.883610    0.003694   -0.460999
     52          1           0        0.460971    1.681094   -0.309581
     53          1           0       -1.631504   -4.535529   -0.572107
     54          1           0       -2.652783   -3.605955   -1.913534
     55          1           0       -1.138813   -4.308232   -2.534810
     56          1           0       -2.511129   -3.321609    0.593151
     57          1           0        1.149690   -4.808250   -0.101654
     58          1           0        2.320627   -5.665502   -1.401396
     59          1           0        4.509108   -0.817200    0.859192
     60          1           0        5.072675    0.442624    1.908407
     61          1           0        4.776346    4.706569   -0.036182
     62          1           0        5.606650    3.520546    0.203848
     63          1           0        4.618401    3.931407    1.437374
     64          1           0        1.919660    5.046586    0.553666
     65          1           0       -7.637809   -2.572173    0.811012
     66          1           0       -7.045391   -4.099668    1.275881
     67          1           0       -6.739404   -3.433707   -0.469806
     68          1           0       -6.836267   -0.667748    0.567727
     69          1           0       -4.983350    1.562069   -0.143871
     70          1           0       -6.338843    1.096999   -1.252551
     71          1           0       -4.759366    0.377414   -1.509426
     72          1           0       -3.210786    6.381358    0.964568
     73          1           0       -4.080048    4.909553    0.857349
     74          1           0       -0.321338    6.838420    2.040505
     75          1           0       -1.419797    7.198059    0.388565
     76          1           0        0.639055    6.953090    0.220531
     77          1           0       -3.621633    6.469601   -1.330461
     78          1           0       -5.016937    6.233429   -0.712279
     79          1           0       -4.164302    4.816845   -1.572458
     80          1           0        3.669299   -4.402366    1.740318
     81          1           0        7.682526   -1.859178    2.344986
 ---------------------------------------------------------------------

 SCF Done:  E(RB3LYP) =  -1948.99046863     A.U. after   16 cycles

 Excitation energies and oscillator strengths:

 Excited State   1:      Singlet-A      1.7446 eV  710.66 nm  f=0.3626  <S**2>=0.000
     156 ->157         0.71000
     156 <-157        -0.11934
 This state for optimization and/or second-order correction.
 Total Energy, E(TD-HF/TD-DFT) =  -1948.92635466
 Copying the excited state density for this state as the 1-particle RhoCI density.

 The electronic state is 1-A.
 Alpha  occ. eigenvalues --  -19.20216 -19.17153 -19.14863 -19.13852 -19.12318
 Alpha  occ. eigenvalues --  -19.10905 -14.38375 -14.36588 -14.35751 -14.29433
 Alpha  occ. eigenvalues --  -10.34189 -10.33443 -10.28775 -10.28016 -10.24088
 Alpha  occ. eigenvalues --  -10.23939 -10.23785 -10.23770 -10.23496 -10.22893
 Alpha  occ. eigenvalues --  -10.22863 -10.22597 -10.21966 -10.21728 -10.21353
 Alpha  occ. eigenvalues --  -10.20991 -10.20967 -10.20645 -10.20618 -10.20472
 Alpha  occ. eigenvalues --  -10.20394 -10.20229 -10.19601 -10.19406 -10.19322
 Alpha  occ. eigenvalues --  -10.18978 -10.18802 -10.18685 -10.18658 -10.18377
 Alpha  occ. eigenvalues --  -10.18209 -10.17450 -10.16369  -1.07905  -1.07478
 Alpha  occ. eigenvalues --   -1.04401  -1.02866  -1.00884  -0.99858  -0.99600
 Alpha  occ. eigenvalues --   -0.98127  -0.97855  -0.93274  -0.83064  -0.82903
 Alpha  occ. eigenvalues --   -0.82111  -0.81625  -0.80856  -0.78973  -0.78254
 Alpha  occ. eigenvalues --   -0.77658  -0.76372  -0.75987  -0.74316  -0.72459
 Alpha  occ. eigenvalues --   -0.71520  -0.70495  -0.69493  -0.69007  -0.67990
 Alpha  occ. eigenvalues --   -0.67240  -0.65150  -0.64158  -0.63128  -0.61940
 Alpha  occ. eigenvalues --   -0.60524  -0.60095  -0.58928  -0.58420  -0.57845
 Alpha  occ. eigenvalues --   -0.56822  -0.55691  -0.55143  -0.54038  -0.53310
 Alpha  occ. eigenvalues --   -0.52498  -0.52056  -0.51128  -0.50907  -0.50429
 Alpha  occ. eigenvalues --   -0.49395  -0.49100  -0.48268  -0.47825  -0.47421
 Alpha  occ. eigenvalues --   -0.47199  -0.46896  -0.46261  -0.46005  -0.45055
 Alpha  occ. eigenvalues --   -0.44944  -0.44791  -0.44288  -0.43908  -0.43602
 Alpha  occ. eigenvalues --   -0.43538  -0.43399  -0.42881  -0.42568  -0.42128
 Alpha  occ. eigenvalues --   -0.41715  -0.41550  -0.41460  -0.40922  -0.40788
 Alpha  occ. eigenvalues --   -0.40537  -0.40204  -0.40159  -0.39688  -0.39351
 Alpha  occ. eigenvalues --   -0.39202  -0.38889  -0.38529  -0.38343  -0.38192
 Alpha  occ. eigenvalues --   -0.38056  -0.37920  -0.37380  -0.36998  -0.36862
 Alpha  occ. eigenvalues --   -0.36189  -0.36022  -0.35780  -0.35306  -0.35049
 Alpha  occ. eigenvalues --   -0.34306  -0.34198  -0.33731  -0.33369  -0.33155
 Alpha  occ. eigenvalues --   -0.32817  -0.32759  -0.31975  -0.29813  -0.29446
 Alpha  occ. eigenvalues --   -0.28789  -0.28140  -0.26682  -0.25998  -0.25761
 Alpha  occ. eigenvalues --   -0.25572  -0.24888  -0.24224  -0.24159  -0.21403
 Alpha  occ. eigenvalues --   -0.17060
 Alpha virt. eigenvalues --   -0.10078  -0.05988  -0.04267  -0.03247  -0.01547
 Alpha virt. eigenvalues --   -0.00090   0.00643   0.01808   0.02375   0.03083
 Alpha virt. eigenvalues --    0.04292   0.04962   0.05199   0.05892   0.06083

 Mulliken charges:
               1
     1  O   -0.192245
     2  O   -0.279031
     3  O   -0.207429
     4  O   -0.273270
     5  O   -0.223454
     6  O   -0.194861
     7  N   -0.035582
     8  N   -0.103555
     9  N   -0.009679
    10  N   -0.284437
    11  C   -0.122441
    12  C    0.067032
    13  C   -0.174244
    14  C    0.096545
    15  C   -0.022215
    16  C    0.042262
    17  C   -0.096935
    18  C   -0.065290
    19  C    0.242208
    20  C   -0.169361
    21  C    0.030339
    22  C    0.090755
    23  C   -0.078534
    24  C   -0.019008
    25  C   -0.142393
    26  C    0.014376
    27  C    0.131507
    28  C   -0.089848
    29  C    0.031385
    30  C    0.120461
    31  C   -0.164087
    32  C    0.105930
    33  C   -0.077294
    34  C    0.094861
    35  C   -0.048140
    36  C   -0.177814
    37  C    0.190319
    38  C    0.066590
    39  C    0.191046
    40  C    0.075522
    41  C    0.176963
    42  C   -0.095526
    43  C    0.130990
    44  H    0.114683
    45  H    0.080873
    46  H   -0.079603
    47  H    0.014629
    48  H    0.069633
    49  H    0.039877
    50  H    0.028005
    51  H    0.037624
    52  H    0.174351
    53  H    0.033435
    54  H    0.033594
    55  H    0.033941
    56  H    0.064746
    57  H    0.076814
    58  H    0.084752
    59  H    0.003288
    60  H    0.050086
    61  H   -0.002998
    62  H   -0.037732
    63  H    0.002909
    64  H    0.000833
    65  H   -0.001523
    66  H    0.009010
    67  H    0.034247
    68  H   -0.006624
    69  H    0.084460
    70  H    0.005575
    71  H    0.022305
    72  H   -0.009585
    73  H   -0.036611
    74  H    0.056782
    75  H    0.045794
    76  H    0.066134
    77  H   -0.052219
    78  H   -0.009348
    79  H    0.029688
    80  H    0.245580
    81  H    0.140175
 Sum of Mulliken charges =  -0.00000

 Dipole moment (field-independent basis, Debye):
    X=              1.7939    Y=              0.8145    Z=              0.7498  Tot=              2.1080
 Quadrupole moment (field-independent basis, Debye-Ang):
   XX=           -253.7288   YY=           -246.7936   ZZ=           -253.1807
   XY=            -15.1402   XZ=             19.8234   YZ=             13.3524

 Normal termination of Gaussian 16 at Thu Jun 27 04:25:37 2019.
