 Gaussian 16, Revision A.03,
 Gaussian 16:  ES64L-G16RevA.03 25-Dec-2016

 --------------------------
 # td=(NStates=1) B3LYP/SVP
 --------------------------

 --
 TD
 --
 Symbolic Z-matrix:
 Charge =  0 Multiplicity = 1

                         Standard orientation:
 ---------------------------------------------------------------------
 Center     Atomic      Atomic             Coordinates (Angstroms)
 Number     Number       Type             X           Y           Z
 ---------------------------------------------------------------------
      1          8           0        4.675394   -4.750569   -1.653885
      2          8           0       -2.693446   -4.953937   -1.060078
      3          8           0       -6.918978   -1.882752   -1.858897
      4          8           0       -3.622622   -3.252534    0.034164
      5          8           0       -7.507318   -1.207280    0.179966
      6          8           0        2.859740    2.553343    0.363624
      7          7           0        0.340334   -0.542212    0.504970
      8          7           0       -1.655288    1.807319    0.227206
      9          7           0        3.481937   -2.934812   -0.921810
     10          7           0        0.673066    2.916019   -0.042636
     11          6           0       -0.591122   -2.335176    1.361436
     12          6           0       -0.816437   -1.063437    1.004023
     13          6           0        0.854508   -2.603315    1.168055
     14          6           0        1.394305   -1.437002    0.548077
     15          6           0       -3.919646    1.308291    0.367632
     16          6           0       -2.527102    0.758135    0.461134
     17          6           0       -2.214017   -0.528328    0.910510
     18          6           0       -3.769335    2.699859   -0.045334
     19          6           0       -1.548083   -3.343479    2.062845
     20          6           0        5.861755   -2.614560   -1.275431
     21          6           0        3.733788   -1.758890   -0.299297
     22          6           0       -2.295170    3.008869   -0.149811
     23          6           0        5.212687   -1.404914   -0.431969
     24          6           0       -5.216751    0.665285    0.410825
     25          6           0        2.731665   -1.011888    0.262453
     26          6           0        1.623785   -3.699568    1.744134
     27          6           0        4.659136   -3.634408   -1.369812
     28          6           0       -1.796658   -4.560584    1.046082
     29          6           0       -5.357707   -0.327324   -0.873329
     30          6           0       -4.637528    3.814456   -0.457109
     31          6           0       -1.483189    4.033226   -0.373718
     32          6           0        7.115483   -3.143449   -0.764318
     33          6           0        5.848954   -0.343398    0.066912
     34          6           0       -0.112321    4.014407   -0.382081
     35          6           0        0.787691    5.248774   -0.490795
     36          6           0        2.031628    4.826642   -0.268859
     37          6           0       -2.852151   -4.119859   -0.041786
     38          6           0        5.448215    0.804896    0.815325
     39          6           0       -6.744437   -1.203050   -0.733402
     40          6           0        3.368060    5.609044   -0.282544
     41          6           0        1.948688    3.296616    0.020759
     42          6           0        0.280788    6.610719   -0.767241
     43          6           0        3.760239    5.685777    1.215135
     44          1           0        0.481722    0.453993   -0.106762
     45          1           0       -2.900728   -1.440429    1.168474
     46          1           0       -2.600621   -3.151203    2.522388
     47          1           0       -0.809386   -3.906685    2.858661
     48          1           0        5.806731   -2.227739   -2.299679
     49          1           0       -5.282029    0.074685    1.266250
     50          1           0       -6.190250    1.471547    0.268952
     51          1           0        2.872741    0.255500    0.541166
     52          1           0       -0.440998    1.744460    0.286972
     53          1           0        1.684281   -4.504644    0.993979
     54          1           0        2.551026   -3.571169    2.082829
     55          1           0        1.101822   -4.012632    2.671763
     56          1           0        2.582410   -3.276758   -1.102055
     57          1           0       -0.943747   -5.032938    0.558775
     58          1           0       -2.195678   -5.254754    1.641403
     59          1           0       -4.516439   -1.216880   -0.714474
     60          1           0       -5.428760    0.214660   -1.896839
     61          1           0       -4.530279    4.823317    0.113563
     62          1           0       -5.811208    3.500178   -0.252045
     63          1           0       -4.546443    4.124396   -1.507516
     64          1           0       -2.017796    5.038587   -0.698444
     65          1           0        7.919229   -2.576294   -0.752253
     66          1           0        7.202238   -3.998287   -1.250324
     67          1           0        7.058086   -3.441891    0.273156
     68          1           0        6.944989   -0.216649   -0.336258
     69          1           0        4.741921    1.455463    0.180386
     70          1           0        6.266842    1.234709    1.441686
     71          1           0        4.385961    0.372708    1.350413
     72          1           0        3.195043    6.580474   -0.808139
     73          1           0        4.218696    4.957296   -0.771741
     74          1           0       -0.248256    6.679444   -1.809427
     75          1           0        0.957094    7.518732   -0.791506
     76          1           0       -0.354122    6.875267    0.122562
     77          1           0        2.860437    6.298992    1.795994
     78          1           0        4.658583    6.184945    1.366017
     79          1           0        3.834006    4.889188    1.906868
     80          1           0       -3.567343   -4.746263   -1.579885
     81          1           0       -7.840591   -2.461864   -1.899166
 ---------------------------------------------------------------------

 SCF Done:  E(RB3LYP) =  -1949.02036927     A.U. after   16 cycles

 Excitation energies and oscillator strengths:

 Excited State   1:      Singlet-A      1.7393 eV  712.82 nm  f=0.2742  <S**2>=0.000
     156 ->157         0.70628
 This state for optimization and/or second-order correction.
 Total Energy, E(TD-HF/TD-DFT) =  -1948.95644981
 Copying the excited state density for this state as the 1-particle RhoCI density.

 The electronic state is 1-A.
 Alpha  occ. eigenvalues --  -19.20297 -19.18752 -19.15376 -19.12769 -19.12375
 Alpha  occ. eigenvalues --  -19.09812 -14.37106 -14.36139 -14.35200 -14.29854
 Alpha  occ. eigenvalues --  -10.33212 -10.31733 -10.29795 -10.26316 -10.23879
 Alpha  occ. eigenvalues --  -10.23855 -10.23833 -10.23676 -10.22860 -10.22720
 Alpha  occ. eigenvalues --  -10.22412 -10.22329 -10.21965 -10.21643 -10.21274
 Alpha  occ. eigenvalues --  -10.21221 -10.21070 -10.20815 -10.20567 -10.20541
 Alpha  occ. eigenvalues --  -10.20250 -10.19690 -10.19533 -10.19259 -10.19224
 Alpha  occ. eigenvalues --  -10.19158 -10.18909 -10.18853 -10.18679 -10.18278
 Alpha  occ. eigenvalues --  -10.17752 -10.17730 -10.16083  -1.13115  -1.09151
 Alpha  occ. eigenvalues --   -1.07653  -1.04397  -1.01223  -1.00392  -0.96897
 Alpha  occ. eigenvalues --   -0.95356  -0.94992  -0.91389  -0.81274  -0.81209
 Alpha  occ. eigenvalues --   -0.80440  -0.80091  -0.79451  -0.78556  -0.77174
 Alpha  occ. eigenvalues --   -0.76415  -0.75567  -0.74495  -0.73740  -0.71646
 Alpha  occ. eigenvalues --   -0.70052  -0.69776  -0.68404  -0.67625  -0.66306
 Alpha  occ. eigenvalues --   -0.65835  -0.65056  -0.63990  -0.61803  -0.61142
 Alpha  occ. eigenvalues --   -0.59614  -0.58708  -0.58536  -0.57510  -0.55456
 Alpha  occ. eigenvalues --   -0.54758  -0.54142  -0.53804  -0.52641  -0.52274
 Alpha  occ. eigenvalues --   -0.52078  -0.51445  -0.51155  -0.50344  -0.49270
 Alpha  occ. eigenvalues --   -0.49023  -0.48379  -0.47873  -0.47659  -0.47272
 Alpha  occ. eigenvalues --   -0.46858  -0.46574  -0.45982  -0.45374  -0.45037
 Alpha  occ. eigenvalues --   -0.44718  -0.44553  -0.44213  -0.43995  -0.43741
 Alpha  occ. eigenvalues --   -0.43267  -0.43196  -0.42894  -0.42279  -0.42086
 Alpha  occ. eigenvalues --   -0.41969  -0.41876  -0.41285  -0.40970  -0.40829
 Alpha  occ. eigenvalues --   -0.40576  -0.40290  -0.39643  -0.39464  -0.39230
 Alpha  occ. eigenvalues --   -0.39123  -0.38684  -0.38608  -0.38251  -0.38114
 Alpha  occ. eigenvalues --   -0.37890  -0.37412  -0.37034  -0.36609  -0.36301
 Alpha  occ. eigenvalues --   -0.36007  -0.35868  -0.35524  -0.34948  -0.34454
 Alpha  occ. eigenvalues --   -0.34036  -0.33498  -0.33437  -0.33200  -0.32784
 Alpha  occ. eigenvalues --   -0.32398  -0.31509  -0.30411  -0.29558  -0.29151
 Alpha  occ. eigenvalues --   -0.27741  -0.27505  -0.27165  -0.26031  -0.24341
 Alpha  occ. eigenvalues --   -0.24192  -0.23985  -0.23327  -0.23210  -0.21288
 Alpha  occ. eigenvalues --   -0.17540
 Alpha virt. eigenvalues --   -0.10323  -0.04881  -0.02943   0.00122   0.00963
 Alpha virt. eigenvalues --    0.01208   0.02001   0.02648   0.03194   0.03362
 Alpha virt. eigenvalues --    0.03768   0.03966   0.04610   0.04958   0.05696

 Mulliken charges:
               1
     1  O   -0.119392
     2  O   -0.180746
     3  O   -0.236948
     4  O   -0.173778
     5  O   -0.205695
     6  O   -0.225360
     7  N   -0.157991
     8  N   -0.247945
     9  N   -0.111436
    10  N   -0.293400
    11  C   -0.074359
    12  C    0.016278
    13  C   -0.177274
    14  C    0.043147
    15  C   -0.075960
    16  C    0.151752
    17  C   -0.090304
    18  C   -0.069426
    19  C   -0.019217
    20  C   -0.058037
    21  C    0.109838
    22  C    0.149399
    23  C   -0.014608
    24  C    0.099698
    25  C   -0.238298
    26  C    0.157640
    27  C    0.085508
    28  C    0.042567
    29  C   -0.149001
    30  C   -0.004738
    31  C   -0.186528
    32  C    0.231469
    33  C   -0.203638
    34  C    0.121005
    35  C   -0.070973
    36  C   -0.202830
    37  C    0.116353
    38  C    0.013114
    39  C    0.140046
    40  C    0.088393
    41  C    0.149793
    42  C    0.034340
    43  C   -0.004471
    44  H    0.194066
    45  H    0.058166
    46  H    0.055098
    47  H    0.031662
    48  H    0.032195
    49  H   -0.000092
    50  H    0.052356
    51  H    0.106437
    52  H    0.232766
    53  H    0.011647
    54  H   -0.021677
    55  H   -0.000902
    56  H    0.109364
    57  H    0.032023
    58  H   -0.003662
    59  H    0.101007
    60  H    0.061416
    61  H    0.039554
    62  H    0.023522
    63  H    0.035104
    64  H    0.003588
    65  H   -0.025695
    66  H   -0.021458
    67  H   -0.009243
    68  H   -0.000855
    69  H    0.084465
    70  H    0.036789
    71  H    0.039084
    72  H    0.015740
    73  H    0.034814
    74  H    0.043206
    75  H    0.017648
    76  H    0.035258
    77  H    0.001670
    78  H   -0.010306
    79  H    0.023635
    80  H    0.195219
    81  H    0.228404
 Sum of Mulliken charges =  -0.00000

 Dipole moment (field-independent basis, Debye):
    X=             -2.8435    Y=             -0.1295    Z=             -2.2100  Tot=              3.6037
 Quadrupole moment (field-independent basis, Debye-Ang):
   XX=           -245.3023   YY=           -232.5805   ZZ=           -253.3294
   XY=             16.9491   XZ=             16.2829   YZ=             -8.3664

 Normal termination of Gaussian 16 at Tue Jul  2 03:39:27 2019.
