 Gaussian 16, Revision A.03,
 Gaussian 16:  ES64L-G16RevA.03 25-Dec-2016

 --------------------------
 # td=(NStates=1) B3LYP/SVP
 --------------------------

 --
 TD
 --
 Symbolic Z-matrix:
 Charge =  0 Multiplicity = 1

                         Standard orientation:
 ---------------------------------------------------------------------
 Center     Atomic      Atomic             Coordinates (Angstroms)
 Number     Number       Type             X           Y           Z
 ---------------------------------------------------------------------
      1          8           0        4.202964   -4.831964   -1.917763
      2          8           0       -3.005811   -4.839104   -1.064631
      3          8           0       -7.183634   -1.595338   -1.710197
      4          8           0       -3.823763   -3.251938    0.146464
      5          8           0       -7.697339   -0.231837    0.031922
      6          8           0        3.045508    2.406829    0.315505
      7          7           0        0.260554   -0.560130    0.548670
      8          7           0       -1.497842    1.824607    0.198243
      9          7           0        3.339794   -3.175246   -0.701359
     10          7           0        0.772219    2.857673    0.081136
     11          6           0       -0.613862   -2.459782    1.364515
     12          6           0       -0.967359   -1.153263    0.891525
     13          6           0        0.774114   -2.679926    1.270789
     14          6           0        1.440958   -1.459930    0.710388
     15          6           0       -3.777753    1.532049    0.279844
     16          6           0       -2.505999    0.835112    0.398139
     17          6           0       -2.224589   -0.447804    0.751619
     18          6           0       -3.485803    2.837494   -0.112065
     19          6           0       -1.673699   -3.313630    2.005688
     20          6           0        5.455857   -2.838117   -1.274933
     21          6           0        3.643591   -1.800919   -0.143830
     22          6           0       -2.153349    2.994388   -0.088355
     23          6           0        4.962057   -1.685716   -0.513210
     24          6           0       -5.116683    0.836268    0.306531
     25          6           0        2.650227   -1.056847    0.377866
     26          6           0        1.447510   -3.823414    1.931898
     27          6           0        4.296419   -3.804213   -1.306575
     28          6           0       -2.114056   -4.537880    1.130506
     29          6           0       -5.462607   -0.121702   -0.906027
     30          6           0       -4.434369    3.923291   -0.430798
     31          6           0       -1.161764    4.130863   -0.384970
     32          6           0        6.827769   -3.596913   -0.838724
     33          6           0        5.872434   -0.587846   -0.164376
     34          6           0        0.196421    4.035768   -0.181308
     35          6           0        1.151098    5.176221   -0.405097
     36          6           0        2.335024    4.740567   -0.155338
     37          6           0       -3.064701   -4.124285    0.022838
     38          6           0        5.522389    0.657021    0.593502
     39          6           0       -6.879796   -0.611906   -0.709822
     40          6           0        3.682261    5.303708   -0.220369
     41          6           0        2.185323    3.183969    0.126592
     42          6           0        0.706354    6.495634   -0.814058
     43          6           0        4.345019    5.634475    1.175273
     44          1           0        0.401513    0.187556    0.097876
     45          1           0       -3.202714   -1.069041    0.805901
     46          1           0       -2.601984   -2.666890    2.375741
     47          1           0       -1.341176   -3.803741    2.930619
     48          1           0        5.629853   -2.535763   -2.292866
     49          1           0       -5.175822    0.324104    1.291575
     50          1           0       -5.932159    1.628778    0.183290
     51          1           0        2.970285    0.053378    0.249726
     52          1           0       -0.375674    1.980964    0.231422
     53          1           0        1.243624   -4.845658    1.413814
     54          1           0        2.516266   -3.610385    1.600450
     55          1           0        1.235631   -3.795580    2.961545
     56          1           0        2.359616   -3.418592   -0.823090
     57          1           0       -1.178000   -5.082577    0.669966
     58          1           0       -2.673311   -5.176271    1.687424
     59          1           0       -4.697692   -0.996418   -1.047801
     60          1           0       -5.283554    0.325103   -1.985452
     61          1           0       -4.347196    4.777173    0.199029
     62          1           0       -5.396606    3.614801   -0.331057
     63          1           0       -4.342688    4.376444   -1.439877
     64          1           0       -1.606008    5.087839   -0.609969
     65          1           0        7.714850   -2.869896   -0.887672
     66          1           0        6.971609   -4.455462   -1.634535
     67          1           0        6.814345   -4.057596    0.174139
     68          1           0        6.905705   -0.922221   -0.647296
     69          1           0        5.242268    1.502549    0.018024
     70          1           0        6.326090    0.898996    1.219325
     71          1           0        4.498941    0.572704    1.237911
     72          1           0        3.543024    6.337772   -0.742342
     73          1           0        4.372255    4.799077   -0.723102
     74          1           0       -0.023031    6.748937   -1.786363
     75          1           0        1.450365    7.237451   -1.036595
     76          1           0        0.288165    6.987758    0.040947
     77          1           0        3.598761    6.199365    1.964130
     78          1           0        5.186944    6.156967    0.905593
     79          1           0        4.653120    4.875227    1.800853
     80          1           0       -3.356449   -4.621910   -1.808678
     81          1           0       -7.966270   -1.902870   -1.685784
 ---------------------------------------------------------------------

 SCF Done:  E(RB3LYP) =  -1949.05603009     A.U. after   17 cycles

 Excitation energies and oscillator strengths:

 Excited State   1:      Singlet-A      1.7366 eV  713.94 nm  f=0.3786  <S**2>=0.000
     156 ->157         0.70768
     156 <-157        -0.12922
 This state for optimization and/or second-order correction.
 Total Energy, E(TD-HF/TD-DFT) =  -1948.99221020
 Copying the excited state density for this state as the 1-particle RhoCI density.

 The electronic state is 1-A.
 Alpha  occ. eigenvalues --  -19.17834 -19.14945 -19.14168 -19.12940 -19.11275
 Alpha  occ. eigenvalues --  -19.09033 -14.36343 -14.35967 -14.33433 -14.29098
 Alpha  occ. eigenvalues --  -10.32663 -10.32470 -10.27142 -10.27112 -10.24667
 Alpha  occ. eigenvalues --  -10.24549 -10.24227 -10.22979 -10.22915 -10.22513
 Alpha  occ. eigenvalues --  -10.22418 -10.22104 -10.21739 -10.21614 -10.21402
 Alpha  occ. eigenvalues --  -10.21183 -10.20867 -10.20824 -10.20590 -10.20365
 Alpha  occ. eigenvalues --  -10.20323 -10.19902 -10.19894 -10.19746 -10.19633
 Alpha  occ. eigenvalues --  -10.19219 -10.19174 -10.18970 -10.18803 -10.18333
 Alpha  occ. eigenvalues --  -10.18280 -10.18029 -10.18001  -1.13616  -1.09892
 Alpha  occ. eigenvalues --   -1.04348  -1.04168  -1.03575  -1.02371  -0.96585
 Alpha  occ. eigenvalues --   -0.95723  -0.94828  -0.91546  -0.82436  -0.82256
 Alpha  occ. eigenvalues --   -0.81777  -0.81319  -0.80678  -0.79584  -0.78211
 Alpha  occ. eigenvalues --   -0.77090  -0.76016  -0.75184  -0.74278  -0.72631
 Alpha  occ. eigenvalues --   -0.71690  -0.71043  -0.70535  -0.69352  -0.68221
 Alpha  occ. eigenvalues --   -0.67403  -0.65324  -0.64912  -0.64051  -0.63396
 Alpha  occ. eigenvalues --   -0.61681  -0.59892  -0.58915  -0.58141  -0.57460
 Alpha  occ. eigenvalues --   -0.55614  -0.55409  -0.54776  -0.53062  -0.52743
 Alpha  occ. eigenvalues --   -0.52450  -0.51453  -0.51226  -0.50832  -0.49907
 Alpha  occ. eigenvalues --   -0.49529  -0.49073  -0.48353  -0.47833  -0.47533
 Alpha  occ. eigenvalues --   -0.47292  -0.47065  -0.46590  -0.45839  -0.45176
 Alpha  occ. eigenvalues --   -0.44677  -0.44535  -0.44259  -0.43914  -0.43740
 Alpha  occ. eigenvalues --   -0.43445  -0.43022  -0.42853  -0.42593  -0.42060
 Alpha  occ. eigenvalues --   -0.41809  -0.41407  -0.41146  -0.40756  -0.40618
 Alpha  occ. eigenvalues --   -0.40375  -0.39963  -0.39837  -0.39655  -0.39569
 Alpha  occ. eigenvalues --   -0.39446  -0.39150  -0.38965  -0.38132  -0.37910
 Alpha  occ. eigenvalues --   -0.37692  -0.37649  -0.37354  -0.37024  -0.36813
 Alpha  occ. eigenvalues --   -0.36383  -0.36165  -0.35847  -0.35829  -0.34904
 Alpha  occ. eigenvalues --   -0.34695  -0.34681  -0.34170  -0.33937  -0.33791
 Alpha  occ. eigenvalues --   -0.33032  -0.32990  -0.32486  -0.30119  -0.29380
 Alpha  occ. eigenvalues --   -0.29033  -0.28876  -0.26782  -0.25443  -0.25230
 Alpha  occ. eigenvalues --   -0.25064  -0.24504  -0.24339  -0.24034  -0.20914
 Alpha  occ. eigenvalues --   -0.17718
 Alpha virt. eigenvalues --   -0.10900  -0.06563  -0.03852  -0.00568   0.00510
 Alpha virt. eigenvalues --    0.00932   0.02224   0.03520   0.04329   0.04649
 Alpha virt. eigenvalues --    0.05141   0.05382   0.05805   0.06318   0.06760

 Mulliken charges:
               1
     1  O   -0.213726
     2  O   -0.076933
     3  O   -0.191521
     4  O   -0.176984
     5  O   -0.156671
     6  O   -0.163724
     7  N   -0.074802
     8  N   -0.198842
     9  N   -0.131397
    10  N   -0.327778
    11  C   -0.054994
    12  C    0.086842
    13  C   -0.181804
    14  C    0.151422
    15  C   -0.070467
    16  C    0.076336
    17  C   -0.061779
    18  C   -0.139792
    19  C    0.048902
    20  C   -0.062241
    21  C    0.088271
    22  C    0.065986
    23  C   -0.064010
    24  C    0.069237
    25  C   -0.166296
    26  C    0.084845
    27  C    0.078110
    28  C    0.034295
    29  C   -0.083265
    30  C    0.182297
    31  C   -0.097888
    32  C   -0.017997
    33  C   -0.101264
    34  C    0.091746
    35  C   -0.024218
    36  C   -0.169275
    37  C    0.060692
    38  C    0.067460
    39  C    0.170725
    40  C    0.107590
    41  C    0.159441
    42  C    0.059656
    43  C    0.006041
    44  H    0.039480
    45  H    0.046584
    46  H    0.042473
    47  H   -0.003159
    48  H    0.035555
    49  H    0.038710
    50  H    0.032004
    51  H    0.071763
    52  H    0.184658
    53  H    0.032929
    54  H    0.026532
    55  H    0.034711
    56  H    0.123087
    57  H    0.047644
    58  H    0.007843
    59  H    0.061449
    60  H    0.062353
    61  H    0.005102
    62  H   -0.040189
    63  H    0.014112
    64  H   -0.046130
    65  H    0.026898
    66  H    0.054385
    67  H    0.029662
    68  H    0.019383
    69  H    0.047802
    70  H    0.007422
    71  H    0.058534
    72  H    0.001612
    73  H   -0.024974
    74  H    0.045336
    75  H   -0.016647
    76  H    0.012977
    77  H    0.018602
    78  H   -0.003672
    79  H    0.004377
    80  H    0.117721
    81  H    0.100840
 Sum of Mulliken charges =  -0.00000

 Dipole moment (field-independent basis, Debye):
    X=             -1.2830    Y=              1.3669    Z=             -0.3071  Tot=              1.8997
 Quadrupole moment (field-independent basis, Debye-Ang):
   XX=           -249.4428   YY=           -243.8820   ZZ=           -252.5682
   XY=             20.4715   XZ=             13.3188   YZ=            -14.0453

 Normal termination of Gaussian 16 at Mon Jul  1 19:55:05 2019.
