 Gaussian 16, Revision A.03,
 Gaussian 16:  ES64L-G16RevA.03 25-Dec-2016

 --------------------------
 # td=(NStates=1) B3LYP/SVP
 --------------------------

 --
 TD
 --
 Symbolic Z-matrix:
 Charge =  0 Multiplicity = 1

                         Standard orientation:
 ---------------------------------------------------------------------
 Center     Atomic      Atomic             Coordinates (Angstroms)
 Number     Number       Type             X           Y           Z
 ---------------------------------------------------------------------
      1          8           0        4.202150   -4.888484   -1.907825
      2          8           0       -2.785791   -4.820810   -1.035249
      3          8           0       -7.091040   -1.330775   -2.135556
      4          8           0       -3.834873   -3.183375    0.145036
      5          8           0       -7.503749   -0.803146    0.094336
      6          8           0        3.111874    2.343153    0.441772
      7          7           0        0.265919   -0.438033    0.699318
      8          7           0       -1.619493    1.900637    0.314777
      9          7           0        3.230365   -3.035620   -0.899051
     10          7           0        0.864626    2.816772    0.128383
     11          6           0       -0.626539   -2.349490    1.501450
     12          6           0       -0.950065   -0.955358    1.012230
     13          6           0        0.698855   -2.547363    1.163191
     14          6           0        1.273244   -1.419402    0.730995
     15          6           0       -3.872681    1.529379    0.378766
     16          6           0       -2.539887    0.889740    0.561422
     17          6           0       -2.311283   -0.344963    0.938810
     18          6           0       -3.653709    2.799575   -0.018587
     19          6           0       -1.553584   -3.320622    2.090721
     20          6           0        5.467366   -2.763950   -1.369106
     21          6           0        3.589290   -1.824901   -0.234561
     22          6           0       -2.120588    3.062665   -0.101690
     23          6           0        4.970634   -1.673356   -0.513670
     24          6           0       -5.199315    0.841223    0.336087
     25          6           0        2.629260   -1.065406    0.499968
     26          6           0        1.453203   -3.839255    1.633630
     27          6           0        4.261859   -3.755037   -1.474201
     28          6           0       -2.066536   -4.534199    1.239496
     29          6           0       -5.426589   -0.042098   -0.932632
     30          6           0       -4.552049    3.883661   -0.615947
     31          6           0       -1.230084    4.137406   -0.312217
     32          6           0        6.802815   -3.513393   -0.989354
     33          6           0        5.783194   -0.601664   -0.185391
     34          6           0        0.184290    3.921447   -0.299892
     35          6           0        1.106330    5.163653   -0.507319
     36          6           0        2.364138    4.688133   -0.157861
     37          6           0       -3.033709   -4.033589    0.060580
     38          6           0        5.402655    0.531081    0.766257
     39          6           0       -6.788893   -0.721197   -0.874886
     40          6           0        3.809776    5.240051   -0.338968
     41          6           0        2.240186    3.272398    0.200838
     42          6           0        0.621894    6.506148   -0.761392
     43          6           0        4.521053    5.351715    1.119677
     44          1           0        0.163926    0.654202    0.218304
     45          1           0       -3.135691   -1.018570    1.311684
     46          1           0       -2.418863   -2.933230    2.672089
     47          1           0       -1.037023   -3.711470    3.092202
     48          1           0        5.754600   -2.353133   -2.395995
     49          1           0       -5.173784    0.259504    1.296711
     50          1           0       -5.992854    1.642275    0.617025
     51          1           0        2.945372   -0.041312    1.045286
     52          1           0       -0.651346    1.912044    0.844943
     53          1           0        1.239840   -4.879034    1.189447
     54          1           0        2.447587   -3.499311    1.499905
     55          1           0        1.214902   -3.935951    2.823756
     56          1           0        2.395452   -3.341914   -0.726181
     57          1           0       -1.218081   -5.268211    0.894908
     58          1           0       -2.878835   -5.033542    2.073258
     59          1           0       -4.602031   -0.717929   -0.721149
     60          1           0       -5.215126    0.472958   -1.895433
     61          1           0       -4.072930    4.881266   -0.537615
     62          1           0       -5.480429    3.690484   -0.386120
     63          1           0       -4.769218    3.546287   -1.907242
     64          1           0       -1.603158    4.943937   -0.712813
     65          1           0        7.580766   -2.819230   -1.244309
     66          1           0        6.918196   -4.603859   -1.449883
     67          1           0        6.832303   -3.698932    0.082922
     68          1           0        6.724878   -0.645579   -0.507478
     69          1           0        4.732785    1.225941    0.271657
     70          1           0        6.397248    0.987895    0.926174
     71          1           0        4.878863    0.055135    1.714143
     72          1           0        3.559424    6.380467   -0.703266
     73          1           0        4.652314    4.764405   -0.926889
     74          1           0       -0.036699    6.679840   -1.481270
     75          1           0        1.485832    7.098955   -1.099716
     76          1           0       -0.134678    7.004354   -0.064653
     77          1           0        4.080800    6.006269    1.757994
     78          1           0        5.466705    5.895269    0.870540
     79          1           0        4.698745    4.461312    1.584703
     80          1           0       -3.414226   -4.421805   -1.881860
     81          1           0       -7.841235   -1.956791   -1.948557
 ---------------------------------------------------------------------

 SCF Done:  E(RB3LYP) =  -1949.01609040     A.U. after   16 cycles

 Excitation energies and oscillator strengths:

 Excited State   1:      Singlet-A      1.4790 eV  838.30 nm  f=0.1679  <S**2>=0.000
     156 ->157         0.70645
 This state for optimization and/or second-order correction.
 Total Energy, E(TD-HF/TD-DFT) =  -1948.96173855
 Copying the excited state density for this state as the 1-particle RhoCI density.

 The electronic state is 1-A.
 Alpha  occ. eigenvalues --  -19.19654 -19.17970 -19.14863 -19.14468 -19.10991
 Alpha  occ. eigenvalues --  -19.10507 -14.37712 -14.37571 -14.35132 -14.30708
 Alpha  occ. eigenvalues --  -10.33340 -10.33337 -10.28640 -10.27809 -10.25612
 Alpha  occ. eigenvalues --  -10.24357 -10.23872 -10.23697 -10.23610 -10.23200
 Alpha  occ. eigenvalues --  -10.22399 -10.22343 -10.22060 -10.21921 -10.21870
 Alpha  occ. eigenvalues --  -10.21852 -10.21799 -10.21708 -10.21350 -10.21232
 Alpha  occ. eigenvalues --  -10.21036 -10.20313 -10.20043 -10.20043 -10.19460
 Alpha  occ. eigenvalues --  -10.19181 -10.19070 -10.18719 -10.18716 -10.18376
 Alpha  occ. eigenvalues --  -10.18370 -10.17267 -10.16843  -1.10208  -1.08085
 Alpha  occ. eigenvalues --   -1.02626  -1.01631  -1.00493  -0.99402  -0.98473
 Alpha  occ. eigenvalues --   -0.96685  -0.94947  -0.90509  -0.83358  -0.81731
 Alpha  occ. eigenvalues --   -0.81330  -0.80575  -0.80156  -0.78586  -0.77788
 Alpha  occ. eigenvalues --   -0.76628  -0.75477  -0.74949  -0.73711  -0.71997
 Alpha  occ. eigenvalues --   -0.70913  -0.70661  -0.68751  -0.67933  -0.67628
 Alpha  occ. eigenvalues --   -0.66138  -0.65487  -0.64004  -0.62554  -0.61385
 Alpha  occ. eigenvalues --   -0.59885  -0.59189  -0.58316  -0.57549  -0.56865
 Alpha  occ. eigenvalues --   -0.56204  -0.55783  -0.54005  -0.53845  -0.53394
 Alpha  occ. eigenvalues --   -0.52233  -0.51147  -0.50665  -0.50240  -0.49913
 Alpha  occ. eigenvalues --   -0.48968  -0.48506  -0.48289  -0.48148  -0.47710
 Alpha  occ. eigenvalues --   -0.47307  -0.46886  -0.46328  -0.45458  -0.45309
 Alpha  occ. eigenvalues --   -0.44746  -0.44699  -0.44102  -0.43912  -0.43493
 Alpha  occ. eigenvalues --   -0.43094  -0.42912  -0.42628  -0.42201  -0.42115
 Alpha  occ. eigenvalues --   -0.42067  -0.41850  -0.41531  -0.41167  -0.40872
 Alpha  occ. eigenvalues --   -0.40209  -0.40115  -0.39933  -0.39820  -0.39502
 Alpha  occ. eigenvalues --   -0.39121  -0.38441  -0.38182  -0.38024  -0.37709
 Alpha  occ. eigenvalues --   -0.37303  -0.37026  -0.36661  -0.36352  -0.36089
 Alpha  occ. eigenvalues --   -0.35994  -0.35580  -0.35368  -0.35124  -0.34661
 Alpha  occ. eigenvalues --   -0.34427  -0.34061  -0.33792  -0.33361  -0.33232
 Alpha  occ. eigenvalues --   -0.32897  -0.32807  -0.32315  -0.30054  -0.29620
 Alpha  occ. eigenvalues --   -0.29464  -0.28244  -0.26644  -0.25856  -0.25290
 Alpha  occ. eigenvalues --   -0.25187  -0.24844  -0.24421  -0.23596  -0.21620
 Alpha  occ. eigenvalues --   -0.17578
 Alpha virt. eigenvalues --   -0.11130  -0.06776  -0.04222  -0.01535  -0.00745
 Alpha virt. eigenvalues --    0.00145   0.00492   0.00618   0.01387   0.03687
 Alpha virt. eigenvalues --    0.03956   0.04264   0.04814   0.05047   0.05484

 Mulliken charges:
               1
     1  O   -0.206612
     2  O   -0.266613
     3  O   -0.261265
     4  O   -0.173539
     5  O   -0.198795
     6  O   -0.262964
     7  N   -0.156704
     8  N   -0.139227
     9  N   -0.063350
    10  N   -0.321104
    11  C   -0.076926
    12  C   -0.033967
    13  C   -0.134586
    14  C    0.072805
    15  C   -0.095690
    16  C    0.118580
    17  C   -0.071388
    18  C   -0.139601
    19  C    0.025541
    20  C   -0.119887
    21  C    0.081826
    22  C    0.091956
    23  C   -0.011973
    24  C    0.039453
    25  C   -0.149901
    26  C    0.029658
    27  C    0.164450
    28  C   -0.051268
    29  C    0.039698
    30  C    0.138408
    31  C   -0.048554
    32  C    0.022240
    33  C   -0.100181
    34  C    0.089765
    35  C   -0.099700
    36  C   -0.111935
    37  C    0.155119
    38  C    0.057757
    39  C    0.187649
    40  C   -0.015197
    41  C    0.200232
    42  C    0.166216
    43  C    0.040305
    44  H    0.212724
    45  H    0.035504
    46  H    0.005925
    47  H    0.013611
    48  H    0.051881
    49  H    0.026044
    50  H    0.026623
    51  H    0.079018
    52  H    0.194878
    53  H    0.051849
    54  H    0.014172
    55  H    0.038361
    56  H    0.050914
    57  H    0.061753
    58  H    0.059986
    59  H    0.050822
    60  H    0.045951
    61  H    0.049168
    62  H   -0.041282
    63  H    0.024177
    64  H   -0.098718
    65  H    0.012725
    66  H    0.055217
    67  H    0.006508
    68  H   -0.068034
    69  H    0.073214
    70  H    0.002385
    71  H    0.046752
    72  H    0.012443
    73  H    0.055357
    74  H   -0.040923
    75  H    0.019439
    76  H    0.028861
    77  H   -0.018557
    78  H   -0.001380
    79  H    0.024655
    80  H    0.236513
    81  H    0.190730
 Sum of Mulliken charges =  -0.00000

 Dipole moment (field-independent basis, Debye):
    X=             -3.5733    Y=              3.9619    Z=             -0.4307  Tot=              5.3526
 Quadrupole moment (field-independent basis, Debye-Ang):
   XX=           -253.1274   YY=           -239.2312   ZZ=           -255.2393
   XY=             14.9172   XZ=             11.9555   YZ=            -14.3269

 Normal termination of Gaussian 16 at Wed Jul  3 16:17:54 2019.
