 Gaussian 16, Revision A.03,
 Gaussian 16:  ES64L-G16RevA.03 25-Dec-2016

 --------------------------
 # td=(NStates=1) B3LYP/SVP
 --------------------------

 --
 TD
 --
 Symbolic Z-matrix:
 Charge =  0 Multiplicity = 1

                         Standard orientation:
 ---------------------------------------------------------------------
 Center     Atomic      Atomic             Coordinates (Angstroms)
 Number     Number       Type             X           Y           Z
 ---------------------------------------------------------------------
      1          8           0        4.127111   -4.929487   -1.874766
      2          8           0       -2.978464   -4.936763   -1.150334
      3          8           0       -7.031693   -1.657827   -1.747424
      4          8           0       -3.727725   -3.111715    0.027766
      5          8           0       -7.534386   -0.466868    0.115722
      6          8           0        3.056673    2.387114    0.363442
      7          7           0        0.254559   -0.442868    0.577905
      8          7           0       -1.538432    1.846397    0.360137
      9          7           0        3.139779   -3.172436   -0.683473
     10          7           0        0.842965    3.003766    0.179087
     11          6           0       -0.610249   -2.325727    1.423575
     12          6           0       -0.973589   -1.051542    1.011050
     13          6           0        0.682402   -2.672532    1.243705
     14          6           0        1.326327   -1.367477    0.618628
     15          6           0       -3.770903    1.529123    0.264537
     16          6           0       -2.536633    0.937384    0.559978
     17          6           0       -2.207769   -0.379328    0.838059
     18          6           0       -3.446187    2.886370   -0.036325
     19          6           0       -1.672032   -3.303069    1.945709
     20          6           0        5.495797   -2.938220   -1.331813
     21          6           0        3.563497   -1.901674   -0.218259
     22          6           0       -2.049462    3.061407   -0.000608
     23          6           0        5.029732   -1.746087   -0.465119
     24          6           0       -5.121429    0.826055    0.325227
     25          6           0        2.647585   -1.035606    0.413839
     26          6           0        1.422605   -3.807105    1.779106
     27          6           0        4.138359   -3.858167   -1.309012
     28          6           0       -2.079672   -4.352267    0.962227
     29          6           0       -5.451196    0.017628   -0.872063
     30          6           0       -4.412986    4.016048   -0.375185
     31          6           0       -1.222223    4.105462   -0.338253
     32          6           0        6.633000   -3.723861   -0.679284
     33          6           0        5.825798   -0.683705   -0.031489
     34          6           0        0.193797    4.123283   -0.261857
     35          6           0        1.192413    5.165975   -0.579687
     36          6           0        2.418809    4.722333   -0.179340
     37          6           0       -3.019277   -4.119815   -0.043604
     38          6           0        5.452705    0.591928    0.492300
     39          6           0       -6.819542   -0.645392   -0.745773
     40          6           0        3.733110    5.311736   -0.362938
     41          6           0        2.206667    3.297641    0.183960
     42          6           0        0.716122    6.610987   -0.908048
     43          6           0        4.480935    5.359139    1.010736
     44          1           0        0.342073    0.488344    0.113551
     45          1           0       -3.154782   -0.865316    0.929882
     46          1           0       -2.439521   -2.773217    2.600849
     47          1           0       -1.145548   -3.782009    2.679028
     48          1           0        5.493564   -2.402722   -2.319039
     49          1           0       -5.045683    0.317671    1.312583
     50          1           0       -5.916864    1.662317    0.336007
     51          1           0        2.999050   -0.057330    0.387122
     52          1           0       -0.522893    2.052127    0.515884
     53          1           0        1.491357   -4.763613    1.049096
     54          1           0        2.401525   -3.604757    1.950852
     55          1           0        0.968534   -4.363625    2.719351
     56          1           0        2.130345   -3.283610   -0.962131
     57          1           0       -1.209644   -4.937301    0.507899
     58          1           0       -2.595915   -5.084168    1.481755
     59          1           0       -4.646422   -0.739358   -1.033336
     60          1           0       -5.263597    0.605806   -1.848952
     61          1           0       -4.519319    4.916652    0.096904
     62          1           0       -5.557590    3.663458   -0.167666
     63          1           0       -4.363368    4.094177   -1.491814
     64          1           0       -1.743371    5.043030   -0.625676
     65          1           0        7.583803   -3.117646   -0.616395
     66          1           0        6.701348   -4.812377   -1.128044
     67          1           0        6.238950   -4.166567    0.389164
     68          1           0        6.901759   -0.693131   -0.202936
     69          1           0        4.938436    1.093447   -0.236606
     70          1           0        6.211766    1.032851    1.148957
     71          1           0        4.553191    0.635800    1.244047
     72          1           0        3.592483    6.418761   -0.896455
     73          1           0        4.382681    4.544317   -0.928534
     74          1           0       -0.072229    6.657880   -1.787541
     75          1           0        1.726635    7.237929   -1.279926
     76          1           0        0.372867    7.002487   -0.019540
     77          1           0        4.051605    6.025820    1.865350
     78          1           0        5.457079    5.822306    0.928282
     79          1           0        4.637237    4.368797    1.541746
     80          1           0       -3.852067   -4.799496   -1.502844
     81          1           0       -7.910750   -2.262938   -1.665596
 ---------------------------------------------------------------------

 SCF Done:  E(RB3LYP) =  -1949.10340840     A.U. after   20 cycles

 Excitation energies and oscillator strengths:

 Excited State   1:      Singlet-A      1.6510 eV  750.98 nm  f=0.3245  <S**2>=0.000
     156 ->157         0.71440
     156 <-157        -0.14120
 This state for optimization and/or second-order correction.
 Total Energy, E(TD-HF/TD-DFT) =  -1949.04273632
 Copying the excited state density for this state as the 1-particle RhoCI density.

 The electronic state is 1-A.
 Alpha  occ. eigenvalues --  -19.19491 -19.16000 -19.13623 -19.13352 -19.11774
 Alpha  occ. eigenvalues --  -19.09439 -14.38419 -14.38100 -14.34147 -14.28145
 Alpha  occ. eigenvalues --  -10.32764 -10.31725 -10.29823 -10.25963 -10.25629
 Alpha  occ. eigenvalues --  -10.25314 -10.23449 -10.22504 -10.22244 -10.22235
 Alpha  occ. eigenvalues --  -10.21555 -10.21154 -10.21126 -10.20892 -10.20886
 Alpha  occ. eigenvalues --  -10.20862 -10.20838 -10.20815 -10.20756 -10.20749
 Alpha  occ. eigenvalues --  -10.20709 -10.20507 -10.20387 -10.20307 -10.19960
 Alpha  occ. eigenvalues --  -10.19918 -10.19881 -10.19828 -10.18867 -10.18641
 Alpha  occ. eigenvalues --  -10.18553 -10.18244 -10.17142  -1.10402  -1.10167
 Alpha  occ. eigenvalues --   -1.03937  -1.01167  -0.99097  -0.98296  -0.98042
 Alpha  occ. eigenvalues --   -0.96177  -0.95517  -0.90580  -0.83832  -0.82349
 Alpha  occ. eigenvalues --   -0.81498  -0.80894  -0.79674  -0.79496  -0.78794
 Alpha  occ. eigenvalues --   -0.77086  -0.76300  -0.75307  -0.74115  -0.72961
 Alpha  occ. eigenvalues --   -0.71037  -0.69829  -0.69524  -0.68309  -0.66978
 Alpha  occ. eigenvalues --   -0.66680  -0.64910  -0.63757  -0.62510  -0.61218
 Alpha  occ. eigenvalues --   -0.60546  -0.59071  -0.58624  -0.57998  -0.57612
 Alpha  occ. eigenvalues --   -0.56029  -0.55195  -0.54414  -0.53986  -0.52953
 Alpha  occ. eigenvalues --   -0.52105  -0.51620  -0.51137  -0.50709  -0.50530
 Alpha  occ. eigenvalues --   -0.49356  -0.49057  -0.48404  -0.47832  -0.47401
 Alpha  occ. eigenvalues --   -0.47052  -0.46559  -0.45911  -0.45669  -0.45489
 Alpha  occ. eigenvalues --   -0.44910  -0.44341  -0.43918  -0.43845  -0.43552
 Alpha  occ. eigenvalues --   -0.43351  -0.43200  -0.42838  -0.42359  -0.42153
 Alpha  occ. eigenvalues --   -0.42137  -0.41738  -0.41530  -0.41420  -0.41056
 Alpha  occ. eigenvalues --   -0.40675  -0.40422  -0.40261  -0.39764  -0.39632
 Alpha  occ. eigenvalues --   -0.39196  -0.38993  -0.38435  -0.37685  -0.37511
 Alpha  occ. eigenvalues --   -0.37390  -0.37273  -0.37173  -0.36973  -0.36669
 Alpha  occ. eigenvalues --   -0.36531  -0.36231  -0.35513  -0.34754  -0.34384
 Alpha  occ. eigenvalues --   -0.33651  -0.33592  -0.33175  -0.33036  -0.32802
 Alpha  occ. eigenvalues --   -0.32328  -0.31549  -0.31493  -0.29827  -0.28793
 Alpha  occ. eigenvalues --   -0.28657  -0.27216  -0.26892  -0.26148  -0.25839
 Alpha  occ. eigenvalues --   -0.24855  -0.24429  -0.23957  -0.23120  -0.21354
 Alpha  occ. eigenvalues --   -0.17250
 Alpha virt. eigenvalues --   -0.10717  -0.06471  -0.04503  -0.01563  -0.00301
 Alpha virt. eigenvalues --    0.01096   0.01446   0.02854   0.03111   0.03965
 Alpha virt. eigenvalues --    0.03989   0.04693   0.05026   0.05745   0.05893

 Mulliken charges:
               1
     1  O   -0.201625
     2  O   -0.180148
     3  O   -0.331849
     4  O   -0.246122
     5  O   -0.120607
     6  O   -0.262034
     7  N   -0.149203
     8  N   -0.099401
     9  N   -0.113168
    10  N   -0.330475
    11  C   -0.126844
    12  C    0.152525
    13  C   -0.129096
    14  C    0.077713
    15  C   -0.082678
    16  C    0.016310
    17  C   -0.014997
    18  C   -0.110441
    19  C    0.220733
    20  C   -0.051581
    21  C    0.020261
    22  C    0.045784
    23  C   -0.027378
    24  C    0.102966
    25  C   -0.026344
    26  C    0.070162
    27  C    0.102125
    28  C    0.093447
    29  C   -0.039218
    30  C    0.063152
    31  C   -0.096535
    32  C   -0.001265
    33  C   -0.144077
    34  C    0.075384
    35  C   -0.102474
    36  C   -0.118450
    37  C    0.090748
    38  C    0.078076
    39  C    0.177214
    40  C    0.035314
    41  C    0.163004
    42  C    0.032752
    43  C   -0.054077
    44  H    0.152771
    45  H   -0.026487
    46  H    0.019074
    47  H   -0.058146
    48  H    0.057019
    49  H    0.038646
    50  H    0.018278
    51  H   -0.028329
    52  H    0.147244
    53  H    0.022451
    54  H   -0.000422
    55  H    0.035432
    56  H    0.167121
    57  H    0.038591
    58  H    0.012370
    59  H    0.043661
    60  H    0.043541
    61  H    0.014148
    62  H    0.004363
    63  H    0.030501
    64  H   -0.030295
    65  H    0.048163
    66  H    0.048387
    67  H    0.029208
    68  H   -0.007879
    69  H    0.038518
    70  H    0.016877
    71  H    0.047758
    72  H    0.030244
    73  H    0.039818
    74  H    0.046269
    75  H    0.030636
    76  H    0.029813
    77  H    0.007258
    78  H   -0.002111
    79  H    0.044540
    80  H    0.174608
    81  H    0.218778
 Sum of Mulliken charges =  -0.00000

 Dipole moment (field-independent basis, Debye):
    X=             -2.1934    Y=             -0.8347    Z=              0.1509  Tot=              2.3517
 Quadrupole moment (field-independent basis, Debye-Ang):
   XX=           -244.9396   YY=           -239.3936   ZZ=           -256.0348
   XY=             19.3338   XZ=             11.0800   YZ=            -15.6230

 Normal termination of Gaussian 16 at Mon Jul  1 14:06:24 2019.
