 Gaussian 16, Revision A.03,
 Gaussian 16:  ES64L-G16RevA.03 25-Dec-2016

 --------------------------
 # td=(NStates=1) B3LYP/SVP
 --------------------------

 --
 TD
 --
 Symbolic Z-matrix:
 Charge =  0 Multiplicity = 1

                         Standard orientation:
 ---------------------------------------------------------------------
 Center     Atomic      Atomic             Coordinates (Angstroms)
 Number     Number       Type             X           Y           Z
 ---------------------------------------------------------------------
      1          8           0        4.275343   -4.831892   -1.713044
      2          8           0       -2.794917   -4.933003   -1.298726
      3          8           0       -7.046030   -1.502616   -1.874646
      4          8           0       -3.627238   -3.154827   -0.204817
      5          8           0       -7.507794   -0.795114    0.310878
      6          8           0        2.881825    2.377052    0.309092
      7          7           0        0.194260   -0.479684    0.629791
      8          7           0       -1.568832    1.867045    0.371366
      9          7           0        3.359952   -3.104989   -0.564105
     10          7           0        0.688265    2.911823    0.019349
     11          6           0       -0.566380   -2.373213    1.437558
     12          6           0       -0.945909   -1.064578    1.004468
     13          6           0        0.816491   -2.626478    1.225886
     14          6           0        1.345216   -1.409709    0.777634
     15          6           0       -3.769437    1.530253    0.326409
     16          6           0       -2.554365    0.839687    0.629893
     17          6           0       -2.224896   -0.531615    0.939572
     18          6           0       -3.562228    2.794901   -0.173198
     19          6           0       -1.607443   -3.399765    1.895969
     20          6           0        5.586420   -2.797989   -1.237997
     21          6           0        3.603714   -1.840004   -0.176930
     22          6           0       -2.157609    2.998402   -0.053678
     23          6           0        5.015537   -1.576436   -0.594225
     24          6           0       -5.143821    0.762830    0.385864
     25          6           0        2.642596   -1.045904    0.370162
     26          6           0        1.474093   -3.806431    1.779017
     27          6           0        4.434299   -3.756530   -1.140310
     28          6           0       -1.854343   -4.515012    0.864053
     29          6           0       -5.443650   -0.158878   -0.722883
     30          6           0       -4.515522    3.928515   -0.475874
     31          6           0       -1.259806    4.092882   -0.283430
     32          6           0        6.835500   -3.359654   -0.618010
     33          6           0        5.810475   -0.481391   -0.170869
     34          6           0        0.103734    4.029101   -0.251131
     35          6           0        1.043777    5.175771   -0.458199
     36          6           0        2.209991    4.646992   -0.255080
     37          6           0       -2.865567   -4.037918   -0.319543
     38          6           0        5.295061    0.743384    0.538644
     39          6           0       -6.809122   -0.810690   -0.684024
     40          6           0        3.508756    5.434202   -0.405729
     41          6           0        2.035419    3.179423    0.104833
     42          6           0        0.737406    6.592708   -0.682279
     43          6           0        4.255576    5.622694    0.907113
     44          1           0        0.267487    0.416759    0.076139
     45          1           0       -3.110522   -1.175498    0.975862
     46          1           0       -2.571153   -2.893294    2.359078
     47          1           0       -1.167509   -4.079515    2.747505
     48          1           0        5.753357   -2.587817   -2.285348
     49          1           0       -5.226313    0.306660    1.431140
     50          1           0       -5.918694    1.577366    0.349142
     51          1           0        2.883965    0.064317    0.604222
     52          1           0       -0.741043    1.726955    0.712160
     53          1           0        1.764660   -4.643705    1.095686
     54          1           0        2.486022   -3.568045    2.090104
     55          1           0        0.878828   -4.419731    2.596524
     56          1           0        2.404858   -3.705501   -0.244721
     57          1           0       -1.005074   -4.891976    0.070189
     58          1           0       -2.238480   -5.446074    1.214896
     59          1           0       -4.749683   -1.032058   -0.751610
     60          1           0       -5.316616    0.167178   -1.625953
     61          1           0       -4.440733    4.698369    0.336454
     62          1           0       -5.621982    3.405424   -0.587187
     63          1           0       -4.138617    4.292616   -1.449552
     64          1           0       -1.658786    5.032910   -0.366819
     65          1           0        7.718652   -2.874984   -0.731191
     66          1           0        6.860053   -4.369728   -1.110328
     67          1           0        6.463841   -3.566647    0.351433
     68          1           0        6.878528   -0.274631   -0.349833
     69          1           0        4.562088    1.499309    0.052345
     70          1           0        6.165500    1.358598    0.600982
     71          1           0        4.537508    0.497269    1.319781
     72          1           0        3.379447    6.264444   -1.022775
     73          1           0        4.220299    4.890304   -0.968160
     74          1           0        0.260567    6.880378   -1.634001
     75          1           0        1.602731    7.288343   -0.752288
     76          1           0       -0.039526    6.930851   -0.020362
     77          1           0        3.776518    6.030320    1.779160
     78          1           0        5.254121    5.974687    0.905786
     79          1           0        4.353902    4.528854    1.339127
     80          1           0       -3.622788   -4.801613   -1.864745
     81          1           0       -7.914221   -1.814568   -1.569663
 ---------------------------------------------------------------------

 SCF Done:  E(RB3LYP) =  -1949.11660565     A.U. after   17 cycles

 Excitation energies and oscillator strengths:

 Excited State   1:      Singlet-A      1.7218 eV  720.07 nm  f=0.3345  <S**2>=0.000
     156 ->157         0.70883
     156 <-157        -0.12396
 This state for optimization and/or second-order correction.
 Total Energy, E(TD-HF/TD-DFT) =  -1949.05332946
 Copying the excited state density for this state as the 1-particle RhoCI density.

 The electronic state is 1-A.
 Alpha  occ. eigenvalues --  -19.20416 -19.19019 -19.14859 -19.13871 -19.10778
 Alpha  occ. eigenvalues --  -19.10221 -14.37629 -14.37454 -14.35089 -14.26977
 Alpha  occ. eigenvalues --  -10.33208 -10.32501 -10.28856 -10.25800 -10.24448
 Alpha  occ. eigenvalues --  -10.24289 -10.23868 -10.23333 -10.23072 -10.22598
 Alpha  occ. eigenvalues --  -10.22495 -10.22042 -10.21501 -10.21479 -10.21124
 Alpha  occ. eigenvalues --  -10.20736 -10.20603 -10.20546 -10.20423 -10.20283
 Alpha  occ. eigenvalues --  -10.20175 -10.20038 -10.20015 -10.18903 -10.18854
 Alpha  occ. eigenvalues --  -10.18562 -10.18256 -10.17981 -10.17702 -10.17269
 Alpha  occ. eigenvalues --  -10.17172 -10.16809 -10.16587  -1.12326  -1.09507
 Alpha  occ. eigenvalues --   -1.04105  -1.03408  -1.03209  -1.01441  -0.98421
 Alpha  occ. eigenvalues --   -0.96933  -0.95619  -0.93034  -0.82632  -0.82360
 Alpha  occ. eigenvalues --   -0.81637  -0.80911  -0.80343  -0.79292  -0.78004
 Alpha  occ. eigenvalues --   -0.77203  -0.76036  -0.75016  -0.74299  -0.72379
 Alpha  occ. eigenvalues --   -0.71726  -0.69830  -0.69450  -0.68677  -0.68139
 Alpha  occ. eigenvalues --   -0.67173  -0.65697  -0.63507  -0.62342  -0.61456
 Alpha  occ. eigenvalues --   -0.60570  -0.58853  -0.58426  -0.58107  -0.57405
 Alpha  occ. eigenvalues --   -0.56155  -0.55423  -0.54545  -0.54323  -0.53597
 Alpha  occ. eigenvalues --   -0.52856  -0.52019  -0.50933  -0.50732  -0.50004
 Alpha  occ. eigenvalues --   -0.49815  -0.49682  -0.49564  -0.49013  -0.48318
 Alpha  occ. eigenvalues --   -0.47565  -0.47146  -0.46378  -0.46102  -0.45269
 Alpha  occ. eigenvalues --   -0.45112  -0.44824  -0.44772  -0.44151  -0.43531
 Alpha  occ. eigenvalues --   -0.43287  -0.43217  -0.42947  -0.42495  -0.42167
 Alpha  occ. eigenvalues --   -0.41976  -0.41824  -0.41419  -0.41352  -0.41246
 Alpha  occ. eigenvalues --   -0.40970  -0.40778  -0.40601  -0.40397  -0.40058
 Alpha  occ. eigenvalues --   -0.39720  -0.39388  -0.39034  -0.38859  -0.38696
 Alpha  occ. eigenvalues --   -0.38254  -0.37639  -0.37203  -0.36935  -0.36774
 Alpha  occ. eigenvalues --   -0.36244  -0.36004  -0.35644  -0.35308  -0.35139
 Alpha  occ. eigenvalues --   -0.34821  -0.33859  -0.33725  -0.33649  -0.33405
 Alpha  occ. eigenvalues --   -0.33233  -0.32238  -0.31594  -0.29951  -0.29057
 Alpha  occ. eigenvalues --   -0.28839  -0.27510  -0.26443  -0.26014  -0.25647
 Alpha  occ. eigenvalues --   -0.25086  -0.24361  -0.23643  -0.23462  -0.21150
 Alpha  occ. eigenvalues --   -0.17456
 Alpha virt. eigenvalues --   -0.10535  -0.04916  -0.03963  -0.01030  -0.00446
 Alpha virt. eigenvalues --    0.00022   0.02014   0.02293   0.02888   0.03483
 Alpha virt. eigenvalues --    0.04226   0.05173   0.05412   0.05899   0.06279

 Mulliken charges:
               1
     1  O   -0.227086
     2  O   -0.182574
     3  O   -0.200965
     4  O   -0.176089
     5  O   -0.226039
     6  O   -0.172559
     7  N   -0.142000
     8  N   -0.025928
     9  N   -0.159182
    10  N   -0.240790
    11  C   -0.118386
    12  C    0.116365
    13  C   -0.119287
    14  C    0.101815
    15  C   -0.108814
    16  C    0.012680
    17  C   -0.041437
    18  C   -0.135893
    19  C    0.068871
    20  C   -0.002669
    21  C    0.115083
    22  C    0.109972
    23  C   -0.033342
    24  C    0.088391
    25  C   -0.152467
    26  C    0.039826
    27  C    0.081659
    28  C   -0.075591
    29  C    0.110602
    30  C    0.055639
    31  C   -0.113202
    32  C    0.127607
    33  C   -0.128622
    34  C    0.057178
    35  C   -0.059098
    36  C   -0.219708
    37  C    0.121022
    38  C    0.004021
    39  C    0.132634
    40  C    0.173130
    41  C    0.136272
    42  C    0.120979
    43  C   -0.021184
    44  H    0.157160
    45  H    0.019786
    46  H    0.052399
    47  H    0.013480
    48  H    0.031315
    49  H    0.031324
    50  H   -0.002215
    51  H    0.046913
    52  H    0.066625
    53  H    0.012719
    54  H    0.022096
    55  H    0.044539
    56  H    0.194953
    57  H    0.061027
    58  H    0.031967
    59  H    0.041486
    60  H   -0.045381
    61  H    0.055423
    62  H    0.043214
    63  H    0.034636
    64  H   -0.088729
    65  H    0.005418
    66  H    0.024335
    67  H   -0.004909
    68  H    0.001601
    69  H    0.082624
    70  H   -0.006748
    71  H    0.036794
    72  H   -0.031242
    73  H   -0.020645
    74  H   -0.001835
    75  H    0.015953
    76  H    0.007982
    77  H   -0.003120
    78  H    0.000425
    79  H    0.016836
    80  H    0.198276
    81  H    0.162686
 Sum of Mulliken charges =  -0.00000

 Dipole moment (field-independent basis, Debye):
    X=             -2.4080    Y=             -0.2231    Z=             -0.2697  Tot=              2.4333
 Quadrupole moment (field-independent basis, Debye-Ang):
   XX=           -245.4962   YY=           -236.6270   ZZ=           -256.9602
   XY=             15.2423   XZ=             13.4085   YZ=            -13.0615

 Normal termination of Gaussian 16 at Wed Jul  3 03:50:05 2019.
