 Gaussian 16, Revision A.03,
 Gaussian 16:  ES64L-G16RevA.03 25-Dec-2016

 --------------------------
 # td=(NStates=1) B3LYP/SVP
 --------------------------

 --
 TD
 --
 Symbolic Z-matrix:
 Charge =  0 Multiplicity = 1

                         Standard orientation:
 ---------------------------------------------------------------------
 Center     Atomic      Atomic             Coordinates (Angstroms)
 Number     Number       Type             X           Y           Z
 ---------------------------------------------------------------------
      1          8           0        4.153704   -4.762512   -1.917199
      2          8           0       -2.912471   -4.948983   -1.055751
      3          8           0       -6.959977   -1.554455   -1.912458
      4          8           0       -3.743306   -3.221843    0.142167
      5          8           0       -7.649448   -0.483427   -0.033596
      6          8           0        3.130107    2.462975    0.256576
      7          7           0        0.221209   -0.500393    0.650883
      8          7           0       -1.511456    1.745697    0.303678
      9          7           0        3.267426   -3.111659   -0.679057
     10          7           0        0.867886    2.870665    0.061394
     11          6           0       -0.627645   -2.389370    1.449743
     12          6           0       -0.977715   -1.077150    1.071893
     13          6           0        0.725961   -2.575171    1.287618
     14          6           0        1.257791   -1.367693    0.713274
     15          6           0       -3.664544    1.443627    0.326586
     16          6           0       -2.425222    0.804580    0.596923
     17          6           0       -2.211826   -0.471685    0.890798
     18          6           0       -3.476069    2.731384   -0.040378
     19          6           0       -1.624151   -3.296211    2.071400
     20          6           0        5.489150   -2.759950   -1.364735
     21          6           0        3.623162   -1.862811   -0.146167
     22          6           0       -2.122188    2.995932   -0.080881
     23          6           0        5.006698   -1.617929   -0.457481
     24          6           0       -5.000606    0.758378    0.399340
     25          6           0        2.677558   -1.003058    0.570387
     26          6           0        1.532935   -3.751183    1.851454
     27          6           0        4.239568   -3.637538   -1.325452
     28          6           0       -2.055094   -4.385394    1.016865
     29          6           0       -5.472306    0.084239   -0.999792
     30          6           0       -4.521433    3.759915   -0.495630
     31          6           0       -1.349135    4.072175   -0.337880
     32          6           0        6.852392   -3.598251   -1.075797
     33          6           0        5.804671   -0.640839   -0.082323
     34          6           0        0.068880    4.016681   -0.255983
     35          6           0        1.034671    5.181208   -0.407512
     36          6           0        2.281752    4.672729   -0.285450
     37          6           0       -2.962662   -4.161820   -0.070556
     38          6           0        5.462432    0.508120    0.745600
     39          6           0       -6.730821   -0.700503   -0.911771
     40          6           0        3.626151    5.326911   -0.339447
     41          6           0        2.172188    3.244073    0.031397
     42          6           0        0.676675    6.601097   -0.635645
     43          6           0        4.216655    5.520516    0.960033
     44          1           0        0.366757    0.431493    0.359226
     45          1           0       -3.063424   -1.134794    1.031728
     46          1           0       -2.697960   -2.836861    2.283133
     47          1           0       -1.145162   -3.678996    3.005001
     48          1           0        5.373535   -2.630720   -2.457797
     49          1           0       -5.055830   -0.105621    1.191982
     50          1           0       -5.907559    1.399637    0.543388
     51          1           0        2.868797    0.001135    0.783016
     52          1           0       -0.492851    1.882163    0.475885
     53          1           0        1.562994   -4.491648    1.231352
     54          1           0        2.619751   -3.585622    1.887363
     55          1           0        1.056406   -4.005627    2.933266
     56          1           0        2.293464   -3.279562   -0.763901
     57          1           0       -1.286596   -4.894307    0.661124
     58          1           0       -2.424484   -5.196803    1.711416
     59          1           0       -4.614688   -0.659715   -1.295769
     60          1           0       -5.781366    0.896663   -1.764533
     61          1           0       -4.510892    4.792205   -0.072329
     62          1           0       -5.489854    3.725087   -0.003168
     63          1           0       -4.591513    3.689664   -1.463830
     64          1           0       -1.650313    4.790491   -0.978155
     65          1           0        7.531816   -2.639873   -0.978369
     66          1           0        6.954188   -4.156783   -2.053058
     67          1           0        6.844841   -4.155392    0.005040
     68          1           0        6.816952   -0.737411   -0.514512
     69          1           0        4.667632    1.262495    0.294491
     70          1           0        6.345693    1.262032    1.193484
     71          1           0        5.087748    0.158467    1.720051
     72          1           0        3.635718    6.256823   -0.820631
     73          1           0        4.122187    4.664259   -1.105726
     74          1           0        0.034877    6.855051   -1.400511
     75          1           0        1.518388    7.377091   -0.757764
     76          1           0       -0.090191    6.951516    0.198814
     77          1           0        3.658151    6.134251    1.536350
     78          1           0        5.063723    6.147872    0.939974
     79          1           0        4.499928    4.636214    1.469935
     80          1           0       -3.590303   -4.580527   -1.724336
     81          1           0       -7.762120   -2.058618   -1.520432
 ---------------------------------------------------------------------

 SCF Done:  E(RB3LYP) =  -1949.07477257     A.U. after   18 cycles

 Excitation energies and oscillator strengths:

 Excited State   1:      Singlet-A      1.7889 eV  693.06 nm  f=0.3341  <S**2>=0.000
     156 ->157         0.70908
     156 <-157        -0.12458
 This state for optimization and/or second-order correction.
 Total Energy, E(TD-HF/TD-DFT) =  -1949.00903041
 Copying the excited state density for this state as the 1-particle RhoCI density.

 The electronic state is 1-A.
 Alpha  occ. eigenvalues --  -19.22860 -19.19731 -19.12989 -19.12082 -19.09619
 Alpha  occ. eigenvalues --  -19.08544 -14.38069 -14.37767 -14.35005 -14.29010
 Alpha  occ. eigenvalues --  -10.33325 -10.32545 -10.27795 -10.25718 -10.25716
 Alpha  occ. eigenvalues --  -10.24198 -10.23953 -10.23383 -10.22771 -10.22575
 Alpha  occ. eigenvalues --  -10.22532 -10.22004 -10.21730 -10.21422 -10.20969
 Alpha  occ. eigenvalues --  -10.20759 -10.20319 -10.20156 -10.20109 -10.19909
 Alpha  occ. eigenvalues --  -10.19902 -10.19830 -10.19824 -10.19752 -10.19694
 Alpha  occ. eigenvalues --  -10.19681 -10.19595 -10.18884 -10.18513 -10.18462
 Alpha  occ. eigenvalues --  -10.17934 -10.17521 -10.15103  -1.14975  -1.09689
 Alpha  occ. eigenvalues --   -1.03073  -1.01785  -0.99508  -0.99278  -0.97709
 Alpha  occ. eigenvalues --   -0.97069  -0.94450  -0.90100  -0.83241  -0.82750
 Alpha  occ. eigenvalues --   -0.82601  -0.81821  -0.80127  -0.79360  -0.78693
 Alpha  occ. eigenvalues --   -0.77161  -0.76852  -0.75902  -0.74869  -0.73181
 Alpha  occ. eigenvalues --   -0.72413  -0.70233  -0.70048  -0.69564  -0.68628
 Alpha  occ. eigenvalues --   -0.67871  -0.66197  -0.65074  -0.63373  -0.63131
 Alpha  occ. eigenvalues --   -0.61932  -0.60202  -0.59757  -0.58846  -0.58409
 Alpha  occ. eigenvalues --   -0.56709  -0.55966  -0.55116  -0.54040  -0.53743
 Alpha  occ. eigenvalues --   -0.52996  -0.52507  -0.51536  -0.51095  -0.50587
 Alpha  occ. eigenvalues --   -0.49736  -0.49509  -0.48944  -0.48642  -0.48104
 Alpha  occ. eigenvalues --   -0.47639  -0.47131  -0.47020  -0.46803  -0.46377
 Alpha  occ. eigenvalues --   -0.45673  -0.45534  -0.45088  -0.44631  -0.44170
 Alpha  occ. eigenvalues --   -0.43688  -0.43370  -0.43197  -0.43090  -0.42389
 Alpha  occ. eigenvalues --   -0.42024  -0.41599  -0.41415  -0.41159  -0.40974
 Alpha  occ. eigenvalues --   -0.40515  -0.40380  -0.40258  -0.39820  -0.39725
 Alpha  occ. eigenvalues --   -0.39497  -0.39275  -0.39117  -0.38239  -0.38200
 Alpha  occ. eigenvalues --   -0.37838  -0.37636  -0.37346  -0.36608  -0.36108
 Alpha  occ. eigenvalues --   -0.35718  -0.35115  -0.34976  -0.34577  -0.34468
 Alpha  occ. eigenvalues --   -0.34382  -0.34058  -0.33311  -0.33205  -0.32670
 Alpha  occ. eigenvalues --   -0.31983  -0.31694  -0.31127  -0.29980  -0.28649
 Alpha  occ. eigenvalues --   -0.27335  -0.27125  -0.26488  -0.25945  -0.25682
 Alpha  occ. eigenvalues --   -0.25512  -0.24245  -0.23764  -0.23021  -0.21968
 Alpha  occ. eigenvalues --   -0.18223
 Alpha virt. eigenvalues --   -0.11114  -0.06356  -0.04528  -0.01667  -0.01450
 Alpha virt. eigenvalues --    0.00679   0.01214   0.02236   0.03611   0.03896
 Alpha virt. eigenvalues --    0.04368   0.04908   0.05103   0.05502   0.05767

 Mulliken charges:
               1
     1  O   -0.294515
     2  O   -0.097872
     3  O   -0.185647
     4  O   -0.292338
     5  O   -0.318228
     6  O   -0.259542
     7  N   -0.044648
     8  N   -0.155132
     9  N    0.041939
    10  N   -0.333049
    11  C   -0.085021
    12  C    0.056706
    13  C   -0.184598
    14  C    0.000332
    15  C   -0.035587
    16  C    0.150873
    17  C   -0.075123
    18  C   -0.107091
    19  C    0.074736
    20  C   -0.066740
    21  C    0.025644
    22  C    0.117295
    23  C    0.018390
    24  C    0.025721
    25  C   -0.027260
    26  C    0.166309
    27  C    0.020329
    28  C    0.064825
    29  C   -0.036494
    30  C    0.148898
    31  C   -0.056909
    32  C    0.006817
    33  C   -0.113465
    34  C    0.053808
    35  C   -0.061294
    36  C   -0.201640
    37  C    0.108065
    38  C   -0.039378
    39  C    0.154658
    40  C    0.131550
    41  C    0.157226
    42  C    0.086934
    43  C    0.123444
    44  H    0.105558
    45  H    0.002392
    46  H    0.043226
    47  H    0.014931
    48  H    0.048434
    49  H    0.044373
    50  H    0.026803
    51  H   -0.008886
    52  H    0.151502
    53  H   -0.035302
    54  H    0.011197
    55  H    0.045110
    56  H    0.125407
    57  H   -0.046974
    58  H    0.041269
    59  H    0.056562
    60  H    0.066586
    61  H    0.013307
    62  H   -0.001943
    63  H   -0.005463
    64  H   -0.039456
    65  H    0.030495
    66  H    0.062414
    67  H    0.058053
    68  H   -0.005989
    69  H    0.124310
    70  H    0.017441
    71  H    0.025982
    72  H   -0.047863
    73  H    0.010594
    74  H   -0.016431
    75  H    0.031009
    76  H    0.016085
    77  H   -0.036342
    78  H   -0.029544
    79  H    0.015426
    80  H    0.215849
    81  H    0.206951
 Sum of Mulliken charges =  -0.00000

 Dipole moment (field-independent basis, Debye):
    X=             -2.8990    Y=              0.5183    Z=             -0.7935  Tot=              3.0500
 Quadrupole moment (field-independent basis, Debye-Ang):
   XX=           -262.6926   YY=           -237.2674   ZZ=           -252.7660
   XY=             18.1669   XZ=             17.1735   YZ=            -13.5929

 Normal termination of Gaussian 16 at Fri Jun 28 11:25:11 2019.
