 Gaussian 16, Revision A.03,
 Gaussian 16:  ES64L-G16RevA.03 25-Dec-2016

 --------------------------
 # td=(NStates=1) B3LYP/SVP
 --------------------------

 --
 TD
 --
 Symbolic Z-matrix:
 Charge =  0 Multiplicity = 1

                         Standard orientation:
 ---------------------------------------------------------------------
 Center     Atomic      Atomic             Coordinates (Angstroms)
 Number     Number       Type             X           Y           Z
 ---------------------------------------------------------------------
      1          8           0        4.378502   -4.787070   -1.923415
      2          8           0       -2.950563   -4.663088   -1.331697
      3          8           0       -7.044795   -1.580028   -1.800006
      4          8           0       -3.618743   -3.080941    0.143401
      5          8           0       -7.388995   -0.845385    0.263806
      6          8           0        2.971978    2.486276    0.428711
      7          7           0        0.216111   -0.523869    0.579978
      8          7           0       -1.539032    1.727506    0.285749
      9          7           0        3.407680   -3.083896   -0.605253
     10          7           0        0.697332    2.867727   -0.081725
     11          6           0       -0.550143   -2.458454    1.368759
     12          6           0       -0.940342   -1.167008    1.046281
     13          6           0        0.837706   -2.630417    1.238879
     14          6           0        1.418066   -1.390982    0.632879
     15          6           0       -3.859259    1.398981    0.271025
     16          6           0       -2.447806    0.797322    0.526671
     17          6           0       -2.194093   -0.486669    0.922844
     18          6           0       -3.579823    2.750170    0.015363
     19          6           0       -1.571988   -3.423110    1.935204
     20          6           0        5.657969   -2.666816   -1.202581
     21          6           0        3.668091   -1.744057   -0.287373
     22          6           0       -2.260354    2.940585    0.030588
     23          6           0        5.124549   -1.407259   -0.451363
     24          6           0       -5.106775    0.703814    0.368223
     25          6           0        2.617204   -0.935694    0.186372
     26          6           0        1.639696   -3.850117    1.656680
     27          6           0        4.425076   -3.704639   -1.308771
     28          6           0       -1.968619   -4.590266    0.917187
     29          6           0       -5.367975   -0.188690   -0.812900
     30          6           0       -4.679212    3.780740   -0.387455
     31          6           0       -1.438579    4.047489   -0.279478
     32          6           0        6.929022   -3.381407   -0.553602
     33          6           0        5.844236   -0.321083   -0.152708
     34          6           0        0.037686    4.007531   -0.322146
     35          6           0        0.953705    5.131751   -0.560323
     36          6           0        2.256231    4.699622   -0.169714
     37          6           0       -2.928169   -4.021088   -0.164103
     38          6           0        5.382500    0.872667    0.567517
     39          6           0       -6.731270   -0.848146   -0.694791
     40          6           0        3.452821    5.371481   -0.207171
     41          6           0        2.026968    3.181460    0.124879
     42          6           0        0.455047    6.536123   -0.935376
     43          6           0        4.170006    5.489041    1.172835
     44          1           0        0.141330    0.421945    0.169564
     45          1           0       -3.071181   -1.062247    0.727496
     46          1           0       -2.468691   -2.971922    2.308811
     47          1           0       -1.313588   -3.979983    2.949286
     48          1           0        5.880398   -2.375058   -2.166059
     49          1           0       -5.208529    0.079978    1.180485
     50          1           0       -6.022191    1.269574    0.485731
     51          1           0        2.936901    0.103214    0.263347
     52          1           0       -0.576955    1.760730    0.334180
     53          1           0        1.531743   -4.881757    1.135667
     54          1           0        2.621098   -3.427702    1.890881
     55          1           0        1.230434   -4.123927    2.580257
     56          1           0        2.278176   -3.189071   -0.734822
     57          1           0       -1.002167   -4.954033    0.561692
     58          1           0       -2.281922   -5.528824    1.478012
     59          1           0       -4.529209   -0.843531   -0.792530
     60          1           0       -5.303683    0.342432   -1.743815
     61          1           0       -4.653206    4.469914    0.393815
     62          1           0       -5.658605    3.101074   -0.658292
     63          1           0       -4.314388    4.250883   -1.493373
     64          1           0       -1.985999    4.898792   -0.560062
     65          1           0        7.708602   -2.633543   -0.647775
     66          1           0        7.085191   -4.247381   -1.117265
     67          1           0        6.790709   -3.511903    0.494880
     68          1           0        6.962251   -0.398220   -0.427056
     69          1           0        4.676836    1.534601    0.015398
     70          1           0        6.313081    1.440763    0.910533
     71          1           0        4.836476    0.501483    1.510270
     72          1           0        3.327006    6.348994   -0.610317
     73          1           0        4.068719    4.603201   -0.825814
     74          1           0       -0.085786    6.464978   -2.017199
     75          1           0        1.201466    7.280156   -1.024620
     76          1           0       -0.262298    6.851832   -0.254149
     77          1           0        3.527765    6.119322    1.681840
     78          1           0        5.142794    6.116446    1.242256
     79          1           0        4.041596    4.495887    1.617895
     80          1           0       -3.700057   -4.291651   -1.819707
     81          1           0       -7.750864   -2.143072   -1.491058
 ---------------------------------------------------------------------

 SCF Done:  E(RB3LYP) =  -1949.12900652     A.U. after   17 cycles

 Excitation energies and oscillator strengths:

 Excited State   1:      Singlet-A      1.5369 eV  806.74 nm  f=0.2965  <S**2>=0.000
     156 ->157         0.71488
     156 <-157        -0.13843
 This state for optimization and/or second-order correction.
 Total Energy, E(TD-HF/TD-DFT) =  -1949.07252823
 Copying the excited state density for this state as the 1-particle RhoCI density.

 The electronic state is 1-A.
 Alpha  occ. eigenvalues --  -19.20785 -19.18352 -19.14562 -19.14112 -19.11121
 Alpha  occ. eigenvalues --  -19.11063 -14.37564 -14.36575 -14.35267 -14.29107
 Alpha  occ. eigenvalues --  -10.34100 -10.32454 -10.29532 -10.27179 -10.24396
 Alpha  occ. eigenvalues --  -10.24149 -10.23858 -10.23689 -10.23644 -10.22748
 Alpha  occ. eigenvalues --  -10.22637 -10.21977 -10.21794 -10.20723 -10.20629
 Alpha  occ. eigenvalues --  -10.20264 -10.20174 -10.20071 -10.19968 -10.19910
 Alpha  occ. eigenvalues --  -10.19891 -10.19842 -10.19571 -10.19381 -10.19292
 Alpha  occ. eigenvalues --  -10.19164 -10.19144 -10.18952 -10.18644 -10.18435
 Alpha  occ. eigenvalues --  -10.17957 -10.17802 -10.17690  -1.12322  -1.11956
 Alpha  occ. eigenvalues --   -1.03312  -1.03132  -1.02561  -1.01363  -0.98765
 Alpha  occ. eigenvalues --   -0.94924  -0.94076  -0.92103  -0.84037  -0.81817
 Alpha  occ. eigenvalues --   -0.80930  -0.80796  -0.80548  -0.79587  -0.77772
 Alpha  occ. eigenvalues --   -0.76398  -0.75739  -0.75024  -0.74008  -0.71908
 Alpha  occ. eigenvalues --   -0.71009  -0.69736  -0.69243  -0.68264  -0.67610
 Alpha  occ. eigenvalues --   -0.67101  -0.65464  -0.63631  -0.62747  -0.61999
 Alpha  occ. eigenvalues --   -0.61227  -0.60365  -0.59370  -0.58439  -0.57637
 Alpha  occ. eigenvalues --   -0.56842  -0.55486  -0.53733  -0.53585  -0.52707
 Alpha  occ. eigenvalues --   -0.51988  -0.51863  -0.51497  -0.51357  -0.50542
 Alpha  occ. eigenvalues --   -0.50374  -0.49336  -0.48596  -0.48286  -0.47934
 Alpha  occ. eigenvalues --   -0.47126  -0.46592  -0.46241  -0.46085  -0.45340
 Alpha  occ. eigenvalues --   -0.45308  -0.44844  -0.44270  -0.44144  -0.43577
 Alpha  occ. eigenvalues --   -0.43349  -0.43184  -0.42839  -0.42742  -0.42221
 Alpha  occ. eigenvalues --   -0.41985  -0.41733  -0.41627  -0.41196  -0.40934
 Alpha  occ. eigenvalues --   -0.40654  -0.40559  -0.40250  -0.39724  -0.39599
 Alpha  occ. eigenvalues --   -0.39463  -0.39284  -0.38836  -0.38460  -0.37963
 Alpha  occ. eigenvalues --   -0.37670  -0.37226  -0.36967  -0.36942  -0.36704
 Alpha  occ. eigenvalues --   -0.36465  -0.36039  -0.35865  -0.35527  -0.34855
 Alpha  occ. eigenvalues --   -0.34691  -0.34498  -0.34249  -0.33916  -0.33603
 Alpha  occ. eigenvalues --   -0.33431  -0.33053  -0.32254  -0.30147  -0.29986
 Alpha  occ. eigenvalues --   -0.29911  -0.28495  -0.27110  -0.26035  -0.25312
 Alpha  occ. eigenvalues --   -0.24970  -0.24601  -0.24099  -0.22121  -0.21583
 Alpha  occ. eigenvalues --   -0.17174
 Alpha virt. eigenvalues --   -0.11030  -0.06013  -0.04594  -0.01742   0.00006
 Alpha virt. eigenvalues --    0.00040   0.01826   0.02977   0.03232   0.03772
 Alpha virt. eigenvalues --    0.04566   0.05106   0.05238   0.05889   0.06131

 Mulliken charges:
               1
     1  O   -0.237131
     2  O   -0.143329
     3  O   -0.185725
     4  O   -0.224866
     5  O   -0.174766
     6  O   -0.211834
     7  N   -0.179124
     8  N   -0.040161
     9  N   -0.156766
    10  N   -0.298583
    11  C   -0.039579
    12  C    0.089919
    13  C   -0.209663
    14  C    0.162106
    15  C   -0.043990
    16  C    0.013297
    17  C   -0.015100
    18  C   -0.141152
    19  C    0.040496
    20  C   -0.114277
    21  C   -0.025518
    22  C    0.118350
    23  C    0.067882
    24  C    0.122320
    25  C   -0.098636
    26  C    0.127863
    27  C    0.174413
    28  C   -0.018611
    29  C    0.000115
    30  C    0.043046
    31  C   -0.094914
    32  C    0.100485
    33  C   -0.187353
    34  C    0.099329
    35  C   -0.121760
    36  C   -0.180893
    37  C    0.162253
    38  C    0.030597
    39  C    0.130663
    40  C    0.061863
    41  C    0.175627
    42  C    0.115793
    43  C    0.013768
    44  H    0.121862
    45  H    0.002820
    46  H    0.005330
    47  H    0.009503
    48  H    0.017035
    49  H   -0.007142
    50  H   -0.005460
    51  H   -0.001726
    52  H    0.083417
    53  H    0.047996
    54  H    0.028928
    55  H   -0.018476
    56  H    0.192404
    57  H    0.014229
    58  H    0.046571
    59  H    0.022470
    60  H    0.010736
    61  H    0.035710
    62  H    0.056415
    63  H    0.053161
    64  H   -0.061403
    65  H    0.005603
    66  H    0.025677
    67  H    0.008598
    68  H    0.007315
    69  H    0.090691
    70  H    0.011753
    71  H    0.042336
    72  H   -0.013713
    73  H    0.037314
    74  H    0.027333
    75  H   -0.001894
    76  H    0.012883
    77  H   -0.025054
    78  H    0.027162
    79  H    0.035570
    80  H    0.183778
    81  H    0.163810
 Sum of Mulliken charges =  -0.00000

 Dipole moment (field-independent basis, Debye):
    X=             -3.8738    Y=              1.3640    Z=             -0.4837  Tot=              4.1353
 Quadrupole moment (field-independent basis, Debye-Ang):
   XX=           -244.0355   YY=           -239.8972   ZZ=           -258.5979
   XY=             20.1777   XZ=             15.7290   YZ=            -12.2633

 Normal termination of Gaussian 16 at Sun Jun 30 12:26:35 2019.
