 Gaussian 16, Revision A.03,
 Gaussian 16:  ES64L-G16RevA.03 25-Dec-2016

 --------------------------
 # td=(NStates=1) B3LYP/SVP
 --------------------------

 --
 TD
 --
 Symbolic Z-matrix:
 Charge =  0 Multiplicity = 1

                         Standard orientation:
 ---------------------------------------------------------------------
 Center     Atomic      Atomic             Coordinates (Angstroms)
 Number     Number       Type             X           Y           Z
 ---------------------------------------------------------------------
      1          8           0        4.336950   -4.947669   -1.627098
      2          8           0       -2.785133   -4.910072   -1.203671
      3          8           0       -6.830415   -1.750904   -1.849700
      4          8           0       -3.819871   -3.207648   -0.097028
      5          8           0       -7.623201   -0.306205   -0.269808
      6          8           0        2.986478    2.384273    0.414377
      7          7           0        0.290584   -0.536062    0.693024
      8          7           0       -1.565116    1.879524    0.445637
      9          7           0        3.183047   -3.112600   -0.629459
     10          7           0        0.788654    2.851217    0.181177
     11          6           0       -0.637150   -2.438891    1.476138
     12          6           0       -0.991666   -1.039726    1.086267
     13          6           0        0.758819   -2.572815    1.276551
     14          6           0        1.302706   -1.333317    0.759218
     15          6           0       -3.796944    1.489681    0.333289
     16          6           0       -2.508747    0.868649    0.615856
     17          6           0       -2.207417   -0.425233    1.051602
     18          6           0       -3.493283    2.765348   -0.106074
     19          6           0       -1.658781   -3.419654    1.986765
     20          6           0        5.494077   -2.707989   -1.471442
     21          6           0        3.508267   -1.815562   -0.175989
     22          6           0       -2.117610    3.045604    0.061989
     23          6           0        4.920115   -1.528352   -0.546690
     24          6           0       -5.119786    0.798524    0.357746
     25          6           0        2.579191   -0.986935    0.433417
     26          6           0        1.446932   -3.896055    1.742810
     27          6           0        4.285760   -3.802001   -1.266053
     28          6           0       -2.061845   -4.479630    0.960924
     29          6           0       -5.244312   -0.265238   -0.711340
     30          6           0       -4.570638    3.799396   -0.538660
     31          6           0       -1.323787    4.120685   -0.153390
     32          6           0        6.819056   -3.352863   -1.042501
     33          6           0        5.719656   -0.532796   -0.156374
     34          6           0        0.063260    4.038437   -0.143824
     35          6           0        1.048436    5.149369   -0.475796
     36          6           0        2.264874    4.702610   -0.326376
     37          6           0       -2.901111   -4.138128   -0.128763
     38          6           0        5.556744    0.439522    0.812048
     39          6           0       -6.644302   -0.716697   -0.904012
     40          6           0        3.608855    5.385805   -0.418909
     41          6           0        2.186745    3.273023    0.124580
     42          6           0        0.671768    6.571931   -1.024463
     43          6           0        4.168260    5.844223    0.923440
     44          1           0        0.463659    0.412211    0.323744
     45          1           0       -3.028237   -0.931097    1.216460
     46          1           0       -2.532778   -2.917533    2.419120
     47          1           0       -1.230388   -3.796496    2.860196
     48          1           0        5.457953   -2.488969   -2.408187
     49          1           0       -5.163800    0.196114    1.538496
     50          1           0       -6.064969    1.615018    0.364863
     51          1           0        2.890089    0.009562    0.551414
     52          1           0       -0.549181    1.832513    0.703263
     53          1           0        1.379726   -4.633425    0.965259
     54          1           0        2.564449   -3.801880    2.036797
     55          1           0        0.982181   -4.321424    2.627027
     56          1           0        2.416254   -3.711418   -0.486883
     57          1           0       -1.014207   -5.005383    0.764860
     58          1           0       -2.722104   -5.081276    1.666338
     59          1           0       -4.601827   -1.042240   -0.446120
     60          1           0       -4.932053    0.005932   -1.832260
     61          1           0       -4.704416    4.756230    0.129782
     62          1           0       -5.672848    3.408144   -0.643661
     63          1           0       -4.324347    4.356612   -1.498556
     64          1           0       -1.996302    5.061028   -0.181696
     65          1           0        7.673308   -2.643269   -1.302145
     66          1           0        7.173335   -4.222950   -1.604412
     67          1           0        7.207697   -3.637592   -0.035651
     68          1           0        6.807420   -0.960050   -0.544051
     69          1           0        4.760130    1.239656    0.304660
     70          1           0        6.406069    1.003542    1.377241
     71          1           0        4.789669    0.190183    1.669386
     72          1           0        3.708100    6.212270   -1.001122
     73          1           0        4.338371    4.487317   -0.748679
     74          1           0       -0.082532    6.244167   -1.901546
     75          1           0        1.542519    7.118634   -1.295264
     76          1           0        0.128737    7.063451   -0.164594
     77          1           0        3.660920    6.696537    1.174378
     78          1           0        5.327843    6.186892    0.823322
     79          1           0        4.260927    4.934764    1.803420
     80          1           0       -3.347055   -4.591322   -1.842793
     81          1           0       -7.727809   -1.958747   -1.623535
 ---------------------------------------------------------------------

 SCF Done:  E(RB3LYP) =  -1949.06658223     A.U. after   16 cycles

 Excitation energies and oscillator strengths:

 Excited State   1:      Singlet-A      1.8096 eV  685.14 nm  f=0.3411  <S**2>=0.000
     156 ->157         0.70861
     156 <-157        -0.12542
 This state for optimization and/or second-order correction.
 Total Energy, E(TD-HF/TD-DFT) =  -1949.00007961
 Copying the excited state density for this state as the 1-particle RhoCI density.

 The electronic state is 1-A.
 Alpha  occ. eigenvalues --  -19.20591 -19.17031 -19.13561 -19.12847 -19.12752
 Alpha  occ. eigenvalues --  -19.10418 -14.38280 -14.37486 -14.35037 -14.28546
 Alpha  occ. eigenvalues --  -10.34581 -10.31979 -10.30303 -10.26633 -10.25820
 Alpha  occ. eigenvalues --  -10.23995 -10.23673 -10.23548 -10.22940 -10.22733
 Alpha  occ. eigenvalues --  -10.22599 -10.22363 -10.21361 -10.21142 -10.21040
 Alpha  occ. eigenvalues --  -10.21023 -10.20853 -10.20800 -10.20785 -10.20740
 Alpha  occ. eigenvalues --  -10.20547 -10.20453 -10.20401 -10.20146 -10.19944
 Alpha  occ. eigenvalues --  -10.19704 -10.19648 -10.19599 -10.19485 -10.19195
 Alpha  occ. eigenvalues --  -10.18549 -10.18481 -10.18408  -1.12615  -1.07867
 Alpha  occ. eigenvalues --   -1.04599  -1.00767  -0.99722  -0.98956  -0.98421
 Alpha  occ. eigenvalues --   -0.97705  -0.94628  -0.88584  -0.83906  -0.82438
 Alpha  occ. eigenvalues --   -0.82079  -0.81359  -0.79646  -0.79006  -0.78773
 Alpha  occ. eigenvalues --   -0.77145  -0.76679  -0.75809  -0.74518  -0.73091
 Alpha  occ. eigenvalues --   -0.71339  -0.70106  -0.69997  -0.68690  -0.67721
 Alpha  occ. eigenvalues --   -0.66760  -0.65252  -0.64567  -0.63552  -0.62745
 Alpha  occ. eigenvalues --   -0.60890  -0.59424  -0.58611  -0.57858  -0.57208
 Alpha  occ. eigenvalues --   -0.56568  -0.55700  -0.54292  -0.54071  -0.53591
 Alpha  occ. eigenvalues --   -0.52438  -0.51772  -0.50735  -0.50251  -0.50067
 Alpha  occ. eigenvalues --   -0.49703  -0.49039  -0.48506  -0.47998  -0.47523
 Alpha  occ. eigenvalues --   -0.47197  -0.46552  -0.46419  -0.46036  -0.45660
 Alpha  occ. eigenvalues --   -0.45173  -0.44885  -0.44293  -0.44162  -0.43874
 Alpha  occ. eigenvalues --   -0.43520  -0.43303  -0.42914  -0.42693  -0.42434
 Alpha  occ. eigenvalues --   -0.42259  -0.41699  -0.41466  -0.40958  -0.40794
 Alpha  occ. eigenvalues --   -0.40717  -0.40586  -0.40108  -0.39874  -0.39675
 Alpha  occ. eigenvalues --   -0.39582  -0.39139  -0.38815  -0.38575  -0.38102
 Alpha  occ. eigenvalues --   -0.37783  -0.37564  -0.37171  -0.36795  -0.36683
 Alpha  occ. eigenvalues --   -0.36373  -0.35931  -0.35474  -0.35166  -0.34857
 Alpha  occ. eigenvalues --   -0.34585  -0.34098  -0.33159  -0.32499  -0.32223
 Alpha  occ. eigenvalues --   -0.32130  -0.32051  -0.31517  -0.30582  -0.28958
 Alpha  occ. eigenvalues --   -0.27978  -0.27165  -0.26565  -0.26389  -0.25770
 Alpha  occ. eigenvalues --   -0.25296  -0.24668  -0.24175  -0.23431  -0.21589
 Alpha  occ. eigenvalues --   -0.17350
 Alpha virt. eigenvalues --   -0.10144  -0.05562  -0.04057  -0.03816  -0.00583
 Alpha virt. eigenvalues --   -0.00055   0.01922   0.02602   0.03910   0.04061
 Alpha virt. eigenvalues --    0.04301   0.04874   0.05373   0.05537   0.05967

 Mulliken charges:
               1
     1  O   -0.187067
     2  O   -0.097487
     3  O   -0.209780
     4  O   -0.316166
     5  O   -0.252964
     6  O   -0.213824
     7  N   -0.043746
     8  N   -0.093290
     9  N   -0.156924
    10  N   -0.392291
    11  C   -0.118143
    12  C    0.115316
    13  C   -0.186571
    14  C    0.118357
    15  C   -0.019451
    16  C    0.006853
    17  C    0.061313
    18  C   -0.082486
    19  C    0.141725
    20  C    0.057077
    21  C    0.146661
    22  C    0.066681
    23  C   -0.072169
    24  C   -0.069728
    25  C   -0.110479
    26  C    0.051540
    27  C    0.124611
    28  C    0.018281
    29  C    0.063701
    30  C   -0.009206
    31  C   -0.156309
    32  C    0.005540
    33  C   -0.080268
    34  C    0.142043
    35  C   -0.129312
    36  C   -0.153982
    37  C    0.151985
    38  C   -0.065225
    39  C    0.150979
    40  C    0.102232
    41  C    0.179472
    42  C    0.092641
    43  C   -0.052120
    44  H    0.136450
    45  H   -0.102844
    46  H    0.005057
    47  H   -0.016771
    48  H   -0.014741
    49  H    0.046901
    50  H    0.066854
    51  H   -0.037776
    52  H    0.147105
    53  H    0.023563
    54  H    0.042766
    55  H    0.013101
    56  H    0.111086
    57  H    0.058043
    58  H    0.070928
    59  H    0.029778
    60  H    0.057376
    61  H    0.028388
    62  H    0.034486
    63  H    0.019229
    64  H   -0.004443
    65  H    0.007076
    66  H    0.018477
    67  H    0.021185
    68  H    0.020038
    69  H    0.109743
    70  H    0.046560
    71  H    0.044060
    72  H   -0.028562
    73  H    0.027298
    74  H    0.056190
    75  H    0.012821
    76  H    0.037665
    77  H   -0.005523
    78  H    0.020680
    79  H    0.051337
    80  H    0.158719
    81  H    0.159681
 Sum of Mulliken charges =  -0.00000

 Dipole moment (field-independent basis, Debye):
    X=              0.2242    Y=             -0.9747    Z=              0.3959  Tot=              1.0757
 Quadrupole moment (field-independent basis, Debye-Ang):
   XX=           -264.1940   YY=           -234.7880   ZZ=           -252.1237
   XY=             14.5968   XZ=              6.3986   YZ=            -14.1972

 Normal termination of Gaussian 16 at Fri Jun 28 15:59:26 2019.
