 Gaussian 16, Revision A.03,
 Gaussian 16:  ES64L-G16RevA.03 25-Dec-2016

 --------------------------
 # td=(NStates=1) B3LYP/SVP
 --------------------------

 --
 TD
 --
 Symbolic Z-matrix:
 Charge =  0 Multiplicity = 1

                         Standard orientation:
 ---------------------------------------------------------------------
 Center     Atomic      Atomic             Coordinates (Angstroms)
 Number     Number       Type             X           Y           Z
 ---------------------------------------------------------------------
      1          8           0        4.521046   -4.866464   -1.675469
      2          8           0       -2.678210   -5.187329   -0.924287
      3          8           0       -6.843667   -2.134901   -1.611232
      4          8           0       -3.454259   -3.235890    0.030117
      5          8           0       -7.713038   -0.598129   -0.039858
      6          8           0        2.922257    2.581977    0.459592
      7          7           0        0.355682   -0.487850    0.387047
      8          7           0       -1.617832    1.770513    0.157123
      9          7           0        3.442587   -3.015942   -0.673670
     10          7           0        0.640312    2.950570   -0.007512
     11          6           0       -0.498453   -2.365906    1.403405
     12          6           0       -0.850715   -1.125040    0.811385
     13          6           0        0.897421   -2.544862    1.283579
     14          6           0        1.370184   -1.308642    0.680489
     15          6           0       -3.871050    1.302549    0.145002
     16          6           0       -2.570125    0.820695    0.501897
     17          6           0       -2.204695   -0.460972    0.829389
     18          6           0       -3.758929    2.589945   -0.273783
     19          6           0       -1.406204   -3.337123    2.042403
     20          6           0        5.605873   -2.619555   -1.298274
     21          6           0        3.670103   -1.798592   -0.233843
     22          6           0       -2.276136    2.947720   -0.226460
     23          6           0        5.067584   -1.465451   -0.586552
     24          6           0       -5.210614    0.647177    0.368599
     25          6           0        2.720798   -0.925877    0.353946
     26          6           0        1.684230   -3.622155    1.921821
     27          6           0        4.555874   -3.680578   -1.268599
     28          6           0       -1.814758   -4.638713    1.183114
     29          6           0       -5.374855   -0.447850   -0.798831
     30          6           0       -4.713994    3.715851   -0.536273
     31          6           0       -1.520389    4.076537   -0.397968
     32          6           0        6.960167   -3.158430   -0.819295
     33          6           0        5.846461   -0.348506   -0.285253
     34          6           0       -0.059349    4.048110   -0.278910
     35          6           0        0.767286    5.310057   -0.454852
     36          6           0        2.026353    4.806839   -0.162552
     37          6           0       -2.662619   -4.273672    0.014684
     38          6           0        5.500060    0.963588    0.384707
     39          6           0       -6.841571   -1.011786   -0.783399
     40          6           0        3.362069    5.502953   -0.109002
     41          6           0        1.969679    3.379335    0.121286
     42          6           0        0.274590    6.651399   -0.828136
     43          6           0        3.937216    5.667648    1.383424
     44          1           0        0.384644    0.410354    0.077330
     45          1           0       -2.990962   -1.218245    1.015048
     46          1           0       -2.456843   -2.765348    2.087870
     47          1           0       -1.068238   -3.672726    3.006805
     48          1           0        5.760152   -2.348665   -2.385207
     49          1           0       -5.293248    0.003511    1.286213
     50          1           0       -6.018699    1.294351    0.331755
     51          1           0        2.983856    0.145522    0.431594
     52          1           0       -0.598114    1.583742    0.448631
     53          1           0        1.601867   -4.490674    1.183135
     54          1           0        2.786103   -3.346586    1.801244
     55          1           0        1.531231   -3.966237    3.004594
     56          1           0        2.605078   -3.528427   -0.915893
     57          1           0       -0.927360   -4.961653    0.700722
     58          1           0       -2.548126   -5.287487    1.822367
     59          1           0       -4.588839   -1.250958   -0.440150
     60          1           0       -4.899248   -0.084455   -1.860979
     61          1           0       -4.418083    4.885178   -0.246608
     62          1           0       -5.768623    3.609351    0.083938
     63          1           0       -4.929135    3.940033   -1.679647
     64          1           0       -1.889012    5.042771   -0.582505
     65          1           0        7.864911   -2.657387   -1.281286
     66          1           0        7.060841   -4.229324   -1.478497
     67          1           0        7.141804   -3.192903    0.193881
     68          1           0        6.786169   -0.311290   -0.746598
     69          1           0        4.789751    1.552033   -0.004616
     70          1           0        6.320334    1.520357    0.666969
     71          1           0        5.157098    0.890535    1.460628
     72          1           0        3.140170    6.579448   -0.536419
     73          1           0        3.936782    5.051950   -0.883490
     74          1           0       -0.117554    6.561112   -1.833508
     75          1           0        1.132993    7.264570   -0.580359
     76          1           0       -0.661697    6.703747   -0.206879
     77          1           0        3.131671    6.127293    2.067100
     78          1           0        4.987874    6.072051    1.451586
     79          1           0        4.099092    4.644012    1.917459
     80          1           0       -3.464830   -4.785216   -1.345683
     81          1           0       -7.831030   -2.559651   -1.505246
 ---------------------------------------------------------------------

 SCF Done:  E(RB3LYP) =  -1949.11103457     A.U. after   18 cycles

 Excitation energies and oscillator strengths:

 Excited State   1:      Singlet-A      1.6706 eV  742.14 nm  f=0.2471  <S**2>=0.000
     156 ->157         0.70661
     156 <-157        -0.10328
 This state for optimization and/or second-order correction.
 Total Energy, E(TD-HF/TD-DFT) =  -1949.04963962
 Copying the excited state density for this state as the 1-particle RhoCI density.

 The electronic state is 1-A.
 Alpha  occ. eigenvalues --  -19.22167 -19.19298 -19.14182 -19.14102 -19.12368
 Alpha  occ. eigenvalues --  -19.10294 -14.37520 -14.37492 -14.35963 -14.28843
 Alpha  occ. eigenvalues --  -10.34280 -10.33048 -10.30060 -10.26366 -10.24613
 Alpha  occ. eigenvalues --  -10.24373 -10.23245 -10.23178 -10.23099 -10.22797
 Alpha  occ. eigenvalues --  -10.22655 -10.22540 -10.21692 -10.21186 -10.21055
 Alpha  occ. eigenvalues --  -10.20967 -10.20940 -10.20689 -10.20410 -10.20386
 Alpha  occ. eigenvalues --  -10.20289 -10.20165 -10.19850 -10.19804 -10.19780
 Alpha  occ. eigenvalues --  -10.19649 -10.19387 -10.19374 -10.19071 -10.18719
 Alpha  occ. eigenvalues --  -10.18524 -10.18344 -10.15757  -1.13976  -1.07511
 Alpha  occ. eigenvalues --   -1.02981  -1.00462  -0.99002  -0.98516  -0.98263
 Alpha  occ. eigenvalues --   -0.96716  -0.96501  -0.91239  -0.82475  -0.82272
 Alpha  occ. eigenvalues --   -0.81664  -0.80202  -0.79711  -0.78554  -0.77694
 Alpha  occ. eigenvalues --   -0.76065  -0.75499  -0.74769  -0.73606  -0.71972
 Alpha  occ. eigenvalues --   -0.70321  -0.69573  -0.69149  -0.68646  -0.67375
 Alpha  occ. eigenvalues --   -0.66111  -0.65492  -0.64707  -0.62741  -0.61486
 Alpha  occ. eigenvalues --   -0.60563  -0.58809  -0.57847  -0.57608  -0.57242
 Alpha  occ. eigenvalues --   -0.56192  -0.55209  -0.54793  -0.54279  -0.53427
 Alpha  occ. eigenvalues --   -0.52779  -0.52327  -0.51244  -0.50924  -0.49554
 Alpha  occ. eigenvalues --   -0.49236  -0.48534  -0.48475  -0.47958  -0.47734
 Alpha  occ. eigenvalues --   -0.46878  -0.45884  -0.45511  -0.45326  -0.44938
 Alpha  occ. eigenvalues --   -0.44777  -0.44190  -0.44046  -0.44014  -0.43901
 Alpha  occ. eigenvalues --   -0.43514  -0.43312  -0.42781  -0.42593  -0.42072
 Alpha  occ. eigenvalues --   -0.41981  -0.41380  -0.41043  -0.40718  -0.40604
 Alpha  occ. eigenvalues --   -0.40154  -0.39881  -0.39832  -0.39516  -0.39396
 Alpha  occ. eigenvalues --   -0.39123  -0.38718  -0.38678  -0.38448  -0.38332
 Alpha  occ. eigenvalues --   -0.37707  -0.37457  -0.37048  -0.36669  -0.36279
 Alpha  occ. eigenvalues --   -0.36064  -0.35956  -0.35287  -0.34551  -0.33961
 Alpha  occ. eigenvalues --   -0.33441  -0.33279  -0.33162  -0.33058  -0.32841
 Alpha  occ. eigenvalues --   -0.32599  -0.32503  -0.31724  -0.29320  -0.29211
 Alpha  occ. eigenvalues --   -0.28781  -0.27357  -0.27185  -0.25964  -0.25469
 Alpha  occ. eigenvalues --   -0.25278  -0.24315  -0.24034  -0.23127  -0.21002
 Alpha  occ. eigenvalues --   -0.17150
 Alpha virt. eigenvalues --   -0.10196  -0.06093  -0.04320  -0.03305  -0.01883
 Alpha virt. eigenvalues --   -0.01037   0.01805   0.02261   0.03196   0.03528
 Alpha virt. eigenvalues --    0.04051   0.04209   0.04921   0.05282   0.06090

 Mulliken charges:
               1
     1  O   -0.234403
     2  O   -0.110473
     3  O   -0.258752
     4  O   -0.327464
     5  O   -0.220405
     6  O   -0.266033
     7  N   -0.006146
     8  N   -0.150294
     9  N   -0.085104
    10  N   -0.271016
    11  C   -0.099458
    12  C    0.007847
    13  C   -0.160693
    14  C    0.050297
    15  C   -0.098986
    16  C    0.100710
    17  C   -0.059354
    18  C   -0.025032
    19  C    0.067268
    20  C   -0.047541
    21  C    0.071459
    22  C    0.177327
    23  C   -0.034117
    24  C    0.162999
    25  C   -0.108617
    26  C    0.056492
    27  C    0.138135
    28  C    0.057056
    29  C   -0.181653
    30  C   -0.074345
    31  C   -0.120992
    32  C    0.021055
    33  C   -0.113299
    34  C    0.026980
    35  C   -0.135276
    36  C   -0.205716
    37  C    0.121697
    38  C    0.145211
    39  C    0.217682
    40  C    0.088239
    41  C    0.186925
    42  C    0.155056
    43  C   -0.047539
    44  H    0.072462
    45  H    0.024731
    46  H    0.026903
    47  H    0.004952
    48  H    0.056662
    49  H    0.021457
    50  H   -0.008255
    51  H    0.016865
    52  H    0.176481
    53  H    0.013359
    54  H    0.027192
    55  H    0.050233
    56  H    0.134388
    57  H    0.020571
    58  H    0.080220
    59  H    0.094443
    60  H    0.066704
    61  H    0.045352
    62  H    0.053745
    63  H    0.045657
    64  H   -0.073443
    65  H    0.014748
    66  H    0.045083
    67  H    0.010580
    68  H   -0.025224
    69  H    0.025140
    70  H   -0.031684
    71  H    0.011166
    72  H   -0.011198
    73  H    0.011394
    74  H    0.030399
    75  H    0.036368
    76  H    0.033791
    77  H    0.027441
    78  H    0.027485
    79  H    0.036414
    80  H    0.180086
    81  H    0.217603
 Sum of Mulliken charges =  -0.00000

 Dipole moment (field-independent basis, Debye):
    X=             -2.6320    Y=             -0.0504    Z=             -0.8210  Tot=              2.7575
 Quadrupole moment (field-independent basis, Debye-Ang):
   XX=           -249.7373   YY=           -237.9024   ZZ=           -252.8938
   XY=             20.7355   XZ=              8.4960   YZ=            -12.3556

 Normal termination of Gaussian 16 at Thu Jun 27 05:45:40 2019.
