 Gaussian 16, Revision A.03,
 Gaussian 16:  ES64L-G16RevA.03 25-Dec-2016

 --------------------------
 # td=(NStates=1) B3LYP/SVP
 --------------------------

 --
 TD
 --
 Symbolic Z-matrix:
 Charge =  0 Multiplicity = 1

                         Standard orientation:
 ---------------------------------------------------------------------
 Center     Atomic      Atomic             Coordinates (Angstroms)
 Number     Number       Type             X           Y           Z
 ---------------------------------------------------------------------
      1          8           0        3.997746   -5.078646   -1.842374
      2          8           0       -3.319381   -4.949417   -1.025189
      3          8           0       -7.072701   -1.385188   -1.752588
      4          8           0       -3.900100   -2.958492    0.045942
      5          8           0       -7.608611   -0.098345   -0.063256
      6          8           0        3.197897    2.288425    0.507654
      7          7           0        0.292063   -0.444624    0.657100
      8          7           0       -1.432698    1.863709    0.523672
      9          7           0        3.104359   -3.306820   -0.705305
     10          7           0        0.926522    2.873437    0.117125
     11          6           0       -0.850767   -2.291039    1.476829
     12          6           0       -0.989747   -0.936233    1.004101
     13          6           0        0.555059   -2.672099    1.221199
     14          6           0        1.263811   -1.512082    0.723010
     15          6           0       -3.629985    1.677425    0.155229
     16          6           0       -2.451586    0.989452    0.576197
     17          6           0       -2.207345   -0.372124    0.866031
     18          6           0       -3.277348    2.996518   -0.159143
     19          6           0       -1.909160   -3.213967    2.006619
     20          6           0        5.333144   -3.146774   -1.333241
     21          6           0        3.409493   -2.013943   -0.296147
     22          6           0       -1.930854    3.173066   -0.038980
     23          6           0        4.898568   -1.902309   -0.547846
     24          6           0       -5.033700    1.120811    0.306406
     25          6           0        2.545803   -1.191430    0.350245
     26          6           0        1.171455   -3.913131    1.803752
     27          6           0        4.089301   -4.038897   -1.214611
     28          6           0       -2.192455   -4.374199    1.080251
     29          6           0       -5.324518   -0.045855   -0.850831
     30          6           0       -4.287751    4.070500   -0.534486
     31          6           0       -1.012762    4.282452   -0.392856
     32          6           0        6.634391   -3.868053   -0.751768
     33          6           0        5.646692   -0.729222   -0.323134
     34          6           0        0.408709    4.088377   -0.195375
     35          6           0        1.405925    5.193246   -0.449809
     36          6           0        2.620578    4.568828   -0.167504
     37          6           0       -3.237599   -3.946193   -0.043440
     38          6           0        5.414873    0.461411    0.562222
     39          6           0       -6.781709   -0.455311   -0.810583
     40          6           0        3.949969    5.212987   -0.248443
     41          6           0        2.328566    3.158941    0.133231
     42          6           0        0.938484    6.633747   -0.839887
     43          6           0        4.619780    5.351880    1.096430
     44          1           0        0.711598    0.461822    0.099471
     45          1           0       -3.172807   -0.927156    0.901544
     46          1           0       -2.792880   -2.690739    2.179347
     47          1           0       -1.567655   -3.674535    2.944017
     48          1           0        5.399640   -2.863491   -2.454905
     49          1           0       -5.302498    0.436183    1.229072
     50          1           0       -5.698154    1.859776    0.152629
     51          1           0        2.970464   -0.247298    0.550690
     52          1           0       -0.485160    1.776815    0.569579
     53          1           0        1.213610   -4.570994    1.153556
     54          1           0        2.181688   -3.638375    2.176254
     55          1           0        0.874840   -4.254403    2.875030
     56          1           0        2.239827   -3.732458   -0.418559
     57          1           0       -1.419123   -4.883743    0.684320
     58          1           0       -2.814471   -5.046349    1.462290
     59          1           0       -4.782455   -1.035440   -0.697637
     60          1           0       -5.324937    0.086949   -1.946079
     61          1           0       -4.066468    4.888187    0.071722
     62          1           0       -5.307781    3.780105   -0.594929
     63          1           0       -3.999350    4.479838   -1.633120
     64          1           0       -1.424465    5.164126   -0.909496
     65          1           0        7.647390   -3.266488   -0.963158
     66          1           0        6.785266   -4.669041   -1.335788
     67          1           0        6.462072   -4.280597    0.237008
     68          1           0        6.624752   -0.609269   -0.859387
     69          1           0        4.731023    1.109286   -0.017820
     70          1           0        6.587945    0.928292    0.683899
     71          1           0        4.916336    0.285033    1.384157
     72          1           0        3.719550    6.016851   -0.835256
     73          1           0        4.652979    4.668286   -1.062463
     74          1           0        0.211766    6.589814   -1.756359
     75          1           0        1.747773    7.352243   -0.984913
     76          1           0        0.441341    7.190889   -0.174491
     77          1           0        3.887537    5.764248    1.863086
     78          1           0        5.595210    5.867712    1.128513
     79          1           0        4.896067    4.336819    1.440485
     80          1           0       -3.786786   -4.533036   -1.866360
     81          1           0       -7.848086   -1.707157   -1.367628
 ---------------------------------------------------------------------

 SCF Done:  E(RB3LYP) =  -1949.05987503     A.U. after   20 cycles

 Excitation energies and oscillator strengths:

 Excited State   1:      Singlet-A      1.5562 eV  796.72 nm  f=0.2742  <S**2>=0.000
     156 ->157         0.71244
     156 <-157        -0.14909
 This state for optimization and/or second-order correction.
 Total Energy, E(TD-HF/TD-DFT) =  -1949.00268621
 Copying the excited state density for this state as the 1-particle RhoCI density.

 The electronic state is 1-A.
 Alpha  occ. eigenvalues --  -19.20189 -19.17062 -19.16244 -19.12575 -19.10478
 Alpha  occ. eigenvalues --  -19.09588 -14.38243 -14.37696 -14.34569 -14.29030
 Alpha  occ. eigenvalues --  -10.34553 -10.31029 -10.28694 -10.26296 -10.25025
 Alpha  occ. eigenvalues --  -10.24635 -10.23996 -10.23889 -10.22733 -10.22570
 Alpha  occ. eigenvalues --  -10.21442 -10.21409 -10.21229 -10.21103 -10.21020
 Alpha  occ. eigenvalues --  -10.20967 -10.20945 -10.20881 -10.20785 -10.20660
 Alpha  occ. eigenvalues --  -10.20477 -10.20303 -10.20012 -10.19905 -10.19841
 Alpha  occ. eigenvalues --  -10.19648 -10.19565 -10.19147 -10.18993 -10.18520
 Alpha  occ. eigenvalues --  -10.18516 -10.17794 -10.17723  -1.11639  -1.10243
 Alpha  occ. eigenvalues --   -1.03843  -1.02614  -1.01891  -0.97865  -0.96720
 Alpha  occ. eigenvalues --   -0.96410  -0.95023  -0.90067  -0.83237  -0.82094
 Alpha  occ. eigenvalues --   -0.81135  -0.80482  -0.79750  -0.79041  -0.78326
 Alpha  occ. eigenvalues --   -0.76977  -0.75552  -0.74888  -0.74441  -0.72501
 Alpha  occ. eigenvalues --   -0.71589  -0.70157  -0.69705  -0.68663  -0.68372
 Alpha  occ. eigenvalues --   -0.68133  -0.65833  -0.64083  -0.62704  -0.61642
 Alpha  occ. eigenvalues --   -0.60203  -0.59642  -0.58637  -0.58379  -0.56835
 Alpha  occ. eigenvalues --   -0.56295  -0.55717  -0.55069  -0.53861  -0.52807
 Alpha  occ. eigenvalues --   -0.52228  -0.51781  -0.51444  -0.50373  -0.49944
 Alpha  occ. eigenvalues --   -0.49618  -0.49032  -0.48412  -0.48109  -0.47838
 Alpha  occ. eigenvalues --   -0.47775  -0.47111  -0.46299  -0.46066  -0.45749
 Alpha  occ. eigenvalues --   -0.45025  -0.44674  -0.44281  -0.44007  -0.43766
 Alpha  occ. eigenvalues --   -0.43504  -0.43274  -0.43001  -0.42670  -0.42461
 Alpha  occ. eigenvalues --   -0.41933  -0.41758  -0.41490  -0.41308  -0.41131
 Alpha  occ. eigenvalues --   -0.40616  -0.40126  -0.39936  -0.39813  -0.39307
 Alpha  occ. eigenvalues --   -0.39105  -0.39082  -0.38824  -0.38704  -0.38199
 Alpha  occ. eigenvalues --   -0.37746  -0.37366  -0.37322  -0.37156  -0.37068
 Alpha  occ. eigenvalues --   -0.36873  -0.36486  -0.36443  -0.35808  -0.35229
 Alpha  occ. eigenvalues --   -0.34599  -0.34348  -0.34154  -0.33675  -0.33649
 Alpha  occ. eigenvalues --   -0.32785  -0.32327  -0.31675  -0.30529  -0.29831
 Alpha  occ. eigenvalues --   -0.28196  -0.28077  -0.26569  -0.25525  -0.25302
 Alpha  occ. eigenvalues --   -0.24768  -0.24382  -0.23831  -0.22962  -0.21561
 Alpha  occ. eigenvalues --   -0.17371
 Alpha virt. eigenvalues --   -0.11189  -0.06369  -0.04833  -0.01658  -0.00976
 Alpha virt. eigenvalues --    0.01269   0.01775   0.02205   0.02645   0.04283
 Alpha virt. eigenvalues --    0.04419   0.04899   0.05149   0.05760   0.06167

 Mulliken charges:
               1
     1  O   -0.223303
     2  O   -0.263807
     3  O   -0.168285
     4  O   -0.183064
     5  O   -0.197270
     6  O   -0.290171
     7  N   -0.224310
     8  N   -0.085111
     9  N   -0.048420
    10  N   -0.318583
    11  C   -0.136963
    12  C    0.234202
    13  C   -0.181997
    14  C    0.161634
    15  C   -0.064466
    16  C    0.034685
    17  C   -0.110307
    18  C   -0.124307
    19  C    0.195048
    20  C   -0.106082
    21  C    0.060154
    22  C    0.085948
    23  C   -0.018943
    24  C    0.138991
    25  C   -0.095696
    26  C    0.117024
    27  C    0.090219
    28  C    0.115232
    29  C   -0.066016
    30  C    0.121904
    31  C   -0.097736
    32  C    0.102720
    33  C   -0.177897
    34  C    0.068029
    35  C   -0.070693
    36  C   -0.206772
    37  C    0.132759
    38  C    0.092346
    39  C    0.082961
    40  C    0.117772
    41  C    0.197176
    42  C    0.120493
    43  C    0.010363
    44  H    0.215996
    45  H    0.015724
    46  H   -0.016370
    47  H    0.005773
    48  H    0.063463
    49  H    0.055530
    50  H   -0.030124
    51  H   -0.028256
    52  H    0.069272
    53  H   -0.028902
    54  H    0.024714
    55  H    0.038399
    56  H    0.111662
    57  H   -0.007049
    58  H   -0.008933
    59  H    0.064972
    60  H    0.026035
    61  H    0.010636
    62  H    0.013941
    63  H    0.023557
    64  H   -0.017992
    65  H    0.032169
    66  H   -0.012723
    67  H    0.012234
    68  H    0.009483
    69  H    0.088026
    70  H    0.032584
    71  H   -0.006331
    72  H   -0.045869
    73  H    0.011179
    74  H    0.039592
    75  H    0.004178
    76  H   -0.008026
    77  H    0.021021
    78  H    0.009431
    79  H    0.029653
    80  H    0.223771
    81  H    0.138116
 Sum of Mulliken charges =  -0.00000

 Dipole moment (field-independent basis, Debye):
    X=             -1.9179    Y=             -0.2580    Z=             -0.0642  Tot=              1.9363
 Quadrupole moment (field-independent basis, Debye-Ang):
   XX=           -255.9722   YY=           -238.8969   ZZ=           -254.1749
   XY=             16.0872   XZ=              8.1489   YZ=            -19.4061

 Normal termination of Gaussian 16 at Sat Jun 29 14:16:23 2019.
