 Gaussian 16, Revision A.03,
 Gaussian 16:  ES64L-G16RevA.03 25-Dec-2016

 --------------------------
 # td=(NStates=1) B3LYP/SVP
 --------------------------

 --
 TD
 --
 Symbolic Z-matrix:
 Charge =  0 Multiplicity = 1

                         Standard orientation:
 ---------------------------------------------------------------------
 Center     Atomic      Atomic             Coordinates (Angstroms)
 Number     Number       Type             X           Y           Z
 ---------------------------------------------------------------------
      1          8           0        4.156974   -4.901365   -1.892017
      2          8           0       -3.048171   -5.037594   -1.021164
      3          8           0       -7.094696   -1.272222   -2.023657
      4          8           0       -3.838778   -3.196843    0.013602
      5          8           0       -7.568271   -0.515487    0.042791
      6          8           0        2.999873    2.403594    0.370702
      7          7           0        0.233450   -0.590583    0.542918
      8          7           0       -1.553349    1.857553    0.404977
      9          7           0        3.310576   -3.214339   -0.571234
     10          7           0        0.742155    2.960179    0.142687
     11          6           0       -0.685028   -2.374626    1.469410
     12          6           0       -0.935777   -1.112812    1.009972
     13          6           0        0.716415   -2.714997    1.305852
     14          6           0        1.310385   -1.442358    0.754141
     15          6           0       -3.803289    1.550368    0.244302
     16          6           0       -2.533886    0.970608    0.587246
     17          6           0       -2.207732   -0.362811    0.929833
     18          6           0       -3.457157    2.876829   -0.081013
     19          6           0       -1.738209   -3.362114    1.995965
     20          6           0        5.484884   -2.851102   -1.431141
     21          6           0        3.626600   -1.920860   -0.138131
     22          6           0       -2.077262    2.995338    0.093070
     23          6           0        5.072956   -1.628397   -0.529344
     24          6           0       -5.212190    0.886491    0.303230
     25          6           0        2.652010   -1.002105    0.527513
     26          6           0        1.458355   -3.848301    1.955370
     27          6           0        4.343302   -3.783865   -1.414478
     28          6           0       -2.082307   -4.610599    1.036720
     29          6           0       -5.442113   -0.039860   -0.905575
     30          6           0       -4.484516    3.881108   -0.444920
     31          6           0       -1.256663    4.093320   -0.319763
     32          6           0        6.830596   -3.502943   -1.053237
     33          6           0        5.846440   -0.618381   -0.313935
     34          6           0        0.169302    4.123189   -0.225516
     35          6           0        1.151749    5.223909   -0.438001
     36          6           0        2.326939    4.618019   -0.196128
     37          6           0       -3.049976   -4.068314   -0.047018
     38          6           0        5.547530    0.547186    0.697694
     39          6           0       -6.783100   -0.692121   -0.867853
     40          6           0        3.768946    5.303240   -0.322023
     41          6           0        2.113058    3.204059    0.170468
     42          6           0        0.724854    6.665786   -0.703185
     43          6           0        4.554941    5.390344    1.040656
     44          1           0        0.398845    0.346527    0.164603
     45          1           0       -3.134257   -0.988528    0.919071
     46          1           0       -2.480272   -2.852142    2.272782
     47          1           0       -1.494367   -3.793171    2.952504
     48          1           0        5.506595   -2.483890   -2.381273
     49          1           0       -5.192820    0.507771    1.283240
     50          1           0       -5.991102    1.634019    0.113709
     51          1           0        2.855411    0.113654    0.544287
     52          1           0       -0.476838    1.840165    0.350932
     53          1           0        1.709612   -4.784381    1.330361
     54          1           0        2.569390   -3.533004    2.136962
     55          1           0        0.926098   -4.370133    2.852419
     56          1           0        2.323916   -3.480716   -0.236955
     57          1           0       -1.406855   -5.330840    0.746789
     58          1           0       -2.642724   -5.223371    1.705788
     59          1           0       -4.339088   -0.591787   -1.124216
     60          1           0       -5.480880    0.385842   -1.875588
     61          1           0       -4.477567    4.835418   -0.028403
     62          1           0       -5.661092    3.686775   -0.503120
     63          1           0       -4.317065    4.153211   -1.491672
     64          1           0       -1.776685    5.159382   -0.749885
     65          1           0        7.442645   -2.581109   -1.065314
     66          1           0        7.051415   -4.438812   -1.667180
     67          1           0        6.769285   -3.711796    0.023408
     68          1           0        6.748290   -0.431303   -1.091538
     69          1           0        4.925016    1.367787    0.326385
     70          1           0        6.564205    0.887444    0.900594
     71          1           0        5.135371    0.225649    1.595385
     72          1           0        3.476602    6.411702   -0.517457
     73          1           0        4.548609    4.916964   -1.111013
     74          1           0        0.276226    6.765579   -1.667609
     75          1           0        1.512331    7.357181   -1.065077
     76          1           0        0.072865    7.090565   -0.051896
     77          1           0        3.818419    6.151653    1.711370
     78          1           0        5.513087    5.882229    0.781786
     79          1           0        4.687697    4.479749    1.650967
     80          1           0       -3.753275   -5.069008   -1.621488
     81          1           0       -7.892645   -1.824977   -1.812230
 ---------------------------------------------------------------------

 SCF Done:  E(RB3LYP) =  -1949.08450702     A.U. after   17 cycles

 Excitation energies and oscillator strengths:

 Excited State   1:      Singlet-A      1.7797 eV  696.65 nm  f=0.3696  <S**2>=0.000
     156 ->157         0.71040
     156 <-157        -0.11941
 This state for optimization and/or second-order correction.
 Total Energy, E(TD-HF/TD-DFT) =  -1949.01910342
 Copying the excited state density for this state as the 1-particle RhoCI density.

 The electronic state is 1-A.
 Alpha  occ. eigenvalues --  -19.18998 -19.17552 -19.14720 -19.12531 -19.11743
 Alpha  occ. eigenvalues --  -19.10039 -14.37641 -14.37314 -14.35379 -14.28624
 Alpha  occ. eigenvalues --  -10.33391 -10.32066 -10.30285 -10.25969 -10.25924
 Alpha  occ. eigenvalues --  -10.24158 -10.23268 -10.23217 -10.23209 -10.22632
 Alpha  occ. eigenvalues --  -10.22009 -10.21526 -10.21153 -10.21045 -10.20723
 Alpha  occ. eigenvalues --  -10.20669 -10.20594 -10.20563 -10.20528 -10.20510
 Alpha  occ. eigenvalues --  -10.20318 -10.20315 -10.20058 -10.19942 -10.19906
 Alpha  occ. eigenvalues --  -10.19859 -10.19806 -10.19580 -10.19412 -10.18957
 Alpha  occ. eigenvalues --  -10.18947 -10.18931 -10.17079  -1.10634  -1.10540
 Alpha  occ. eigenvalues --   -1.02971  -1.02847  -1.01774  -1.01079  -1.00757
 Alpha  occ. eigenvalues --   -0.97920  -0.93786  -0.91987  -0.82260  -0.82094
 Alpha  occ. eigenvalues --   -0.81545  -0.80424  -0.78845  -0.78160  -0.77472
 Alpha  occ. eigenvalues --   -0.77188  -0.76289  -0.74214  -0.72731  -0.71693
 Alpha  occ. eigenvalues --   -0.71269  -0.69829  -0.69256  -0.68913  -0.68541
 Alpha  occ. eigenvalues --   -0.67845  -0.66191  -0.64605  -0.62712  -0.61496
 Alpha  occ. eigenvalues --   -0.60363  -0.59222  -0.58714  -0.58083  -0.57401
 Alpha  occ. eigenvalues --   -0.56508  -0.55804  -0.54812  -0.54101  -0.52362
 Alpha  occ. eigenvalues --   -0.52062  -0.51684  -0.50707  -0.50418  -0.49794
 Alpha  occ. eigenvalues --   -0.49401  -0.48886  -0.48631  -0.48160  -0.47521
 Alpha  occ. eigenvalues --   -0.46908  -0.46350  -0.45946  -0.45537  -0.45085
 Alpha  occ. eigenvalues --   -0.44921  -0.44399  -0.44045  -0.43867  -0.43601
 Alpha  occ. eigenvalues --   -0.43039  -0.42897  -0.42644  -0.42121  -0.42074
 Alpha  occ. eigenvalues --   -0.42011  -0.41527  -0.41258  -0.41046  -0.40738
 Alpha  occ. eigenvalues --   -0.40616  -0.40496  -0.39973  -0.39884  -0.39716
 Alpha  occ. eigenvalues --   -0.39570  -0.39321  -0.38632  -0.37968  -0.37563
 Alpha  occ. eigenvalues --   -0.37353  -0.37171  -0.37038  -0.36924  -0.36761
 Alpha  occ. eigenvalues --   -0.36238  -0.36048  -0.35370  -0.35068  -0.34494
 Alpha  occ. eigenvalues --   -0.34197  -0.33799  -0.33397  -0.32945  -0.32860
 Alpha  occ. eigenvalues --   -0.32629  -0.32244  -0.31568  -0.30126  -0.29445
 Alpha  occ. eigenvalues --   -0.28591  -0.28324  -0.26719  -0.26608  -0.25840
 Alpha  occ. eigenvalues --   -0.25275  -0.24467  -0.24391  -0.23679  -0.20804
 Alpha  occ. eigenvalues --   -0.17465
 Alpha virt. eigenvalues --   -0.10376  -0.05952  -0.04540  -0.01248  -0.00645
 Alpha virt. eigenvalues --   -0.00422   0.02995   0.03571   0.03959   0.04420
 Alpha virt. eigenvalues --    0.04452   0.05015   0.05535   0.05614   0.05944

 Mulliken charges:
               1
     1  O   -0.205783
     2  O   -0.200172
     3  O   -0.176444
     4  O   -0.169315
     5  O   -0.234562
     6  O   -0.203225
     7  N   -0.071654
     8  N    0.002150
     9  N   -0.176597
    10  N   -0.341533
    11  C   -0.134233
    12  C    0.089491
    13  C   -0.124996
    14  C    0.037794
    15  C   -0.138737
    16  C    0.010435
    17  C   -0.077893
    18  C   -0.092359
    19  C    0.222842
    20  C   -0.009530
    21  C    0.040284
    22  C    0.058834
    23  C    0.019113
    24  C    0.218575
    25  C   -0.092930
    26  C   -0.015627
    27  C    0.151801
    28  C    0.065326
    29  C   -0.083054
    30  C    0.076525
    31  C   -0.170843
    32  C    0.069294
    33  C   -0.253468
    34  C    0.044181
    35  C   -0.053428
    36  C   -0.172220
    37  C    0.146356
    38  C    0.078467
    39  C    0.167089
    40  C    0.012780
    41  C    0.164775
    42  C    0.167904
    43  C   -0.062474
    44  H    0.127839
    45  H    0.027750
    46  H   -0.083610
    47  H   -0.020733
    48  H    0.012379
    49  H    0.026322
    50  H   -0.001241
    51  H    0.047977
    52  H    0.158744
    53  H    0.025913
    54  H    0.046317
    55  H    0.038987
    56  H    0.162816
    57  H    0.000047
    58  H    0.022272
    59  H    0.073071
    60  H    0.017602
    61  H   -0.003754
    62  H    0.031063
    63  H    0.002181
    64  H    0.011888
    65  H    0.009851
    66  H    0.063780
    67  H    0.012571
    68  H    0.040065
    69  H    0.074507
    70  H   -0.001057
    71  H    0.008410
    72  H    0.011039
    73  H    0.040405
    74  H   -0.009200
    75  H   -0.002259
    76  H    0.012067
    77  H    0.017932
    78  H    0.020942
    79  H    0.047442
    80  H    0.156056
    81  H    0.190682
 Sum of Mulliken charges =  -0.00000

 Dipole moment (field-independent basis, Debye):
    X=             -2.1820    Y=             -0.1863    Z=             -1.4092  Tot=              2.6041
 Quadrupole moment (field-independent basis, Debye-Ang):
   XX=           -243.8112   YY=           -234.9249   ZZ=           -254.8011
   XY=             15.7936   XZ=             11.3002   YZ=            -15.9279

 Normal termination of Gaussian 16 at Fri Jun 28 21:52:59 2019.
