 Gaussian 16, Revision A.03,
 Gaussian 16:  ES64L-G16RevA.03 25-Dec-2016

 --------------------------
 # td=(NStates=1) B3LYP/SVP
 --------------------------

 --
 TD
 --
 Symbolic Z-matrix:
 Charge =  0 Multiplicity = 1

                         Standard orientation:
 ---------------------------------------------------------------------
 Center     Atomic      Atomic             Coordinates (Angstroms)
 Number     Number       Type             X           Y           Z
 ---------------------------------------------------------------------
      1          8           0        4.508387   -4.721042   -1.814545
      2          8           0       -2.802381   -5.157372   -1.098742
      3          8           0       -7.139516   -1.617252   -1.824996
      4          8           0       -3.615768   -3.249240   -0.117411
      5          8           0       -7.688587   -0.535154    0.086914
      6          8           0        2.874307    2.453003    0.262438
      7          7           0        0.274711   -0.499605    0.569637
      8          7           0       -1.546419    1.680214    0.376051
      9          7           0        3.453835   -3.025225   -0.689065
     10          7           0        0.713975    2.973738   -0.002875
     11          6           0       -0.503564   -2.441030    1.284286
     12          6           0       -0.874720   -1.099997    0.941980
     13          6           0        0.900479   -2.535074    1.231162
     14          6           0        1.298292   -1.307445    0.695112
     15          6           0       -3.821293    1.342051    0.422914
     16          6           0       -2.518231    0.708894    0.604415
     17          6           0       -2.196152   -0.532224    0.877363
     18          6           0       -3.591633    2.700556   -0.111320
     19          6           0       -1.555914   -3.368132    1.816660
     20          6           0        5.656534   -2.616523   -1.239302
     21          6           0        3.631198   -1.764099   -0.122134
     22          6           0       -2.235015    2.915564   -0.013635
     23          6           0        5.082003   -1.498222   -0.348325
     24          6           0       -5.111869    0.603807    0.495192
     25          6           0        2.694506   -0.977227    0.294480
     26          6           0        1.566351   -3.715734    1.725805
     27          6           0        4.470942   -3.611719   -1.340750
     28          6           0       -1.866334   -4.577865    0.959843
     29          6           0       -5.393648   -0.241614   -0.703924
     30          6           0       -4.621682    3.691796   -0.361474
     31          6           0       -1.413355    4.015191   -0.374035
     32          6           0        7.083110   -3.172543   -0.843500
     33          6           0        5.868774   -0.493826    0.069272
     34          6           0       -0.081365    4.137851   -0.236187
     35          6           0        0.890037    5.231810   -0.527128
     36          6           0        2.197812    4.742579   -0.399569
     37          6           0       -2.849005   -4.174907   -0.147530
     38          6           0        5.366900    0.714433    0.898902
     39          6           0       -6.858747   -0.821996   -0.731099
     40          6           0        3.506393    5.432629   -0.321188
     41          6           0        2.070073    3.293675   -0.015122
     42          6           0        0.570086    6.582942   -0.922931
     43          6           0        4.033012    5.545606    1.128067
     44          1           0        0.440898    0.444802    0.062443
     45          1           0       -2.943015   -1.339216    0.794407
     46          1           0       -2.518937   -2.736060    1.895974
     47          1           0       -1.202381   -3.554948    2.842628
     48          1           0        5.689590   -2.169109   -2.216001
     49          1           0       -5.415778   -0.015465    1.516114
     50          1           0       -5.896762    1.399917    0.521212
     51          1           0        2.912692    0.019912    0.413438
     52          1           0       -0.500957    1.805363    0.340753
     53          1           0        1.656825   -4.504198    1.131948
     54          1           0        2.446967   -3.492175    2.082984
     55          1           0        0.935676   -4.371693    2.522470
     56          1           0        2.488776   -3.389303   -0.584925
     57          1           0       -1.002233   -4.984509    0.448768
     58          1           0       -2.195561   -5.289594    1.747184
     59          1           0       -4.763368   -1.078049   -0.760794
     60          1           0       -5.347669    0.378352   -1.722041
     61          1           0       -4.803244    4.677557    0.369831
     62          1           0       -5.694580    3.187376   -0.406659
     63          1           0       -4.533907    4.154538   -1.327671
     64          1           0       -1.961993    4.968588   -0.626106
     65          1           0        7.758038   -2.521825   -0.970299
     66          1           0        7.258119   -4.087407   -1.655688
     67          1           0        7.036899   -3.484363    0.191539
     68          1           0        6.841979   -0.478947   -0.242336
     69          1           0        4.818737    1.541596    0.201597
     70          1           0        6.447957    1.111128    1.241606
     71          1           0        4.588807    0.393917    1.733312
     72          1           0        3.138981    6.375652   -0.819676
     73          1           0        4.415210    4.956808   -0.834072
     74          1           0       -0.098204    6.405430   -1.827756
     75          1           0        1.418913    7.067631   -1.268474
     76          1           0       -0.031218    6.951181    0.075246
     77          1           0        3.469986    6.296663    1.633903
     78          1           0        5.023757    5.936053    1.281500
     79          1           0        3.929996    4.532124    1.613563
     80          1           0       -3.506902   -4.815974   -1.758850
     81          1           0       -8.030190   -1.834398   -1.484379
 ---------------------------------------------------------------------

 SCF Done:  E(RB3LYP) =  -1949.10437541     A.U. after   16 cycles

 Excitation energies and oscillator strengths:

 Excited State   1:      Singlet-A      1.7922 eV  691.79 nm  f=0.2501  <S**2>=0.000
     154 ->157         0.10143
     156 ->157         0.69646
     156 <-157        -0.11387
 This state for optimization and/or second-order correction.
 Total Energy, E(TD-HF/TD-DFT) =  -1949.03851197
 Copying the excited state density for this state as the 1-particle RhoCI density.

 The electronic state is 1-A.
 Alpha  occ. eigenvalues --  -19.21028 -19.19051 -19.16428 -19.14134 -19.10179
 Alpha  occ. eigenvalues --  -19.09491 -14.38701 -14.36913 -14.34967 -14.27421
 Alpha  occ. eigenvalues --  -10.34803 -10.32873 -10.28538 -10.25019 -10.24201
 Alpha  occ. eigenvalues --  -10.23846 -10.23718 -10.23109 -10.22992 -10.22337
 Alpha  occ. eigenvalues --  -10.22306 -10.22020 -10.21646 -10.21576 -10.21509
 Alpha  occ. eigenvalues --  -10.21218 -10.21061 -10.20855 -10.20201 -10.20120
 Alpha  occ. eigenvalues --  -10.19685 -10.19666 -10.19458 -10.19311 -10.19258
 Alpha  occ. eigenvalues --  -10.19134 -10.19098 -10.18793 -10.18520 -10.18482
 Alpha  occ. eigenvalues --  -10.18418 -10.17895 -10.17187  -1.11754  -1.10758
 Alpha  occ. eigenvalues --   -1.03730  -1.03369  -1.01922  -1.01773  -1.00920
 Alpha  occ. eigenvalues --   -0.95770  -0.95464  -0.89105  -0.83362  -0.82529
 Alpha  occ. eigenvalues --   -0.82050  -0.80788  -0.80267  -0.79450  -0.78755
 Alpha  occ. eigenvalues --   -0.77563  -0.76634  -0.75387  -0.73842  -0.73350
 Alpha  occ. eigenvalues --   -0.71934  -0.69837  -0.68759  -0.68619  -0.68179
 Alpha  occ. eigenvalues --   -0.67128  -0.65590  -0.63997  -0.62041  -0.61341
 Alpha  occ. eigenvalues --   -0.60686  -0.59530  -0.58661  -0.58217  -0.58038
 Alpha  occ. eigenvalues --   -0.56122  -0.55265  -0.54949  -0.53339  -0.52761
 Alpha  occ. eigenvalues --   -0.52492  -0.51975  -0.51810  -0.51136  -0.50224
 Alpha  occ. eigenvalues --   -0.49912  -0.49597  -0.49105  -0.48932  -0.48236
 Alpha  occ. eigenvalues --   -0.47768  -0.47114  -0.46726  -0.46101  -0.45793
 Alpha  occ. eigenvalues --   -0.45427  -0.45185  -0.44358  -0.44200  -0.43826
 Alpha  occ. eigenvalues --   -0.43733  -0.43275  -0.43264  -0.42896  -0.42647
 Alpha  occ. eigenvalues --   -0.42622  -0.42436  -0.42363  -0.41814  -0.41481
 Alpha  occ. eigenvalues --   -0.41174  -0.40910  -0.40734  -0.40289  -0.39877
 Alpha  occ. eigenvalues --   -0.39241  -0.39140  -0.38688  -0.38261  -0.37718
 Alpha  occ. eigenvalues --   -0.37628  -0.37573  -0.37008  -0.36840  -0.36602
 Alpha  occ. eigenvalues --   -0.36097  -0.35944  -0.35653  -0.35341  -0.35152
 Alpha  occ. eigenvalues --   -0.34764  -0.34340  -0.33942  -0.33866  -0.33303
 Alpha  occ. eigenvalues --   -0.33228  -0.33032  -0.31880  -0.31594  -0.29803
 Alpha  occ. eigenvalues --   -0.29242  -0.26340  -0.26199  -0.25631  -0.25580
 Alpha  occ. eigenvalues --   -0.24685  -0.24461  -0.23389  -0.22734  -0.20976
 Alpha  occ. eigenvalues --   -0.18425
 Alpha virt. eigenvalues --   -0.11110  -0.05760  -0.03556  -0.02932  -0.00294
 Alpha virt. eigenvalues --    0.01436   0.02101   0.02510   0.02800   0.03644
 Alpha virt. eigenvalues --    0.03855   0.04798   0.04908   0.05926   0.06484

 Mulliken charges:
               1
     1  O   -0.204537
     2  O   -0.200862
     3  O   -0.195390
     4  O   -0.204597
     5  O   -0.219994
     6  O   -0.186972
     7  N   -0.003978
     8  N   -0.200049
     9  N   -0.098788
    10  N   -0.387384
    11  C   -0.107271
    12  C    0.003216
    13  C   -0.166891
    14  C   -0.017548
    15  C   -0.050545
    16  C    0.183153
    17  C   -0.097024
    18  C   -0.075678
    19  C    0.020095
    20  C   -0.085491
    21  C    0.148344
    22  C    0.114695
    23  C   -0.012213
    24  C    0.034513
    25  C   -0.065181
    26  C    0.182796
    27  C    0.110638
    28  C    0.045130
    29  C    0.002094
    30  C    0.004114
    31  C   -0.121475
    32  C    0.115345
    33  C   -0.120243
    34  C    0.140239
    35  C   -0.124600
    36  C   -0.176907
    37  C    0.155545
    38  C   -0.048229
    39  C    0.133843
    40  C    0.045897
    41  C    0.152618
    42  C    0.102370
    43  C    0.014398
    44  H    0.177022
    45  H    0.038525
    46  H    0.022028
    47  H    0.019660
    48  H    0.027291
    49  H    0.052292
    50  H    0.009959
    51  H   -0.037030
    52  H    0.136323
    53  H   -0.020074
    54  H   -0.016668
    55  H    0.004269
    56  H    0.127268
    57  H    0.029209
    58  H    0.058558
    59  H    0.026852
    60  H    0.054825
    61  H    0.054347
    62  H    0.024686
    63  H    0.015047
    64  H   -0.021598
    65  H   -0.036269
    66  H    0.048565
    67  H    0.018626
    68  H   -0.047753
    69  H    0.105484
    70  H    0.020567
    71  H    0.058890
    72  H   -0.007790
    73  H    0.025025
    74  H    0.034866
    75  H   -0.004237
    76  H    0.060914
    77  H   -0.011934
    78  H    0.000945
    79  H    0.044973
    80  H    0.202346
    81  H    0.166795
 Sum of Mulliken charges =  -0.00000

 Dipole moment (field-independent basis, Debye):
    X=             -3.6385    Y=              0.1873    Z=             -0.2617  Tot=              3.6527
 Quadrupole moment (field-independent basis, Debye-Ang):
   XX=           -253.7504   YY=           -243.0142   ZZ=           -256.1875
   XY=             18.4340   XZ=             12.2091   YZ=            -15.3068

 Normal termination of Gaussian 16 at Sun Jun 30 21:25:33 2019.
