 Gaussian 16, Revision A.03,
 Gaussian 16:  ES64L-G16RevA.03 25-Dec-2016

 --------------------------
 # td=(NStates=1) B3LYP/SVP
 --------------------------

 --
 TD
 --
 Symbolic Z-matrix:
 Charge =  0 Multiplicity = 1

                         Standard orientation:
 ---------------------------------------------------------------------
 Center     Atomic      Atomic             Coordinates (Angstroms)
 Number     Number       Type             X           Y           Z
 ---------------------------------------------------------------------
      1          8           0       -4.308300   -4.786026    1.996828
      2          8           0        3.171790   -4.846362    1.199230
      3          8           0        6.980772   -1.413148    1.874411
      4          8           0        3.923225   -3.081207   -0.059743
      5          8           0        7.504742   -0.569901   -0.098490
      6          8           0       -3.058358    2.320702   -0.327366
      7          7           0       -0.295394   -0.533857   -0.604687
      8          7           0        1.578415    1.832790   -0.389747
      9          7           0       -3.295366   -3.097990    0.694512
     10          7           0       -0.786569    2.874615   -0.122953
     11          6           0        0.694155   -2.401364   -1.429409
     12          6           0        0.924835   -1.104856   -0.990471
     13          6           0       -0.743578   -2.725600   -1.321242
     14          6           0       -1.235295   -1.561786   -0.742372
     15          6           0        3.711350    1.550170   -0.286591
     16          6           0        2.452651    0.908351   -0.471253
     17          6           0        2.141238   -0.485577   -0.896044
     18          6           0        3.509210    2.849648    0.061888
     19          6           0        1.683343   -3.346268   -1.984943
     20          6           0       -5.487401   -2.711999    1.336520
     21          6           0       -3.560940   -1.853962    0.137856
     22          6           0        2.081497    3.013090   -0.027939
     23          6           0       -4.949108   -1.649382    0.472082
     24          6           0        5.082402    0.866195   -0.351005
     25          6           0       -2.689589   -1.086668   -0.468152
     26          6           0       -1.490377   -3.888691   -1.762322
     27          6           0       -4.304215   -3.737810    1.404513
     28          6           0        2.085025   -4.421053   -1.008761
     29          6           0        5.414098   -0.052929    0.890227
     30          6           0        4.485295    3.961530    0.294973
     31          6           0        1.244659    4.083268    0.235152
     32          6           0       -6.826100   -3.275019    0.960249
     33          6           0       -5.732992   -0.646373   -0.059702
     34          6           0       -0.164077    3.945940    0.228769
     35          6           0       -1.048869    5.184060    0.546231
     36          6           0       -2.367607    4.679733    0.306022
     37          6           0        3.176878   -3.984275    0.095512
     38          6           0       -5.565919    0.523559   -0.997587
     39          6           0        6.724031   -0.689034    0.773878
     40          6           0       -3.768789    5.274359    0.346740
     41          6           0       -2.158638    3.166092   -0.099977
     42          6           0       -0.581588    6.487497    0.940864
     43          6           0       -4.332476    5.420268   -1.051486
     44          1           0       -0.327107    0.364294   -0.110109
     45          1           0        3.115608   -1.096316   -0.914321
     46          1           0        2.514714   -2.897235   -2.323336
     47          1           0        1.034658   -4.121832   -2.719244
     48          1           0       -5.606316   -2.216276    2.492178
     49          1           0        5.171283    0.189593   -1.201165
     50          1           0        5.806514    1.658021   -0.452544
     51          1           0       -2.884204   -0.019389   -0.699469
     52          1           0        0.473604    1.950040   -0.514990
     53          1           0       -1.702480   -4.582579   -1.024479
     54          1           0       -2.441897   -3.327686   -2.209138
     55          1           0       -0.812978   -4.503716   -2.601367
     56          1           0       -2.533751   -3.662211    0.876794
     57          1           0        1.366804   -4.958574   -0.446532
     58          1           0        2.562900   -5.360894   -1.495375
     59          1           0        4.529354   -0.866575    1.121247
     60          1           0        5.308216    0.583073    1.810655
     61          1           0        4.223063    4.894135   -0.120058
     62          1           0        5.676730    3.738226   -0.081725
     63          1           0        4.410462    4.286056    1.389432
     64          1           0        1.404901    5.060286    0.546737
     65          1           0       -7.529414   -2.386653    1.083803
     66          1           0       -7.368976   -3.787980    1.922206
     67          1           0       -6.745057   -3.957148   -0.061024
     68          1           0       -6.785857   -0.598859    0.407120
     69          1           0       -4.998029    1.113659   -0.497848
     70          1           0       -6.555163    0.789141   -1.413687
     71          1           0       -4.936441    0.211399   -1.859234
     72          1           0       -3.662908    6.302473    0.831826
     73          1           0       -4.232970    4.619993    1.095332
     74          1           0       -0.000417    6.511304    1.883261
     75          1           0       -1.336600    7.278505    1.056681
     76          1           0        0.068677    6.824809    0.207257
     77          1           0       -3.750130    6.089054   -1.663634
     78          1           0       -5.404216    5.598762   -0.709338
     79          1           0       -4.312492    4.429426   -1.470245
     80          1           0        3.871893   -4.593268    1.766618
     81          1           0        7.850788   -1.823105    1.885546
 ---------------------------------------------------------------------

 SCF Done:  E(RB3LYP) =  -1949.10054358     A.U. after   17 cycles

 Excitation energies and oscillator strengths:

 Excited State   1:      Singlet-A      1.9205 eV  645.59 nm  f=0.4061  <S**2>=0.000
     155 ->157        -0.10165
     156 ->157         0.70668
     156 <-157        -0.14081
 This state for optimization and/or second-order correction.
 Total Energy, E(TD-HF/TD-DFT) =  -1949.02996674
 Copying the excited state density for this state as the 1-particle RhoCI density.

 The electronic state is 1-A.
 Alpha  occ. eigenvalues --  -19.18932 -19.17033 -19.15395 -19.12128 -19.11561
 Alpha  occ. eigenvalues --  -19.10751 -14.37577 -14.36511 -14.35170 -14.29945
 Alpha  occ. eigenvalues --  -10.33821 -10.31158 -10.28947 -10.27622 -10.24313
 Alpha  occ. eigenvalues --  -10.23800 -10.22970 -10.22921 -10.22796 -10.22618
 Alpha  occ. eigenvalues --  -10.22170 -10.21962 -10.21548 -10.21493 -10.21068
 Alpha  occ. eigenvalues --  -10.20901 -10.20900 -10.20880 -10.20636 -10.20432
 Alpha  occ. eigenvalues --  -10.20153 -10.20099 -10.19901 -10.19541 -10.19522
 Alpha  occ. eigenvalues --  -10.19407 -10.19346 -10.19254 -10.19246 -10.18704
 Alpha  occ. eigenvalues --  -10.17825 -10.17740 -10.16948  -1.10797  -1.10056
 Alpha  occ. eigenvalues --   -1.04150  -1.03331  -1.01192  -1.01154  -1.00026
 Alpha  occ. eigenvalues --   -0.97464  -0.96200  -0.92701  -0.83046  -0.81861
 Alpha  occ. eigenvalues --   -0.81424  -0.81268  -0.79827  -0.79443  -0.77817
 Alpha  occ. eigenvalues --   -0.77176  -0.76880  -0.76145  -0.74850  -0.72500
 Alpha  occ. eigenvalues --   -0.71339  -0.69830  -0.69202  -0.68638  -0.68034
 Alpha  occ. eigenvalues --   -0.67774  -0.64997  -0.64712  -0.62232  -0.61647
 Alpha  occ. eigenvalues --   -0.60928  -0.60145  -0.59242  -0.57660  -0.56878
 Alpha  occ. eigenvalues --   -0.55491  -0.55079  -0.54847  -0.53960  -0.53187
 Alpha  occ. eigenvalues --   -0.52860  -0.52272  -0.50896  -0.50435  -0.50188
 Alpha  occ. eigenvalues --   -0.48372  -0.48235  -0.48014  -0.47611  -0.47290
 Alpha  occ. eigenvalues --   -0.47090  -0.46787  -0.46347  -0.45826  -0.45596
 Alpha  occ. eigenvalues --   -0.45428  -0.44730  -0.44671  -0.44280  -0.44119
 Alpha  occ. eigenvalues --   -0.43432  -0.43291  -0.43152  -0.42997  -0.42571
 Alpha  occ. eigenvalues --   -0.42353  -0.42259  -0.41930  -0.41162  -0.41050
 Alpha  occ. eigenvalues --   -0.40528  -0.40509  -0.40125  -0.39902  -0.39441
 Alpha  occ. eigenvalues --   -0.39283  -0.39011  -0.38876  -0.38592  -0.38519
 Alpha  occ. eigenvalues --   -0.38163  -0.37950  -0.37647  -0.37440  -0.37319
 Alpha  occ. eigenvalues --   -0.36327  -0.35847  -0.35314  -0.35079  -0.34627
 Alpha  occ. eigenvalues --   -0.34379  -0.34142  -0.33828  -0.33085  -0.32502
 Alpha  occ. eigenvalues --   -0.32416  -0.32292  -0.32247  -0.29817  -0.29540
 Alpha  occ. eigenvalues --   -0.28618  -0.28195  -0.26314  -0.25890  -0.25334
 Alpha  occ. eigenvalues --   -0.25056  -0.24869  -0.24423  -0.23248  -0.21820
 Alpha  occ. eigenvalues --   -0.17616
 Alpha virt. eigenvalues --   -0.10402  -0.05409  -0.03520  -0.01133  -0.00432
 Alpha virt. eigenvalues --    0.00878   0.01870   0.03298   0.04109   0.04237
 Alpha virt. eigenvalues --    0.04605   0.04955   0.05350   0.05877   0.06130

 Mulliken charges:
               1
     1  O   -0.194670
     2  O   -0.198090
     3  O   -0.190352
     4  O   -0.183278
     5  O   -0.189993
     6  O   -0.242378
     7  N   -0.106740
     8  N   -0.022902
     9  N   -0.112761
    10  N   -0.261627
    11  C   -0.125803
    12  C    0.152839
    13  C   -0.112419
    14  C    0.031034
    15  C   -0.131541
    16  C   -0.034780
    17  C   -0.120756
    18  C   -0.082091
    19  C    0.174721
    20  C   -0.121380
    21  C    0.220815
    22  C    0.113393
    23  C   -0.018055
    24  C    0.155807
    25  C   -0.177466
    26  C    0.047657
    27  C    0.105324
    28  C   -0.014956
    29  C   -0.095388
    30  C    0.061937
    31  C   -0.077527
    32  C    0.031797
    33  C   -0.222360
    34  C   -0.027276
    35  C   -0.104923
    36  C   -0.224694
    37  C    0.129700
    38  C    0.196296
    39  C    0.145413
    40  C    0.051626
    41  C    0.176188
    42  C    0.139279
    43  C    0.045065
    44  H    0.144355
    45  H    0.046403
    46  H   -0.021692
    47  H    0.031034
    48  H    0.055724
    49  H    0.011330
    50  H   -0.008910
    51  H    0.027560
    52  H    0.181371
    53  H    0.016313
    54  H    0.067988
    55  H    0.028634
    56  H    0.097975
    57  H    0.005102
    58  H    0.044018
    59  H    0.070776
    60  H    0.038590
    61  H    0.002014
    62  H    0.054902
    63  H    0.018860
    64  H   -0.090085
    65  H    0.010439
    66  H    0.022500
    67  H    0.058971
    68  H    0.003732
    69  H    0.002762
    70  H    0.020983
    71  H    0.013647
    72  H   -0.006663
    73  H    0.025465
    74  H    0.024964
    75  H    0.009023
    76  H    0.006611
    77  H    0.020629
    78  H    0.022791
    79  H    0.021048
    80  H    0.163906
    81  H    0.172248
 Sum of Mulliken charges =  -0.00000

 Dipole moment (field-independent basis, Debye):
    X=              2.1829    Y=              1.1652    Z=              0.9086  Tot=              2.6359
 Quadrupole moment (field-independent basis, Debye-Ang):
   XX=           -255.2635   YY=           -235.9434   ZZ=           -255.9597
   XY=            -18.2900   XZ=             17.0251   YZ=             14.2229

 Normal termination of Gaussian 16 at Tue Jul  2 14:47:41 2019.
