 Gaussian 16, Revision A.03,
 Gaussian 16:  ES64L-G16RevA.03 25-Dec-2016

 --------------------------
 # td=(NStates=1) B3LYP/SVP
 --------------------------

 --
 TD
 --
 Symbolic Z-matrix:
 Charge =  0 Multiplicity = 1

                         Standard orientation:
 ---------------------------------------------------------------------
 Center     Atomic      Atomic             Coordinates (Angstroms)
 Number     Number       Type             X           Y           Z
 ---------------------------------------------------------------------
      1          8           0        4.577552   -4.759082   -1.707170
      2          8           0       -2.937959   -5.004981   -1.054648
      3          8           0       -6.843995   -1.785918   -1.716523
      4          8           0       -3.759834   -3.123927   -0.114740
      5          8           0       -7.640780   -0.537274   -0.004704
      6          8           0        2.954158    2.389384    0.437028
      7          7           0        0.264525   -0.539070    0.471842
      8          7           0       -1.613781    1.769862    0.293529
      9          7           0        3.445781   -3.048367   -0.646435
     10          7           0        0.678778    2.794395    0.027824
     11          6           0       -0.602754   -2.272483    1.441101
     12          6           0       -0.930180   -1.042334    0.928089
     13          6           0        0.704359   -2.520558    1.309313
     14          6           0        1.294445   -1.395062    0.642713
     15          6           0       -3.741430    1.483187    0.185610
     16          6           0       -2.507074    0.795712    0.576527
     17          6           0       -2.280376   -0.512964    0.957854
     18          6           0       -3.505640    2.751323   -0.133286
     19          6           0       -1.582866   -3.391254    1.957026
     20          6           0        5.636927   -2.634676   -1.247378
     21          6           0        3.580629   -1.715506   -0.277868
     22          6           0       -2.109280    2.954500   -0.183389
     23          6           0        5.104262   -1.410210   -0.541742
     24          6           0       -5.174536    0.724874    0.419129
     25          6           0        2.641473   -0.960447    0.274610
     26          6           0        1.556511   -3.761208    1.596682
     27          6           0        4.453080   -3.684513   -1.243224
     28          6           0       -1.804030   -4.469930    0.978046
     29          6           0       -5.366627   -0.322765   -0.607594
     30          6           0       -4.572683    3.806353   -0.417552
     31          6           0       -1.335588    4.058690   -0.452856
     32          6           0        6.899128   -3.278233   -0.792095
     33          6           0        5.816528   -0.367345   -0.086812
     34          6           0       -0.005296    3.967152   -0.362626
     35          6           0        0.967217    5.031812   -0.479668
     36          6           0        2.184609    4.657457   -0.244463
     37          6           0       -2.932385   -4.010511   -0.096089
     38          6           0        5.393560    0.819818    0.744220
     39          6           0       -6.768400   -0.870959   -0.684466
     40          6           0        3.482248    5.428159   -0.165595
     41          6           0        2.058727    3.173566    0.157966
     42          6           0        0.491434    6.483119   -1.031550
     43          6           0        4.075119    5.400685    1.263407
     44          1           0        0.539816    0.396428    0.031971
     45          1           0       -3.174373   -1.188873    1.305436
     46          1           0       -2.633011   -3.195889    2.443632
     47          1           0       -1.390208   -3.925140    2.847857
     48          1           0        5.942700   -2.340151   -2.186208
     49          1           0       -5.136592    0.443198    1.476520
     50          1           0       -5.768536    1.770140    0.391757
     51          1           0        2.846019    0.090262    0.658593
     52          1           0       -0.483979    1.951104    0.323027
     53          1           0        1.174278   -4.496600    1.038908
     54          1           0        2.586802   -3.506544    1.464782
     55          1           0        1.334428   -3.971107    2.683447
     56          1           0        2.587257   -3.682576   -0.842640
     57          1           0       -0.996160   -4.951101    0.316277
     58          1           0       -2.292962   -5.242019    1.357101
     59          1           0       -4.564038   -1.194662   -0.715777
     60          1           0       -5.037052    0.180319   -1.613501
     61          1           0       -4.152614    4.819623    0.102177
     62          1           0       -5.678178    3.570398    0.147263
     63          1           0       -4.880094    4.064184   -1.652483
     64          1           0       -1.784231    4.999363   -0.628157
     65          1           0        7.601464   -2.643703   -0.905831
     66          1           0        6.927942   -4.375050   -1.350325
     67          1           0        6.969677   -3.436675    0.154897
     68          1           0        6.949135   -0.154376   -0.472377
     69          1           0        4.543668    1.535345    0.425333
     70          1           0        6.226171    1.295531    0.991046
     71          1           0        4.768078    0.531332    1.606923
     72          1           0        3.505959    6.397017   -0.483921
     73          1           0        4.203235    4.779104   -0.553866
     74          1           0        0.250415    6.248304   -2.077840
     75          1           0        1.389571    7.213394   -1.370384
     76          1           0       -0.539390    6.920236   -0.486724
     77          1           0        3.283605    5.697087    2.069933
     78          1           0        4.951825    6.099523    1.409026
     79          1           0        4.466488    4.210979    1.354713
     80          1           0       -3.621480   -4.791611   -1.704313
     81          1           0       -7.862581   -1.872876   -1.601764
 ---------------------------------------------------------------------

 SCF Done:  E(RB3LYP) =  -1948.98465958     A.U. after   16 cycles

 Excitation energies and oscillator strengths:

 Excited State   1:      Singlet-A      1.9817 eV  625.65 nm  f=0.3062  <S**2>=0.000
     156 ->157         0.70288
     156 <-157        -0.10321
 This state for optimization and/or second-order correction.
 Total Energy, E(TD-HF/TD-DFT) =  -1948.91183393
 Copying the excited state density for this state as the 1-particle RhoCI density.

 The electronic state is 1-A.
 Alpha  occ. eigenvalues --  -19.18889 -19.17784 -19.15451 -19.13520 -19.11653
 Alpha  occ. eigenvalues --  -19.11505 -14.38445 -14.38135 -14.34338 -14.30079
 Alpha  occ. eigenvalues --  -10.33911 -10.31299 -10.28550 -10.28259 -10.25260
 Alpha  occ. eigenvalues --  -10.23695 -10.23459 -10.23455 -10.23345 -10.23245
 Alpha  occ. eigenvalues --  -10.22729 -10.22678 -10.22232 -10.22079 -10.21730
 Alpha  occ. eigenvalues --  -10.20735 -10.20526 -10.20318 -10.20074 -10.19935
 Alpha  occ. eigenvalues --  -10.19794 -10.19748 -10.19731 -10.19447 -10.19282
 Alpha  occ. eigenvalues --  -10.19238 -10.18918 -10.18752 -10.18723 -10.18317
 Alpha  occ. eigenvalues --  -10.17930 -10.15734 -10.15582  -1.10698  -1.10300
 Alpha  occ. eigenvalues --   -1.05802  -1.02492  -1.01913  -1.01752  -0.99700
 Alpha  occ. eigenvalues --   -0.98128  -0.96651  -0.91463  -0.83316  -0.82116
 Alpha  occ. eigenvalues --   -0.81133  -0.80942  -0.79911  -0.79419  -0.79066
 Alpha  occ. eigenvalues --   -0.77427  -0.76619  -0.75239  -0.74694  -0.73115
 Alpha  occ. eigenvalues --   -0.70370  -0.69478  -0.68631  -0.68126  -0.67559
 Alpha  occ. eigenvalues --   -0.65856  -0.65517  -0.64118  -0.63172  -0.61024
 Alpha  occ. eigenvalues --   -0.60572  -0.60091  -0.58268  -0.57366  -0.56934
 Alpha  occ. eigenvalues --   -0.56670  -0.55157  -0.54671  -0.53691  -0.52981
 Alpha  occ. eigenvalues --   -0.52097  -0.51226  -0.51128  -0.50105  -0.49869
 Alpha  occ. eigenvalues --   -0.49590  -0.49147  -0.48703  -0.48414  -0.47903
 Alpha  occ. eigenvalues --   -0.47466  -0.47245  -0.46743  -0.46173  -0.45867
 Alpha  occ. eigenvalues --   -0.45477  -0.45127  -0.44690  -0.44529  -0.44185
 Alpha  occ. eigenvalues --   -0.44119  -0.43681  -0.43233  -0.43006  -0.42280
 Alpha  occ. eigenvalues --   -0.42188  -0.42127  -0.41825  -0.41631  -0.41090
 Alpha  occ. eigenvalues --   -0.40684  -0.40572  -0.40130  -0.39425  -0.39092
 Alpha  occ. eigenvalues --   -0.39007  -0.38754  -0.38496  -0.38016  -0.37738
 Alpha  occ. eigenvalues --   -0.37621  -0.37576  -0.37076  -0.36731  -0.36197
 Alpha  occ. eigenvalues --   -0.35957  -0.35842  -0.35053  -0.34765  -0.34454
 Alpha  occ. eigenvalues --   -0.34128  -0.34093  -0.33735  -0.33380  -0.33086
 Alpha  occ. eigenvalues --   -0.33038  -0.31470  -0.31377  -0.30403  -0.29599
 Alpha  occ. eigenvalues --   -0.28900  -0.28205  -0.27058  -0.26250  -0.25883
 Alpha  occ. eigenvalues --   -0.25711  -0.25053  -0.24791  -0.23706  -0.22590
 Alpha  occ. eigenvalues --   -0.18843
 Alpha virt. eigenvalues --   -0.10802  -0.05219  -0.03124  -0.01571   0.01105
 Alpha virt. eigenvalues --    0.01457   0.02576   0.02759   0.03231   0.04116
 Alpha virt. eigenvalues --    0.04277   0.04366   0.05031   0.05419   0.05675

 Mulliken charges:
               1
     1  O   -0.174797
     2  O   -0.205422
     3  O   -0.230694
     4  O   -0.207673
     5  O   -0.164022
     6  O   -0.221814
     7  N   -0.069803
     8  N   -0.150376
     9  N   -0.125483
    10  N   -0.393850
    11  C   -0.023736
    12  C    0.073320
    13  C   -0.205525
    14  C    0.002655
    15  C   -0.155646
    16  C    0.102030
    17  C   -0.086398
    18  C   -0.070472
    19  C    0.105395
    20  C   -0.074112
    21  C    0.160366
    22  C    0.100764
    23  C    0.053181
    24  C    0.118038
    25  C   -0.168597
    26  C    0.187323
    27  C    0.085598
    28  C    0.011666
    29  C   -0.087768
    30  C   -0.086917
    31  C   -0.101923
    32  C    0.166443
    33  C   -0.212200
    34  C    0.142688
    35  C   -0.092109
    36  C   -0.178548
    37  C    0.129945
    38  C    0.055629
    39  C    0.151307
    40  C    0.227460
    41  C    0.198813
    42  C    0.000555
    43  C   -0.143506
    44  H    0.162656
    45  H    0.067415
    46  H    0.009092
    47  H   -0.025044
    48  H    0.001971
    49  H    0.017787
    50  H    0.019412
    51  H    0.057471
    52  H    0.184402
    53  H   -0.020007
    54  H    0.033206
    55  H    0.017089
    56  H    0.156234
    57  H    0.057978
    58  H   -0.010180
    59  H    0.086737
    60  H    0.045056
    61  H    0.043946
    62  H    0.058761
    63  H    0.061908
    64  H   -0.051027
    65  H   -0.056809
    66  H    0.054205
    67  H   -0.063997
    68  H    0.024467
    69  H    0.089441
    70  H   -0.030120
    71  H    0.007920
    72  H   -0.026247
    73  H   -0.012258
    74  H    0.024267
    75  H    0.035481
    76  H    0.064349
    77  H    0.030272
    78  H    0.024935
    79  H    0.062756
    80  H    0.176994
    81  H    0.177694
 Sum of Mulliken charges =  -0.00000

 Dipole moment (field-independent basis, Debye):
    X=             -2.6933    Y=              0.7542    Z=             -0.2107  Tot=              2.8048
 Quadrupole moment (field-independent basis, Debye-Ang):
   XX=           -266.4038   YY=           -237.6541   ZZ=           -254.2939
   XY=             21.9760   XZ=              8.4690   YZ=            -14.6020

 Normal termination of Gaussian 16 at Sun Jun 30 18:35:21 2019.
