 Gaussian 16, Revision A.03,
 Gaussian 16:  ES64L-G16RevA.03 25-Dec-2016

 --------------------------
 # td=(NStates=1) B3LYP/SVP
 --------------------------

 --
 TD
 --
 Symbolic Z-matrix:
 Charge =  0 Multiplicity = 1

                         Standard orientation:
 ---------------------------------------------------------------------
 Center     Atomic      Atomic             Coordinates (Angstroms)
 Number     Number       Type             X           Y           Z
 ---------------------------------------------------------------------
      1          8           0        4.246097   -4.976451   -1.807463
      2          8           0       -3.222715   -5.051864   -0.928655
      3          8           0       -6.761247   -1.671026   -1.884227
      4          8           0       -3.669276   -3.126599    0.178773
      5          8           0       -7.620028   -0.432876   -0.134339
      6          8           0        2.966787    2.491884    0.480924
      7          7           0        0.196306   -0.421137    0.584181
      8          7           0       -1.570948    1.833578    0.227184
      9          7           0        3.359888   -3.142993   -0.664980
     10          7           0        0.708849    2.971076   -0.004470
     11          6           0       -0.602209   -2.392898    1.422343
     12          6           0       -0.926466   -1.037891    0.895491
     13          6           0        0.751860   -2.537969    1.292539
     14          6           0        1.305559   -1.418014    0.705883
     15          6           0       -3.796144    1.398176    0.251950
     16          6           0       -2.460377    0.862628    0.429432
     17          6           0       -2.165021   -0.503080    0.979669
     18          6           0       -3.597822    2.778771   -0.034831
     19          6           0       -1.607358   -3.303573    2.055664
     20          6           0        5.607379   -2.884258   -1.351167
     21          6           0        3.635237   -1.876078   -0.209446
     22          6           0       -2.131568    3.068758   -0.093624
     23          6           0        5.088285   -1.681745   -0.534436
     24          6           0       -5.043642    0.700583    0.387115
     25          6           0        2.629881   -1.119038    0.270914
     26          6           0        1.559616   -3.690512    1.738175
     27          6           0        4.326029   -3.823100   -1.321757
     28          6           0       -2.126147   -4.457055    1.206752
     29          6           0       -5.340165   -0.071398   -0.968618
     30          6           0       -4.661472    3.746156   -0.382403
     31          6           0       -1.353384    4.196524   -0.273177
     32          6           0        6.818205   -3.430124   -0.999076
     33          6           0        5.885714   -0.580962   -0.125175
     34          6           0        0.095965    4.103273   -0.326501
     35          6           0        1.028252    5.290890   -0.469290
     36          6           0        2.299669    4.735329   -0.189311
     37          6           0       -3.030138   -4.111939    0.066718
     38          6           0        5.444001    0.558053    0.638257
     39          6           0       -6.666663   -0.747411   -0.907285
     40          6           0        3.630840    5.305940   -0.311657
     41          6           0        2.075852    3.247062    0.145457
     42          6           0        0.627864    6.655193   -0.788001
     43          6           0        4.314576    5.524327    1.108386
     44          1           0        0.436097    0.518009    0.252061
     45          1           0       -2.905693   -1.204873    1.272913
     46          1           0       -2.609101   -2.828879    2.357197
     47          1           0       -1.161240   -3.875384    2.914711
     48          1           0        5.600833   -2.427339   -2.336910
     49          1           0       -4.983676    0.219782    1.102811
     50          1           0       -5.988070    1.230520    0.407518
     51          1           0        2.960622    0.016695    0.320939
     52          1           0       -0.496901    1.848470    0.392560
     53          1           0        1.517439   -4.638201    1.107846
     54          1           0        2.501680   -3.380907    1.791361
     55          1           0        1.323531   -3.983778    2.661689
     56          1           0        2.361113   -3.691102   -0.844689
     57          1           0       -1.454849   -5.190790    0.973176
     58          1           0       -2.854540   -5.081305    1.883565
     59          1           0       -4.577500   -0.840969   -1.068613
     60          1           0       -5.458655    0.507074   -1.882121
     61          1           0       -4.264253    4.597877    0.079990
     62          1           0       -5.668868    3.473759   -0.159502
     63          1           0       -4.711301    3.993191   -1.522391
     64          1           0       -1.800215    5.349429   -0.463934
     65          1           0        7.596030   -2.694656   -1.213975
     66          1           0        7.097224   -4.361898   -1.466793
     67          1           0        6.961953   -3.587291    0.066845
     68          1           0        6.898084   -0.547087   -0.249161
     69          1           0        4.819788    1.299178    0.044144
     70          1           0        6.473100    1.160765    1.120106
     71          1           0        4.659883    0.338602    1.453405
     72          1           0        3.746387    6.314013   -0.908500
     73          1           0        4.167437    4.583711   -0.725722
     74          1           0        0.350018    6.783290   -1.970895
     75          1           0        1.695410    7.235102   -0.533755
     76          1           0       -0.265134    7.005536   -0.155175
     77          1           0        3.655264    6.322100    1.619477
     78          1           0        5.243093    6.147078    1.255496
     79          1           0        4.596289    4.572520    1.736369
     80          1           0       -3.877015   -4.682073   -1.471784
     81          1           0       -7.657136   -2.076074   -1.927712
 ---------------------------------------------------------------------

 SCF Done:  E(RB3LYP) =  -1949.04743889     A.U. after   17 cycles

 Excitation energies and oscillator strengths:

 Excited State   1:      Singlet-A      1.5758 eV  786.78 nm  f=0.3725  <S**2>=0.000
     156 ->157         0.72039
     156 <-157        -0.17602
 This state for optimization and/or second-order correction.
 Total Energy, E(TD-HF/TD-DFT) =  -1948.98952801
 Copying the excited state density for this state as the 1-particle RhoCI density.

 The electronic state is 1-A.
 Alpha  occ. eigenvalues --  -19.19313 -19.19202 -19.14530 -19.12493 -19.11035
 Alpha  occ. eigenvalues --  -19.10757 -14.38290 -14.37922 -14.35620 -14.29519
 Alpha  occ. eigenvalues --  -10.33395 -10.32395 -10.28964 -10.27140 -10.25218
 Alpha  occ. eigenvalues --  -10.24252 -10.23890 -10.23587 -10.23242 -10.23136
 Alpha  occ. eigenvalues --  -10.22167 -10.22063 -10.21609 -10.21392 -10.20631
 Alpha  occ. eigenvalues --  -10.20587 -10.20396 -10.20360 -10.20206 -10.20145
 Alpha  occ. eigenvalues --  -10.20071 -10.20020 -10.19723 -10.19689 -10.19605
 Alpha  occ. eigenvalues --  -10.19264 -10.19194 -10.19039 -10.18990 -10.18664
 Alpha  occ. eigenvalues --  -10.18172 -10.17521 -10.17431  -1.11794  -1.09001
 Alpha  occ. eigenvalues --   -1.03770  -1.02154  -1.01947  -0.98527  -0.98267
 Alpha  occ. eigenvalues --   -0.96984  -0.95272  -0.91854  -0.83482  -0.82576
 Alpha  occ. eigenvalues --   -0.82336  -0.81672  -0.79807  -0.79033  -0.78856
 Alpha  occ. eigenvalues --   -0.77482  -0.76791  -0.75629  -0.74874  -0.72866
 Alpha  occ. eigenvalues --   -0.72425  -0.70530  -0.69444  -0.68450  -0.68039
 Alpha  occ. eigenvalues --   -0.67180  -0.65745  -0.62886  -0.62140  -0.61826
 Alpha  occ. eigenvalues --   -0.61086  -0.60716  -0.59470  -0.58212  -0.57575
 Alpha  occ. eigenvalues --   -0.56024  -0.55894  -0.55293  -0.54403  -0.52970
 Alpha  occ. eigenvalues --   -0.52702  -0.52066  -0.51572  -0.50498  -0.50262
 Alpha  occ. eigenvalues --   -0.49469  -0.49223  -0.48903  -0.48264  -0.47790
 Alpha  occ. eigenvalues --   -0.47489  -0.47255  -0.46660  -0.45517  -0.45478
 Alpha  occ. eigenvalues --   -0.44635  -0.44491  -0.44191  -0.43998  -0.43841
 Alpha  occ. eigenvalues --   -0.43703  -0.43545  -0.43239  -0.42789  -0.42544
 Alpha  occ. eigenvalues --   -0.42159  -0.41966  -0.41554  -0.41284  -0.41196
 Alpha  occ. eigenvalues --   -0.40824  -0.40384  -0.40328  -0.40045  -0.39817
 Alpha  occ. eigenvalues --   -0.39768  -0.39670  -0.39220  -0.38778  -0.38461
 Alpha  occ. eigenvalues --   -0.38379  -0.38099  -0.37896  -0.37123  -0.36640
 Alpha  occ. eigenvalues --   -0.36284  -0.35777  -0.35593  -0.35217  -0.35002
 Alpha  occ. eigenvalues --   -0.34859  -0.34526  -0.33954  -0.33291  -0.32992
 Alpha  occ. eigenvalues --   -0.32893  -0.31895  -0.31487  -0.30163  -0.29650
 Alpha  occ. eigenvalues --   -0.28493  -0.27760  -0.26689  -0.25946  -0.25556
 Alpha  occ. eigenvalues --   -0.24533  -0.24470  -0.23756  -0.22810  -0.21937
 Alpha  occ. eigenvalues --   -0.16828
 Alpha virt. eigenvalues --   -0.10984  -0.06164  -0.04416  -0.01558  -0.00511
 Alpha virt. eigenvalues --   -0.00024   0.02070   0.02365   0.03196   0.03628
 Alpha virt. eigenvalues --    0.03988   0.04216   0.05354   0.05629   0.06026

 Mulliken charges:
               1
     1  O   -0.259020
     2  O   -0.172612
     3  O   -0.189476
     4  O   -0.202137
     5  O   -0.284073
     6  O   -0.211314
     7  N   -0.107907
     8  N   -0.106287
     9  N   -0.160724
    10  N   -0.319091
    11  C   -0.073098
    12  C    0.086683
    13  C   -0.186265
    14  C    0.107993
    15  C   -0.107718
    16  C    0.053796
    17  C   -0.041454
    18  C   -0.142258
    19  C    0.098026
    20  C    0.001872
    21  C    0.114018
    22  C    0.124415
    23  C   -0.060413
    24  C    0.303557
    25  C   -0.161690
    26  C    0.226378
    27  C    0.101128
    28  C    0.010371
    29  C   -0.007396
    30  C    0.107971
    31  C   -0.164025
    32  C    0.107248
    33  C   -0.074719
    34  C    0.050384
    35  C   -0.083925
    36  C   -0.168816
    37  C    0.124972
    38  C   -0.046713
    39  C    0.148938
    40  C    0.132371
    41  C    0.175186
    42  C   -0.026720
    43  C   -0.090320
    44  H    0.141220
    45  H   -0.012389
    46  H    0.032907
    47  H    0.010228
    48  H    0.035427
    49  H   -0.126252
    50  H    0.006767
    51  H    0.050547
    52  H    0.169067
    53  H    0.025071
    54  H   -0.028882
    55  H   -0.032319
    56  H    0.189508
    57  H   -0.015773
    58  H    0.051451
    59  H    0.039581
    60  H    0.042348
    61  H    0.007927
    62  H    0.006908
    63  H    0.025631
    64  H    0.029513
    65  H    0.001251
    66  H    0.023220
    67  H   -0.002320
    68  H   -0.038129
    69  H    0.087118
    70  H    0.027840
    71  H    0.052041
    72  H    0.022609
    73  H   -0.027050
    74  H    0.057221
    75  H    0.047611
    76  H    0.053402
    77  H    0.008065
    78  H    0.004620
    79  H    0.057592
    80  H    0.158727
    81  H    0.190561
 Sum of Mulliken charges =  -0.00000

 Dipole moment (field-independent basis, Debye):
    X=             -1.7700    Y=             -0.3582    Z=             -0.6237  Tot=              1.9106
 Quadrupole moment (field-independent basis, Debye-Ang):
   XX=           -251.2372   YY=           -246.3306   ZZ=           -253.1504
   XY=             22.0862   XZ=             15.8345   YZ=            -16.1574

 Normal termination of Gaussian 16 at Thu Jun 27 05:32:40 2019.
