 Gaussian 16, Revision A.03,
 Gaussian 16:  ES64L-G16RevA.03 25-Dec-2016

 --------------------------
 # td=(NStates=1) B3LYP/SVP
 --------------------------

 --
 TD
 --
 Symbolic Z-matrix:
 Charge =  0 Multiplicity = 1

                         Standard orientation:
 ---------------------------------------------------------------------
 Center     Atomic      Atomic             Coordinates (Angstroms)
 Number     Number       Type             X           Y           Z
 ---------------------------------------------------------------------
      1          8           0        4.137675   -4.873282   -1.816126
      2          8           0       -3.316895   -4.762846   -1.005617
      3          8           0       -6.900819   -1.602711   -1.671224
      4          8           0       -4.033465   -3.040656    0.359839
      5          8           0       -7.801310   -0.237092   -0.161865
      6          8           0        3.079119    2.322734    0.314243
      7          7           0        0.303574   -0.502612    0.449640
      8          7           0       -1.487981    1.891781    0.359210
      9          7           0        3.235068   -3.129783   -0.741154
     10          7           0        0.850322    2.904374    0.149062
     11          6           0       -0.681181   -2.401001    1.278829
     12          6           0       -0.945149   -1.062423    0.890319
     13          6           0        0.773677   -2.592551    1.227418
     14          6           0        1.337579   -1.386375    0.679484
     15          6           0       -3.770867    1.574088    0.299968
     16          6           0       -2.480660    0.970966    0.551099
     17          6           0       -2.132299   -0.415108    0.840894
     18          6           0       -3.476371    2.814390   -0.180803
     19          6           0       -1.610016   -3.362726    1.967323
     20          6           0        5.558702   -2.925628   -1.424074
     21          6           0        3.647130   -1.904080   -0.274271
     22          6           0       -2.047825    3.054534   -0.092706
     23          6           0        5.042846   -1.732992   -0.475305
     24          6           0       -5.249835    1.009015    0.342910
     25          6           0        2.730307   -1.080154    0.346145
     26          6           0        1.515467   -3.787890    1.601896
     27          6           0        4.236095   -3.821692   -1.353976
     28          6           0       -2.135487   -4.436674    1.006117
     29          6           0       -5.345922   -0.122951   -0.849161
     30          6           0       -4.383933    3.896817   -0.537680
     31          6           0       -1.192397    4.144722   -0.328843
     32          6           0        6.685335   -3.600607   -0.920913
     33          6           0        5.743993   -0.644238    0.134277
     34          6           0        0.202705    4.006261   -0.237530
     35          6           0        1.216540    5.153593   -0.369611
     36          6           0        2.378534    4.617917   -0.336575
     37          6           0       -3.247563   -4.015611    0.122539
     38          6           0        5.457448    0.483354    0.976293
     39          6           0       -6.772776   -0.609471   -0.771042
     40          6           0        3.802195    5.209859   -0.379999
     41          6           0        2.204300    3.161496    0.102746
     42          6           0        0.845866    6.516517   -0.748694
     43          6           0        4.344470    5.458183    1.026373
     44          1           0        0.457337    0.281886    0.043870
     45          1           0       -2.940680   -1.120954    0.751218
     46          1           0       -2.409889   -2.846537    2.368194
     47          1           0       -0.943541   -3.965272    2.671904
     48          1           0        5.651518   -2.755481   -2.447998
     49          1           0       -5.452816    0.391731    1.315293
     50          1           0       -5.839742    1.867117    0.340406
     51          1           0        3.032478   -0.052767    0.217472
     52          1           0       -0.481235    1.788353    0.442878
     53          1           0        1.445456   -4.586055    0.821287
     54          1           0        2.412732   -3.484737    1.871999
     55          1           0        0.997020   -3.960309    2.612454
     56          1           0        2.223780   -3.448801   -0.723017
     57          1           0       -1.242727   -4.992185    0.515408
     58          1           0       -2.625780   -5.222284    1.638459
     59          1           0       -4.527481   -0.970252   -0.712565
     60          1           0       -5.310450    0.221485   -1.910920
     61          1           0       -4.636960    4.761450    0.287260
     62          1           0       -5.270437    3.359822   -0.492845
     63          1           0       -4.033874    4.447693   -1.588277
     64          1           0       -1.688139    5.045390   -0.280554
     65          1           0        7.690582   -3.012408   -0.673064
     66          1           0        6.597936   -4.429703   -1.624086
     67          1           0        6.564679   -3.950409    0.104841
     68          1           0        6.829528   -0.706928   -0.299848
     69          1           0        5.015248    1.317171    0.290517
     70          1           0        6.389637    0.904842    1.447408
     71          1           0        4.781790    0.214647    1.772531
     72          1           0        3.738952    6.032899   -0.892416
     73          1           0        4.665394    4.463290   -0.964566
     74          1           0        0.191633    6.728702   -1.778048
     75          1           0        1.845324    7.355606   -0.694293
     76          1           0        0.112041    6.987345   -0.080049
     77          1           0        3.885613    6.141592    1.573839
     78          1           0        5.525469    5.691053    0.816620
     79          1           0        4.192523    4.537579    1.773572
     80          1           0       -4.300314   -4.523258   -1.388324
     81          1           0       -7.669346   -2.124063   -1.478560
 ---------------------------------------------------------------------

 SCF Done:  E(RB3LYP) =  -1949.04255252     A.U. after   16 cycles

 Excitation energies and oscillator strengths:

 Excited State   1:      Singlet-A      1.8348 eV  675.73 nm  f=0.3967  <S**2>=0.000
     156 ->157         0.70867
     156 <-157        -0.12673
 This state for optimization and/or second-order correction.
 Total Energy, E(TD-HF/TD-DFT) =  -1948.97512443
 Copying the excited state density for this state as the 1-particle RhoCI density.

 The electronic state is 1-A.
 Alpha  occ. eigenvalues --  -19.21682 -19.17411 -19.15170 -19.12554 -19.11835
 Alpha  occ. eigenvalues --  -19.09825 -14.37306 -14.36592 -14.35174 -14.28204
 Alpha  occ. eigenvalues --  -10.35009 -10.32256 -10.29091 -10.25873 -10.24158
 Alpha  occ. eigenvalues --  -10.23966 -10.23385 -10.23254 -10.23191 -10.22741
 Alpha  occ. eigenvalues --  -10.22561 -10.22432 -10.21953 -10.21751 -10.21487
 Alpha  occ. eigenvalues --  -10.21352 -10.20679 -10.20635 -10.20622 -10.20613
 Alpha  occ. eigenvalues --  -10.20460 -10.20343 -10.19857 -10.19657 -10.19013
 Alpha  occ. eigenvalues --  -10.18998 -10.18736 -10.18652 -10.18593 -10.18240
 Alpha  occ. eigenvalues --  -10.18048 -10.17630 -10.17423  -1.10104  -1.09313
 Alpha  occ. eigenvalues --   -1.07541  -1.00505  -1.00359  -0.98493  -0.98218
 Alpha  occ. eigenvalues --   -0.97262  -0.96510  -0.91569  -0.83569  -0.82044
 Alpha  occ. eigenvalues --   -0.81914  -0.81157  -0.79881  -0.79434  -0.78771
 Alpha  occ. eigenvalues --   -0.77592  -0.76848  -0.75082  -0.74464  -0.72993
 Alpha  occ. eigenvalues --   -0.71468  -0.70754  -0.69770  -0.68801  -0.67949
 Alpha  occ. eigenvalues --   -0.67028  -0.64754  -0.63681  -0.61710  -0.61295
 Alpha  occ. eigenvalues --   -0.60705  -0.59639  -0.58814  -0.58744  -0.57460
 Alpha  occ. eigenvalues --   -0.55953  -0.55402  -0.54984  -0.53543  -0.53227
 Alpha  occ. eigenvalues --   -0.52825  -0.52101  -0.51169  -0.50867  -0.49675
 Alpha  occ. eigenvalues --   -0.49475  -0.49180  -0.49020  -0.48363  -0.47596
 Alpha  occ. eigenvalues --   -0.47048  -0.46816  -0.46676  -0.46192  -0.45992
 Alpha  occ. eigenvalues --   -0.45801  -0.44806  -0.44335  -0.43916  -0.43870
 Alpha  occ. eigenvalues --   -0.43657  -0.43115  -0.42961  -0.42531  -0.42447
 Alpha  occ. eigenvalues --   -0.42171  -0.41964  -0.41845  -0.41385  -0.40830
 Alpha  occ. eigenvalues --   -0.40559  -0.40522  -0.40264  -0.39903  -0.39631
 Alpha  occ. eigenvalues --   -0.39331  -0.39024  -0.38704  -0.38381  -0.38231
 Alpha  occ. eigenvalues --   -0.37958  -0.37620  -0.37351  -0.36864  -0.36725
 Alpha  occ. eigenvalues --   -0.36472  -0.35968  -0.35695  -0.35356  -0.34640
 Alpha  occ. eigenvalues --   -0.34476  -0.34086  -0.33685  -0.32830  -0.32491
 Alpha  occ. eigenvalues --   -0.31925  -0.31903  -0.31535  -0.30401  -0.29543
 Alpha  occ. eigenvalues --   -0.27862  -0.26882  -0.26701  -0.26060  -0.25442
 Alpha  occ. eigenvalues --   -0.25108  -0.24656  -0.23838  -0.23579  -0.21142
 Alpha  occ. eigenvalues --   -0.17261
 Alpha virt. eigenvalues --   -0.10078  -0.05587  -0.04324  -0.03769  -0.00919
 Alpha virt. eigenvalues --    0.00581   0.01013   0.01909   0.02533   0.03785
 Alpha virt. eigenvalues --    0.03927   0.04707   0.05051   0.05583   0.06081

 Mulliken charges:
               1
     1  O   -0.138355
     2  O   -0.219095
     3  O   -0.181775
     4  O   -0.291154
     5  O   -0.263405
     6  O   -0.225736
     7  N   -0.018678
     8  N   -0.057197
     9  N   -0.100489
    10  N   -0.283908
    11  C   -0.102959
    12  C    0.106915
    13  C   -0.266210
    14  C    0.069100
    15  C   -0.084733
    16  C    0.040228
    17  C   -0.074255
    18  C   -0.122666
    19  C    0.165794
    20  C    0.006940
    21  C    0.063202
    22  C    0.083584
    23  C   -0.073006
    24  C    0.120674
    25  C   -0.107895
    26  C    0.174110
    27  C    0.046268
    28  C   -0.011077
    29  C   -0.056785
    30  C    0.036078
    31  C   -0.098058
    32  C    0.038788
    33  C   -0.166216
    34  C    0.100348
    35  C   -0.032611
    36  C   -0.195389
    37  C    0.175328
    38  C    0.097995
    39  C    0.157837
    40  C    0.128026
    41  C    0.148538
    42  C   -0.024216
    43  C   -0.004844
    44  H    0.043578
    45  H   -0.007797
    46  H   -0.004024
    47  H    0.008596
    48  H    0.016677
    49  H    0.044063
    50  H    0.008735
    51  H    0.009722
    52  H    0.117606
    53  H    0.049599
    54  H   -0.025610
    55  H    0.022032
    56  H    0.153605
    57  H    0.052180
    58  H    0.051933
    59  H    0.093370
    60  H    0.053893
    61  H    0.042187
    62  H   -0.023586
    63  H    0.053929
    64  H   -0.050185
    65  H    0.036901
    66  H    0.026822
    67  H   -0.005862
    68  H    0.010854
    69  H    0.104723
    70  H    0.015307
    71  H    0.031252
    72  H   -0.053521
    73  H    0.028439
    74  H    0.045439
    75  H    0.037113
    76  H    0.014082
    77  H   -0.025237
    78  H    0.029138
    79  H    0.031957
    80  H    0.237604
    81  H    0.165444
 Sum of Mulliken charges =  -0.00000

 Dipole moment (field-independent basis, Debye):
    X=             -1.3423    Y=             -2.3101    Z=             -0.0814  Tot=              2.6730
 Quadrupole moment (field-independent basis, Debye-Ang):
   XX=           -260.3708   YY=           -237.4329   ZZ=           -255.2162
   XY=             21.7526   XZ=             10.6860   YZ=            -10.2170

 Normal termination of Gaussian 16 at Thu Jun 27 22:27:40 2019.
