 Gaussian 16, Revision A.03,
 Gaussian 16:  ES64L-G16RevA.03 25-Dec-2016

 --------------------------
 # td=(NStates=1) B3LYP/SVP
 --------------------------

 --
 TD
 --
 Symbolic Z-matrix:
 Charge =  0 Multiplicity = 1

                         Standard orientation:
 ---------------------------------------------------------------------
 Center     Atomic      Atomic             Coordinates (Angstroms)
 Number     Number       Type             X           Y           Z
 ---------------------------------------------------------------------
      1          8           0        4.304471   -4.895354   -1.766504
      2          8           0       -3.214893   -4.922866   -1.090918
      3          8           0       -6.805311   -1.488638   -2.065291
      4          8           0       -3.759135   -3.068693    0.182410
      5          8           0       -7.548787   -0.697134   -0.020118
      6          8           0        2.929755    2.449394    0.664846
      7          7           0        0.234140   -0.524840    0.560497
      8          7           0       -1.564558    1.801456    0.408969
      9          7           0        3.284437   -3.130607   -0.748857
     10          7           0        0.713282    2.936515    0.176168
     11          6           0       -0.664421   -2.396624    1.375940
     12          6           0       -0.946743   -1.074327    1.037272
     13          6           0        0.747357   -2.665967    1.218932
     14          6           0        1.259112   -1.439884    0.628858
     15          6           0       -3.759161    1.518766    0.301825
     16          6           0       -2.543854    0.920880    0.675597
     17          6           0       -2.280008   -0.504019    0.983511
     18          6           0       -3.485553    2.869357   -0.053955
     19          6           0       -1.578442   -3.410224    1.967834
     20          6           0        5.514213   -2.744377   -1.375642
     21          6           0        3.603666   -1.848788   -0.183914
     22          6           0       -2.074683    3.040725   -0.002171
     23          6           0        5.074767   -1.626925   -0.417935
     24          6           0       -5.190596    0.734525    0.434725
     25          6           0        2.683860   -0.955420    0.382017
     26          6           0        1.547872   -3.716718    1.785355
     27          6           0        4.342212   -3.756196   -1.308344
     28          6           0       -2.039906   -4.460474    1.028419
     29          6           0       -5.347968   -0.117012   -0.759873
     30          6           0       -4.559960    3.865228   -0.508522
     31          6           0       -1.353525    4.204766   -0.389727
     32          6           0        6.911086   -3.404525   -1.109195
     33          6           0        5.818878   -0.554076   -0.018697
     34          6           0        0.094773    4.071657   -0.311818
     35          6           0        1.063298    5.087709   -0.496630
     36          6           0        2.324588    4.592436   -0.249727
     37          6           0       -2.990399   -4.016125   -0.075706
     38          6           0        5.458745    0.578499    0.808456
     39          6           0       -6.739608   -0.718090   -0.943183
     40          6           0        3.601337    5.273128   -0.396460
     41          6           0        1.989830    3.192427    0.251703
     42          6           0        0.789006    6.397566   -0.965079
     43          6           0        4.250583    5.551858    1.054634
     44          1           0        0.445694    0.443187    0.144222
     45          1           0       -3.138229   -1.104443    1.075707
     46          1           0       -2.404562   -2.841642    2.444545
     47          1           0       -0.995782   -3.737632    2.938329
     48          1           0        5.441422   -2.393886   -2.421233
     49          1           0       -5.302174    0.207774    1.392815
     50          1           0       -6.175195    1.363644    0.721899
     51          1           0        2.943921   -0.033711    0.597667
     52          1           0       -0.635485    1.785166    0.888664
     53          1           0        1.768286   -4.589429    1.036544
     54          1           0        2.594826   -3.339981    2.187165
     55          1           0        0.925069   -4.225338    2.680441
     56          1           0        2.315202   -3.467292   -0.829322
     57          1           0       -0.994518   -4.826067    0.486707
     58          1           0       -2.438243   -5.569268    1.559776
     59          1           0       -4.683964   -0.927933   -0.727539
     60          1           0       -5.069317    0.514775   -1.855800
     61          1           0       -4.379004    4.741965   -0.068721
     62          1           0       -5.593283    3.712615   -0.401849
     63          1           0       -4.326070    4.240402   -1.525756
     64          1           0       -1.702790    5.082017   -0.862272
     65          1           0        7.535351   -2.686651   -1.431637
     66          1           0        7.108624   -4.151558   -1.753186
     67          1           0        6.966803   -3.785802   -0.118729
     68          1           0        6.887853   -0.421654   -0.477834
     69          1           0        4.942526    1.262299    0.092507
     70          1           0        6.305920    0.981321    1.106108
     71          1           0        4.823286    0.355036    1.648264
     72          1           0        3.525848    6.364202   -0.915627
     73          1           0        4.224665    4.547363   -0.914023
     74          1           0        0.592575    6.480570   -1.979387
     75          1           0        1.666794    7.101328   -1.146667
     76          1           0        0.172187    6.970164   -0.249639
     77          1           0        3.623128    6.198073    1.694745
     78          1           0        5.139794    5.993092    0.790843
     79          1           0        4.463815    4.479556    1.526082
     80          1           0       -3.856152   -4.434841   -1.689259
     81          1           0       -7.760854   -1.817300   -1.868387
 ---------------------------------------------------------------------

 SCF Done:  E(RB3LYP) =  -1949.10371389     A.U. after   23 cycles

 Excitation energies and oscillator strengths:

 Excited State   1:      Singlet-A      1.7717 eV  699.80 nm  f=0.3297  <S**2>=0.000
     154 ->157         0.10296
     156 ->157         0.70478
     156 <-157        -0.12935
 This state for optimization and/or second-order correction.
 Total Energy, E(TD-HF/TD-DFT) =  -1949.03860488
 Copying the excited state density for this state as the 1-particle RhoCI density.

 The electronic state is 1-A.
 Alpha  occ. eigenvalues --  -19.20980 -19.19978 -19.15261 -19.13719 -19.10261
 Alpha  occ. eigenvalues --  -19.08483 -14.38446 -14.37433 -14.36106 -14.27860
 Alpha  occ. eigenvalues --  -10.35000 -10.32614 -10.28605 -10.25344 -10.24961
 Alpha  occ. eigenvalues --  -10.24896 -10.24552 -10.24500 -10.23926 -10.23314
 Alpha  occ. eigenvalues --  -10.22721 -10.22606 -10.21670 -10.21559 -10.21305
 Alpha  occ. eigenvalues --  -10.21196 -10.20951 -10.20768 -10.20605 -10.20473
 Alpha  occ. eigenvalues --  -10.20323 -10.20297 -10.20087 -10.19692 -10.19549
 Alpha  occ. eigenvalues --  -10.19108 -10.18460 -10.17844 -10.17836 -10.17748
 Alpha  occ. eigenvalues --  -10.17490 -10.16697 -10.16444  -1.10219  -1.09829
 Alpha  occ. eigenvalues --   -1.02587  -1.01636  -1.00913  -0.98806  -0.98313
 Alpha  occ. eigenvalues --   -0.97631  -0.94359  -0.91450  -0.83001  -0.81378
 Alpha  occ. eigenvalues --   -0.80756  -0.80680  -0.79875  -0.78873  -0.77508
 Alpha  occ. eigenvalues --   -0.77106  -0.76749  -0.75390  -0.74491  -0.72256
 Alpha  occ. eigenvalues --   -0.71530  -0.70383  -0.68569  -0.68107  -0.67977
 Alpha  occ. eigenvalues --   -0.66621  -0.65692  -0.64711  -0.62482  -0.61090
 Alpha  occ. eigenvalues --   -0.60149  -0.59321  -0.58478  -0.57278  -0.56647
 Alpha  occ. eigenvalues --   -0.56031  -0.55191  -0.54842  -0.53308  -0.52685
 Alpha  occ. eigenvalues --   -0.52413  -0.51707  -0.50729  -0.50381  -0.50001
 Alpha  occ. eigenvalues --   -0.49522  -0.48875  -0.48435  -0.48100  -0.48031
 Alpha  occ. eigenvalues --   -0.47586  -0.46757  -0.46552  -0.46163  -0.45260
 Alpha  occ. eigenvalues --   -0.45069  -0.44718  -0.44539  -0.44098  -0.43849
 Alpha  occ. eigenvalues --   -0.43347  -0.43192  -0.42670  -0.42487  -0.42301
 Alpha  occ. eigenvalues --   -0.42011  -0.41786  -0.41556  -0.41371  -0.41307
 Alpha  occ. eigenvalues --   -0.41125  -0.40782  -0.40559  -0.40428  -0.40137
 Alpha  occ. eigenvalues --   -0.39917  -0.39420  -0.39222  -0.38819  -0.38208
 Alpha  occ. eigenvalues --   -0.37528  -0.37129  -0.36943  -0.36426  -0.36406
 Alpha  occ. eigenvalues --   -0.36124  -0.35686  -0.35653  -0.35307  -0.34366
 Alpha  occ. eigenvalues --   -0.34271  -0.33715  -0.33191  -0.33106  -0.32991
 Alpha  occ. eigenvalues --   -0.32802  -0.32120  -0.31856  -0.30063  -0.29124
 Alpha  occ. eigenvalues --   -0.28780  -0.26692  -0.26282  -0.25744  -0.25301
 Alpha  occ. eigenvalues --   -0.25054  -0.24585  -0.22654  -0.22145  -0.21715
 Alpha  occ. eigenvalues --   -0.18141
 Alpha virt. eigenvalues --   -0.11184  -0.05964  -0.05047  -0.04134  -0.01145
 Alpha virt. eigenvalues --    0.00484   0.02073   0.02484   0.02825   0.03384
 Alpha virt. eigenvalues --    0.04015   0.04752   0.05149   0.05384   0.06033

 Mulliken charges:
               1
     1  O   -0.229752
     2  O   -0.197713
     3  O   -0.203772
     4  O   -0.255766
     5  O   -0.249197
     6  O   -0.283633
     7  N   -0.114434
     8  N   -0.079845
     9  N   -0.108697
    10  N   -0.259656
    11  C   -0.161098
    12  C    0.112193
    13  C   -0.129273
    14  C    0.030065
    15  C   -0.093447
    16  C    0.016629
    17  C   -0.005377
    18  C   -0.163243
    19  C    0.104052
    20  C   -0.112790
    21  C    0.091497
    22  C    0.152418
    23  C    0.015668
    24  C    0.047586
    25  C    0.009200
    26  C   -0.001658
    27  C    0.103859
    28  C   -0.067156
    29  C   -0.023381
    30  C    0.219303
    31  C   -0.103923
    32  C    0.199667
    33  C   -0.240000
    34  C    0.062615
    35  C   -0.113715
    36  C   -0.106114
    37  C    0.198807
    38  C    0.179008
    39  C    0.164572
    40  C    0.012227
    41  C    0.108621
    42  C    0.105719
    43  C   -0.012198
    44  H    0.175665
    45  H   -0.000139
    46  H    0.009454
    47  H    0.035230
    48  H    0.044121
    49  H    0.019469
    50  H    0.031783
    51  H   -0.083193
    52  H    0.167366
    53  H    0.036193
    54  H    0.060474
    55  H    0.026814
    56  H    0.141264
    57  H    0.052347
    58  H    0.092122
    59  H    0.030540
    60  H    0.055776
    61  H   -0.039952
    62  H    0.008131
    63  H   -0.001937
    64  H   -0.027743
    65  H   -0.027934
    66  H   -0.018550
    67  H    0.011247
    68  H    0.014234
    69  H    0.066916
    70  H   -0.035910
    71  H    0.032004
    72  H    0.023174
    73  H    0.013267
    74  H   -0.002928
    75  H   -0.023010
    76  H    0.023833
    77  H    0.024800
    78  H   -0.007916
    79  H    0.055642
    80  H    0.206538
    81  H    0.192942
 Sum of Mulliken charges =  -0.00000

 Dipole moment (field-independent basis, Debye):
    X=             -2.3750    Y=              0.9278    Z=             -1.2312  Tot=              2.8315
 Quadrupole moment (field-independent basis, Debye-Ang):
   XX=           -247.4645   YY=           -247.5870   ZZ=           -252.7873
   XY=             16.0322   XZ=             10.9475   YZ=            -15.0609

 Normal termination of Gaussian 16 at Thu Jun 27 16:32:26 2019.
