 Gaussian 16, Revision A.03,
 Gaussian 16:  ES64L-G16RevA.03 25-Dec-2016

 --------------------------
 # td=(NStates=1) B3LYP/SVP
 --------------------------

 --
 TD
 --
 Symbolic Z-matrix:
 Charge =  0 Multiplicity = 1

                         Standard orientation:
 ---------------------------------------------------------------------
 Center     Atomic      Atomic             Coordinates (Angstroms)
 Number     Number       Type             X           Y           Z
 ---------------------------------------------------------------------
      1          8           0        4.187646   -4.917185   -1.881869
      2          8           0       -2.707828   -4.743672   -1.127175
      3          8           0       -6.852925   -1.461778   -2.056761
      4          8           0       -3.975114   -3.290766    0.149212
      5          8           0       -7.574046   -0.921922    0.047285
      6          8           0        2.926257    2.432860    0.397890
      7          7           0        0.288324   -0.391597    0.515764
      8          7           0       -1.551072    1.834126    0.400664
      9          7           0        3.269227   -3.146038   -0.645238
     10          7           0        0.648989    3.001416    0.137327
     11          6           0       -0.541078   -2.339162    1.333786
     12          6           0       -0.847193   -1.022165    0.819015
     13          6           0        0.766970   -2.608785    1.240109
     14          6           0        1.421713   -1.382855    0.608274
     15          6           0       -3.787908    1.472550    0.183358
     16          6           0       -2.506660    0.870853    0.501577
     17          6           0       -2.246772   -0.428429    0.821890
     18          6           0       -3.581526    2.812860   -0.027096
     19          6           0       -1.610888   -3.318089    2.106793
     20          6           0        5.509030   -2.860035   -1.320094
     21          6           0        3.663372   -1.907577   -0.121654
     22          6           0       -2.133238    3.091334    0.145872
     23          6           0        4.958434   -1.566950   -0.498201
     24          6           0       -5.066736    0.689306    0.308215
     25          6           0        2.734266   -1.017334    0.303342
     26          6           0        1.558725   -3.682689    1.865980
     27          6           0        4.349201   -3.854551   -1.314588
     28          6           0       -1.958777   -4.420541    1.163824
     29          6           0       -5.344037   -0.215797   -0.830737
     30          6           0       -4.528903    3.782271   -0.508086
     31          6           0       -1.408654    4.162812   -0.152551
     32          6           0        6.659672   -3.484786   -0.545424
     33          6           0        5.760947   -0.506922   -0.387282
     34          6           0        0.056778    4.187062   -0.027114
     35          6           0        0.993311    5.191486   -0.388779
     36          6           0        2.248734    4.615615   -0.244833
     37          6           0       -2.911950   -3.973842    0.055827
     38          6           0        5.522875    0.812658    0.359736
     39          6           0       -6.671605   -0.870179   -0.870890
     40          6           0        3.526235    5.289916   -0.389919
     41          6           0        2.067400    3.269567    0.159138
     42          6           0        0.641032    6.545425   -0.805305
     43          6           0        4.243235    5.370674    0.993676
     44          1           0       -0.019229    0.592139    0.128844
     45          1           0       -3.086461   -1.152360    0.857357
     46          1           0       -2.434617   -2.645177    2.405347
     47          1           0       -1.229509   -3.651355    3.235113
     48          1           0        5.745491   -2.605419   -2.481649
     49          1           0       -5.166383    0.265244    1.259559
     50          1           0       -5.709569    1.549612    0.242487
     51          1           0        2.798585   -0.082476    0.296886
     52          1           0       -0.626337    1.740478    0.671130
     53          1           0        1.222409   -4.574269    1.261879
     54          1           0        2.553295   -3.293326    2.091368
     55          1           0        1.302869   -4.002601    2.926617
     56          1           0        2.311428   -3.702153   -0.551841
     57          1           0       -1.234273   -4.869865    0.639494
     58          1           0       -2.411801   -5.189725    1.777965
     59          1           0       -4.683991   -1.140787   -1.136820
     60          1           0       -4.956542    0.488571   -1.760965
     61          1           0       -4.131650    4.691107    0.229675
     62          1           0       -5.593697    3.508727   -0.404107
     63          1           0       -4.235018    4.178938   -1.449162
     64          1           0       -1.789434    5.198150   -0.328005
     65          1           0        7.648369   -2.964858   -0.785509
     66          1           0        6.830627   -4.610962   -0.882785
     67          1           0        6.351492   -3.493312    0.497534
     68          1           0        6.828388   -0.430202   -1.027661
     69          1           0        4.556273    1.539738    0.104960
     70          1           0        6.457628    1.407130    0.581254
     71          1           0        5.154515    0.617081    1.398146
     72          1           0        3.542330    6.328447   -0.690740
     73          1           0        4.210701    4.716831   -1.056344
     74          1           0        0.034163    6.586963   -1.800010
     75          1           0        1.458360    7.046594   -1.109745
     76          1           0       -0.030658    7.031659    0.076994
     77          1           0        3.898465    5.991989    1.811350
     78          1           0        5.278889    5.639086    0.887350
     79          1           0        4.488763    4.332513    1.319295
     80          1           0       -3.554161   -5.046200   -1.682307
     81          1           0       -7.615945   -2.083801   -1.868387
 ---------------------------------------------------------------------

 SCF Done:  E(RB3LYP) =  -1949.00965693     A.U. after   21 cycles

 Excitation energies and oscillator strengths:

 Excited State   1:      Singlet-A      1.2373 eV 1002.07 nm  f=0.1902  <S**2>=0.000
     156 ->157         0.72149
     156 <-157        -0.17366
 This state for optimization and/or second-order correction.
 Total Energy, E(TD-HF/TD-DFT) =  -1948.96418786
 Copying the excited state density for this state as the 1-particle RhoCI density.

 The electronic state is 1-A.
 Alpha  occ. eigenvalues --  -19.18741 -19.18515 -19.14849 -19.12071 -19.11870
 Alpha  occ. eigenvalues --  -19.11476 -14.38069 -14.36762 -14.36130 -14.28491
 Alpha  occ. eigenvalues --  -10.34669 -10.32271 -10.29155 -10.26879 -10.24333
 Alpha  occ. eigenvalues --  -10.24310 -10.23574 -10.23359 -10.22706 -10.22675
 Alpha  occ. eigenvalues --  -10.22595 -10.21915 -10.21770 -10.21554 -10.20989
 Alpha  occ. eigenvalues --  -10.20910 -10.20909 -10.20721 -10.20590 -10.20502
 Alpha  occ. eigenvalues --  -10.20166 -10.20040 -10.19996 -10.19655 -10.19647
 Alpha  occ. eigenvalues --  -10.19629 -10.19493 -10.19403 -10.19239 -10.18716
 Alpha  occ. eigenvalues --  -10.17998 -10.17309 -10.17020  -1.09102  -1.06376
 Alpha  occ. eigenvalues --   -1.02907  -1.02587  -0.98742  -0.98503  -0.96863
 Alpha  occ. eigenvalues --   -0.96011  -0.93595  -0.92554  -0.83599  -0.82469
 Alpha  occ. eigenvalues --   -0.81774  -0.80557  -0.80347  -0.80017  -0.78466
 Alpha  occ. eigenvalues --   -0.78006  -0.76578  -0.75173  -0.73991  -0.72500
 Alpha  occ. eigenvalues --   -0.71910  -0.70136  -0.69589  -0.68764  -0.67182
 Alpha  occ. eigenvalues --   -0.66284  -0.65321  -0.63359  -0.62762  -0.61832
 Alpha  occ. eigenvalues --   -0.60045  -0.59547  -0.58679  -0.57967  -0.56985
 Alpha  occ. eigenvalues --   -0.56279  -0.55517  -0.53896  -0.53415  -0.52710
 Alpha  occ. eigenvalues --   -0.51955  -0.51616  -0.51423  -0.50401  -0.49975
 Alpha  occ. eigenvalues --   -0.49376  -0.48445  -0.48147  -0.47679  -0.47314
 Alpha  occ. eigenvalues --   -0.46991  -0.46575  -0.46347  -0.46093  -0.45893
 Alpha  occ. eigenvalues --   -0.45398  -0.45168  -0.44697  -0.44598  -0.44015
 Alpha  occ. eigenvalues --   -0.43270  -0.43016  -0.42821  -0.42527  -0.42464
 Alpha  occ. eigenvalues --   -0.42147  -0.41925  -0.41836  -0.41569  -0.41366
 Alpha  occ. eigenvalues --   -0.40767  -0.40492  -0.40130  -0.40027  -0.39599
 Alpha  occ. eigenvalues --   -0.39360  -0.38951  -0.38912  -0.38165  -0.37972
 Alpha  occ. eigenvalues --   -0.37792  -0.37396  -0.36580  -0.36325  -0.35865
 Alpha  occ. eigenvalues --   -0.35783  -0.35542  -0.34790  -0.34646  -0.34298
 Alpha  occ. eigenvalues --   -0.33959  -0.33792  -0.33369  -0.33093  -0.32840
 Alpha  occ. eigenvalues --   -0.32434  -0.31273  -0.30736  -0.29739  -0.29145
 Alpha  occ. eigenvalues --   -0.28421  -0.27398  -0.26614  -0.26117  -0.25842
 Alpha  occ. eigenvalues --   -0.25567  -0.25427  -0.24608  -0.23097  -0.21443
 Alpha  occ. eigenvalues --   -0.16313
 Alpha virt. eigenvalues --   -0.11340  -0.06768  -0.05290  -0.03872  -0.01636
 Alpha virt. eigenvalues --   -0.00291   0.02004   0.02250   0.02850   0.03427
 Alpha virt. eigenvalues --    0.03698   0.04257   0.04938   0.05133   0.05434

 Mulliken charges:
               1
     1  O   -0.205639
     2  O   -0.299938
     3  O   -0.181438
     4  O   -0.258915
     5  O   -0.303354
     6  O   -0.197017
     7  N   -0.129969
     8  N   -0.075584
     9  N   -0.227142
    10  N   -0.342220
    11  C   -0.135470
    12  C   -0.014727
    13  C   -0.151887
    14  C    0.066514
    15  C   -0.165342
    16  C    0.093403
    17  C   -0.075866
    18  C   -0.117651
    19  C    0.017623
    20  C   -0.133418
    21  C    0.207070
    22  C    0.189721
    23  C    0.020591
    24  C    0.259208
    25  C    0.041225
    26  C    0.069167
    27  C    0.161059
    28  C    0.159762
    29  C   -0.120615
    30  C    0.069787
    31  C   -0.143594
    32  C    0.022925
    33  C   -0.171540
    34  C    0.040301
    35  C   -0.109475
    36  C   -0.114838
    37  C    0.180613
    38  C   -0.054268
    39  C    0.189098
    40  C    0.090012
    41  C    0.175338
    42  C    0.111263
    43  C   -0.025506
    44  H    0.173147
    45  H    0.027055
    46  H    0.025788
    47  H    0.040062
    48  H    0.067186
    49  H    0.013060
    50  H   -0.021783
    51  H   -0.155921
    52  H    0.095414
    53  H    0.034904
    54  H    0.041937
    55  H    0.018779
    56  H    0.177772
    57  H   -0.009618
    58  H    0.043589
    59  H    0.080866
    60  H    0.060610
    61  H    0.033865
    62  H    0.041286
    63  H    0.025113
    64  H   -0.014349
    65  H    0.033547
    66  H    0.039846
    67  H    0.022819
    68  H    0.035817
    69  H    0.119256
    70  H    0.010060
    71  H    0.011136
    72  H   -0.003240
    73  H    0.012963
    74  H    0.031767
    75  H   -0.030947
    76  H    0.054821
    77  H    0.017955
    78  H   -0.017912
    79  H    0.022569
    80  H    0.238121
    81  H    0.193396
 Sum of Mulliken charges =  -0.00000

 Dipole moment (field-independent basis, Debye):
    X=             -1.4987    Y=              1.3751    Z=             -0.2014  Tot=              2.0439
 Quadrupole moment (field-independent basis, Debye-Ang):
   XX=           -267.6846   YY=           -224.9726   ZZ=           -254.0753
   XY=             17.8274   XZ=             15.8545   YZ=            -14.4398

 Normal termination of Gaussian 16 at Sun Jun 30 05:58:17 2019.
