 Gaussian 16, Revision A.03,
 Gaussian 16:  ES64L-G16RevA.03 25-Dec-2016

 --------------------------
 # td=(NStates=1) B3LYP/SVP
 --------------------------

 --
 TD
 --
 Symbolic Z-matrix:
 Charge =  0 Multiplicity = 1

                         Standard orientation:
 ---------------------------------------------------------------------
 Center     Atomic      Atomic             Coordinates (Angstroms)
 Number     Number       Type             X           Y           Z
 ---------------------------------------------------------------------
      1          8           0        4.576256   -4.970147   -1.605556
      2          8           0       -2.945508   -4.910603   -1.110049
      3          8           0       -6.830223   -1.784156   -1.804110
      4          8           0       -3.638486   -3.182654   -0.006714
      5          8           0       -7.490653   -0.787768    0.172007
      6          8           0        3.042935    2.393291    0.259325
      7          7           0        0.220884   -0.463877    0.473555
      8          7           0       -1.631152    1.801673    0.274403
      9          7           0        3.448136   -3.128355   -0.622185
     10          7           0        0.753266    2.940815    0.185316
     11          6           0       -0.688577   -2.377281    1.362420
     12          6           0       -0.952222   -1.092028    0.943213
     13          6           0        0.735313   -2.503031    1.197747
     14          6           0        1.206006   -1.343989    0.604634
     15          6           0       -3.891167    1.522439    0.172148
     16          6           0       -2.599497    0.793761    0.444581
     17          6           0       -2.335969   -0.515444    0.773272
     18          6           0       -3.599432    2.799562   -0.204763
     19          6           0       -1.629371   -3.273663    2.045023
     20          6           0        5.599496   -2.627824   -1.343322
     21          6           0        3.666722   -1.812951   -0.200679
     22          6           0       -2.144673    2.951533   -0.122292
     23          6           0        5.105145   -1.556033   -0.437301
     24          6           0       -5.328922    0.873101    0.269170
     25          6           0        2.613664   -1.018949    0.320106
     26          6           0        1.421829   -3.689791    1.758808
     27          6           0        4.473414   -3.749244   -1.261591
     28          6           0       -2.079903   -4.490936    1.103605
     29          6           0       -5.369095   -0.110226   -0.779406
     30          6           0       -4.594280    3.902919   -0.563758
     31          6           0       -1.356758    4.149042   -0.179140
     32          6           0        6.944462   -3.193340   -0.871195
     33          6           0        5.876520   -0.426048   -0.074509
     34          6           0        0.072323    4.031839   -0.134837
     35          6           0        0.991633    5.157828   -0.354465
     36          6           0        2.304531    4.731795   -0.315127
     37          6           0       -2.918274   -4.141489   -0.113883
     38          6           0        5.383999    0.654822    0.674268
     39          6           0       -6.651446   -0.947853   -0.753871
     40          6           0        3.565848    5.286914   -0.310011
     41          6           0        2.089562    3.217510    0.162432
     42          6           0        0.508321    6.593651   -0.770645
     43          6           0        4.267505    5.370062    1.149583
     44          1           0        0.350839    0.288871   -0.136789
     45          1           0       -3.102875   -1.128992    1.177492
     46          1           0       -2.573510   -2.880858    2.390866
     47          1           0       -1.366290   -3.824745    3.018087
     48          1           0        5.602431   -2.199566   -2.316100
     49          1           0       -5.335184    0.357286    1.215702
     50          1           0       -6.147644    1.736345    0.269972
     51          1           0        2.912337    0.066658    0.377009
     52          1           0       -0.702073    1.862469    0.756491
     53          1           0        1.350083   -4.543793    1.044817
     54          1           0        2.701948   -3.696329    1.947019
     55          1           0        1.091348   -4.160895    2.649748
     56          1           0        2.680010   -3.559592   -0.607675
     57          1           0       -1.044836   -4.901599    0.785786
     58          1           0       -2.480744   -5.320745    1.550351
     59          1           0       -4.476225   -1.009969   -0.703985
     60          1           0       -5.059529    0.404623   -1.853100
     61          1           0       -4.367796    4.708049    0.138952
     62          1           0       -5.752146    3.633183   -0.537064
     63          1           0       -4.564719    4.172666   -1.653326
     64          1           0       -1.737525    5.049238   -0.597393
     65          1           0        7.838081   -2.467928   -1.035975
     66          1           0        7.267056   -3.916304   -1.503173
     67          1           0        7.024559   -3.709482    0.048482
     68          1           0        6.917874   -0.453839   -0.222588
     69          1           0        4.765747    1.349520    0.017091
     70          1           0        6.076224    1.264861    1.376210
     71          1           0        4.369922    0.387219    1.135425
     72          1           0        3.381269    6.293219   -0.724048
     73          1           0        4.364230    4.634319   -0.879963
     74          1           0       -0.071559    6.787007   -1.637037
     75          1           0        1.263172    7.339551   -0.919461
     76          1           0        0.019931    7.042541    0.096386
     77          1           0        3.723651    6.066807    1.852644
     78          1           0        5.065067    5.589437    0.922917
     79          1           0        4.293974    4.413694    1.574609
     80          1           0       -3.786486   -4.652348   -1.725996
     81          1           0       -7.863358   -2.136012   -1.850519
 ---------------------------------------------------------------------

 SCF Done:  E(RB3LYP) =  -1949.03876254     A.U. after   16 cycles

 Excitation energies and oscillator strengths:

 Excited State   1:      Singlet-A      1.7341 eV  714.96 nm  f=0.2030  <S**2>=0.000
     156 ->157         0.70444
 This state for optimization and/or second-order correction.
 Total Energy, E(TD-HF/TD-DFT) =  -1948.97503388
 Copying the excited state density for this state as the 1-particle RhoCI density.

 The electronic state is 1-A.
 Alpha  occ. eigenvalues --  -19.21234 -19.19551 -19.12483 -19.12309 -19.10718
 Alpha  occ. eigenvalues --  -19.10270 -14.37534 -14.36863 -14.36010 -14.29079
 Alpha  occ. eigenvalues --  -10.32614 -10.32518 -10.28757 -10.26977 -10.25129
 Alpha  occ. eigenvalues --  -10.24550 -10.24206 -10.23470 -10.23361 -10.22966
 Alpha  occ. eigenvalues --  -10.22599 -10.21934 -10.21626 -10.21522 -10.21394
 Alpha  occ. eigenvalues --  -10.21327 -10.20972 -10.20840 -10.20411 -10.20063
 Alpha  occ. eigenvalues --  -10.19777 -10.19588 -10.19429 -10.19232 -10.19181
 Alpha  occ. eigenvalues --  -10.19140 -10.19118 -10.19078 -10.18995 -10.18754
 Alpha  occ. eigenvalues --  -10.17030 -10.16988 -10.16160  -1.13696  -1.07427
 Alpha  occ. eigenvalues --   -1.01850  -1.01079  -0.99845  -0.99481  -0.98796
 Alpha  occ. eigenvalues --   -0.98246  -0.94717  -0.92234  -0.82822  -0.82379
 Alpha  occ. eigenvalues --   -0.81610  -0.80765  -0.80327  -0.78247  -0.77648
 Alpha  occ. eigenvalues --   -0.77122  -0.76196  -0.75243  -0.74229  -0.72450
 Alpha  occ. eigenvalues --   -0.70558  -0.69722  -0.69669  -0.69217  -0.67823
 Alpha  occ. eigenvalues --   -0.67000  -0.65914  -0.64149  -0.63695  -0.62566
 Alpha  occ. eigenvalues --   -0.61589  -0.59465  -0.58643  -0.58492  -0.57700
 Alpha  occ. eigenvalues --   -0.56783  -0.55814  -0.55242  -0.54621  -0.53582
 Alpha  occ. eigenvalues --   -0.52685  -0.51882  -0.51297  -0.50360  -0.50099
 Alpha  occ. eigenvalues --   -0.49681  -0.48958  -0.48376  -0.47473  -0.47181
 Alpha  occ. eigenvalues --   -0.47104  -0.46507  -0.46227  -0.45911  -0.45291
 Alpha  occ. eigenvalues --   -0.45216  -0.44559  -0.44205  -0.43921  -0.43676
 Alpha  occ. eigenvalues --   -0.43405  -0.42960  -0.42711  -0.42562  -0.42179
 Alpha  occ. eigenvalues --   -0.41993  -0.41775  -0.41324  -0.40849  -0.40687
 Alpha  occ. eigenvalues --   -0.40538  -0.40121  -0.39949  -0.39427  -0.39344
 Alpha  occ. eigenvalues --   -0.39026  -0.38883  -0.38522  -0.38502  -0.38079
 Alpha  occ. eigenvalues --   -0.37744  -0.37408  -0.36976  -0.36379  -0.36208
 Alpha  occ. eigenvalues --   -0.36088  -0.35844  -0.35421  -0.34973  -0.34680
 Alpha  occ. eigenvalues --   -0.34117  -0.33901  -0.33428  -0.33259  -0.32952
 Alpha  occ. eigenvalues --   -0.32548  -0.31707  -0.31626  -0.30033  -0.28457
 Alpha  occ. eigenvalues --   -0.27911  -0.27274  -0.26206  -0.25927  -0.25132
 Alpha  occ. eigenvalues --   -0.24855  -0.23689  -0.23362  -0.22881  -0.21390
 Alpha  occ. eigenvalues --   -0.18071
 Alpha virt. eigenvalues --   -0.10532  -0.05785  -0.04155  -0.01325  -0.00356
 Alpha virt. eigenvalues --    0.00463   0.00895   0.01644   0.01972   0.03801
 Alpha virt. eigenvalues --    0.04055   0.04400   0.04978   0.05643   0.06052

 Mulliken charges:
               1
     1  O   -0.272704
     2  O   -0.139883
     3  O   -0.249315
     4  O   -0.254000
     5  O   -0.278110
     6  O   -0.265579
     7  N   -0.013385
     8  N   -0.084857
     9  N    0.005739
    10  N   -0.256309
    11  C   -0.030093
    12  C    0.001184
    13  C   -0.097594
    14  C    0.021886
    15  C   -0.121879
    16  C    0.090764
    17  C   -0.009095
    18  C   -0.125506
    19  C    0.088427
    20  C   -0.070809
    21  C    0.070436
    22  C    0.069126
    23  C   -0.035618
    24  C    0.209000
    25  C   -0.116119
    26  C   -0.004939
    27  C    0.137797
    28  C   -0.027948
    29  C   -0.190804
    30  C    0.047495
    31  C   -0.079977
    32  C    0.109546
    33  C   -0.073825
    34  C    0.057581
    35  C   -0.096216
    36  C   -0.116981
    37  C    0.110340
    38  C    0.022097
    39  C    0.209670
    40  C   -0.020032
    41  C    0.154511
    42  C    0.102404
    43  C    0.176452
    44  H    0.123852
    45  H    0.005024
    46  H    0.003135
    47  H    0.017198
    48  H    0.030998
    49  H    0.004963
    50  H    0.044168
    51  H    0.021531
    52  H    0.167453
    53  H    0.023214
    54  H    0.047956
    55  H    0.005754
    56  H    0.039465
    57  H    0.022854
    58  H    0.011010
    59  H    0.110553
    60  H    0.056954
    61  H    0.043734
    62  H    0.027587
    63  H    0.034391
    64  H   -0.026406
    65  H    0.009154
    66  H   -0.025902
    67  H    0.003425
    68  H   -0.033719
    69  H    0.073562
    70  H    0.031182
    71  H    0.026052
    72  H    0.001266
    73  H    0.034018
    74  H    0.017238
    75  H   -0.019115
    76  H    0.007036
    77  H    0.020260
    78  H   -0.106248
    79  H    0.011411
    80  H    0.240505
    81  H    0.241612
 Sum of Mulliken charges =  -0.00000

 Dipole moment (field-independent basis, Debye):
    X=             -4.8466    Y=              1.7148    Z=             -1.3289  Tot=              5.3100
 Quadrupole moment (field-independent basis, Debye-Ang):
   XX=           -250.6058   YY=           -239.5461   ZZ=           -251.3673
   XY=             27.1699   XZ=             20.2233   YZ=            -10.9605

 Normal termination of Gaussian 16 at Tue Jul  2 09:30:24 2019.
