 Gaussian 16, Revision A.03,
 Gaussian 16:  ES64L-G16RevA.03 25-Dec-2016

 --------------------------
 # td=(NStates=1) B3LYP/SVP
 --------------------------

 --
 TD
 --
 Symbolic Z-matrix:
 Charge =  0 Multiplicity = 1

                         Standard orientation:
 ---------------------------------------------------------------------
 Center     Atomic      Atomic             Coordinates (Angstroms)
 Number     Number       Type             X           Y           Z
 ---------------------------------------------------------------------
      1          8           0        4.432148   -4.824774   -1.737268
      2          8           0       -2.651535   -5.076200   -1.001828
      3          8           0       -6.926949   -1.950727   -1.816842
      4          8           0       -3.543482   -3.323035    0.127856
      5          8           0       -7.749557   -0.746320   -0.100485
      6          8           0        2.939425    2.581018    0.344239
      7          7           0        0.302903   -0.446236    0.550544
      8          7           0       -1.606454    1.803014    0.319034
      9          7           0        3.355112   -3.048568   -0.742465
     10          7           0        0.691495    2.995215    0.087398
     11          6           0       -0.523267   -2.434153    1.283791
     12          6           0       -0.889886   -1.129506    0.869438
     13          6           0        0.893429   -2.538276    1.168965
     14          6           0        1.378696   -1.338559    0.563033
     15          6           0       -3.856113    1.364617    0.276898
     16          6           0       -2.492437    0.758863    0.523727
     17          6           0       -2.223000   -0.593716    0.825003
     18          6           0       -3.704421    2.756215    0.013591
     19          6           0       -1.328745   -3.363104    2.013684
     20          6           0        5.619306   -2.697733   -1.356079
     21          6           0        3.623011   -1.766035   -0.290229
     22          6           0       -2.263924    3.000543    0.157106
     23          6           0        5.027119   -1.487737   -0.612737
     24          6           0       -5.083574    0.609135    0.327765
     25          6           0        2.690494   -0.871395    0.252203
     26          6           0        1.752643   -3.707838    1.866247
     27          6           0        4.466241   -3.681940   -1.347678
     28          6           0       -1.817749   -4.664207    1.256227
     29          6           0       -5.519866   -0.261013   -0.939857
     30          6           0       -4.723072    3.743748   -0.404554
     31          6           0       -1.503624    4.140981   -0.255399
     32          6           0        6.948193   -3.272544   -0.897176
     33          6           0        5.751986   -0.375017   -0.122685
     34          6           0       -0.047077    4.104545   -0.284171
     35          6           0        0.853467    5.285844   -0.469504
     36          6           0        2.135297    4.802000   -0.291028
     37          6           0       -2.769663   -4.299555    0.100558
     38          6           0        5.373172    0.750613    0.693889
     39          6           0       -6.841839   -0.973808   -0.897163
     40          6           0        3.449887    5.587721   -0.305437
     41          6           0        1.971594    3.335389    0.083612
     42          6           0        0.366083    6.719330   -0.767591
     43          6           0        4.144297    5.567098    1.125169
     44          1           0        0.499185    0.424326   -0.051592
     45          1           0       -3.135505   -1.139997    1.239639
     46          1           0       -2.255309   -2.974050    2.416478
     47          1           0       -0.812384   -3.618418    2.993411
     48          1           0        5.700095   -2.559069   -2.362202
     49          1           0       -5.050482   -0.050774    1.123065
     50          1           0       -5.795444    1.438321    0.397323
     51          1           0        2.755882    0.328778    0.153147
     52          1           0       -0.529857    1.930884    0.380118
     53          1           0        1.781704   -4.718534    1.393336
     54          1           0        2.865667   -3.465561    1.865316
     55          1           0        1.671575   -3.900147    2.927234
     56          1           0        2.443028   -3.515751   -0.653161
     57          1           0       -1.001911   -5.218266    0.879275
     58          1           0       -2.181233   -5.387643    1.880791
     59          1           0       -4.816371   -0.931107   -1.070086
     60          1           0       -5.592127    0.510263   -1.764983
     61          1           0       -4.740107    4.576556    0.359342
     62          1           0       -5.728744    3.331288   -0.565212
     63          1           0       -4.302832    4.262071   -1.226954
     64          1           0       -2.048684    4.981921   -0.510823
     65          1           0        7.787291   -2.759865   -1.077298
     66          1           0        7.054377   -4.277355   -1.368093
     67          1           0        6.888944   -3.522790    0.198921
     68          1           0        6.872215   -0.491665   -0.521753
     69          1           0        4.426985    1.399397    0.059695
     70          1           0        6.287167    1.360735    1.135735
     71          1           0        4.850318    0.278138    1.663787
     72          1           0        3.360838    6.654532   -0.616230
     73          1           0        4.264225    5.144960   -0.908763
     74          1           0        0.045212    6.980785   -1.969683
     75          1           0        1.146365    7.669890   -0.567712
     76          1           0       -0.495590    7.036637   -0.223927
     77          1           0        3.439010    6.067427    1.897203
     78          1           0        5.052764    6.131375    1.122464
     79          1           0        4.222303    4.569518    1.478274
     80          1           0       -3.410160   -4.980334   -1.476955
     81          1           0       -7.860165   -2.393176   -1.613778
 ---------------------------------------------------------------------

 SCF Done:  E(RB3LYP) =  -1949.16474985     A.U. after   17 cycles

 Excitation energies and oscillator strengths:

 Excited State   1:      Singlet-A      1.6018 eV  774.05 nm  f=0.2984  <S**2>=0.000
     156 ->157         0.71099
     156 <-157        -0.12722
 This state for optimization and/or second-order correction.
 Total Energy, E(TD-HF/TD-DFT) =  -1949.10588651
 Copying the excited state density for this state as the 1-particle RhoCI density.

 The electronic state is 1-A.
 Alpha  occ. eigenvalues --  -19.19558 -19.19100 -19.14282 -19.12288 -19.11764
 Alpha  occ. eigenvalues --  -19.09376 -14.37935 -14.37395 -14.35676 -14.29301
 Alpha  occ. eigenvalues --  -10.34223 -10.32023 -10.29736 -10.26165 -10.24946
 Alpha  occ. eigenvalues --  -10.24013 -10.23826 -10.23789 -10.23774 -10.23517
 Alpha  occ. eigenvalues --  -10.22377 -10.21791 -10.21513 -10.21308 -10.20908
 Alpha  occ. eigenvalues --  -10.20681 -10.20632 -10.20598 -10.20493 -10.20463
 Alpha  occ. eigenvalues --  -10.20392 -10.20310 -10.20148 -10.20102 -10.20088
 Alpha  occ. eigenvalues --  -10.20081 -10.19454 -10.19441 -10.19407 -10.19278
 Alpha  occ. eigenvalues --  -10.19138 -10.18532 -10.16945  -1.11664  -1.09102
 Alpha  occ. eigenvalues --   -1.04304  -1.01191  -0.99782  -0.99264  -0.97284
 Alpha  occ. eigenvalues --   -0.96338  -0.95244  -0.91439  -0.82689  -0.82132
 Alpha  occ. eigenvalues --   -0.81522  -0.80537  -0.78623  -0.78266  -0.77475
 Alpha  occ. eigenvalues --   -0.77205  -0.76294  -0.74460  -0.73304  -0.72188
 Alpha  occ. eigenvalues --   -0.71529  -0.69887  -0.69030  -0.68289  -0.67940
 Alpha  occ. eigenvalues --   -0.67108  -0.65312  -0.63892  -0.63215  -0.61699
 Alpha  occ. eigenvalues --   -0.60509  -0.59325  -0.58907  -0.58531  -0.56673
 Alpha  occ. eigenvalues --   -0.55817  -0.55085  -0.54541  -0.52828  -0.52366
 Alpha  occ. eigenvalues --   -0.52059  -0.51965  -0.50814  -0.50542  -0.49873
 Alpha  occ. eigenvalues --   -0.49281  -0.48973  -0.48799  -0.48113  -0.47958
 Alpha  occ. eigenvalues --   -0.47397  -0.46669  -0.45843  -0.45667  -0.44745
 Alpha  occ. eigenvalues --   -0.44333  -0.44085  -0.43850  -0.43771  -0.43524
 Alpha  occ. eigenvalues --   -0.43179  -0.43020  -0.42659  -0.42503  -0.42121
 Alpha  occ. eigenvalues --   -0.41769  -0.41408  -0.41003  -0.40560  -0.40432
 Alpha  occ. eigenvalues --   -0.40319  -0.40201  -0.40022  -0.39850  -0.39546
 Alpha  occ. eigenvalues --   -0.39397  -0.39042  -0.38978  -0.38867  -0.38726
 Alpha  occ. eigenvalues --   -0.37843  -0.37606  -0.37286  -0.37186  -0.36815
 Alpha  occ. eigenvalues --   -0.36233  -0.36025  -0.35460  -0.35201  -0.35032
 Alpha  occ. eigenvalues --   -0.34387  -0.34311  -0.33907  -0.33686  -0.32634
 Alpha  occ. eigenvalues --   -0.32055  -0.31960  -0.31666  -0.29903  -0.29463
 Alpha  occ. eigenvalues --   -0.27856  -0.27721  -0.26978  -0.26035  -0.25669
 Alpha  occ. eigenvalues --   -0.24419  -0.24351  -0.24135  -0.23052  -0.21509
 Alpha  occ. eigenvalues --   -0.17350
 Alpha virt. eigenvalues --   -0.10834  -0.06047  -0.04579  -0.02506  -0.00138
 Alpha virt. eigenvalues --    0.00042   0.01615   0.02939   0.03473   0.03689
 Alpha virt. eigenvalues --    0.04199   0.04448   0.05058   0.05749   0.05991

 Mulliken charges:
               1
     1  O   -0.193272
     2  O   -0.125438
     3  O   -0.215069
     4  O   -0.256087
     5  O   -0.250646
     6  O   -0.282018
     7  N   -0.145214
     8  N   -0.134732
     9  N   -0.136784
    10  N   -0.278182
    11  C   -0.054006
    12  C    0.100577
    13  C   -0.138526
    14  C    0.048825
    15  C   -0.131335
    16  C    0.079048
    17  C   -0.052459
    18  C   -0.151152
    19  C    0.058570
    20  C    0.047340
    21  C    0.115323
    22  C    0.081129
    23  C   -0.090652
    24  C    0.122639
    25  C   -0.163669
    26  C    0.026836
    27  C    0.084730
    28  C    0.093118
    29  C    0.080980
    30  C    0.142606
    31  C   -0.069208
    32  C    0.087406
    33  C   -0.121098
    34  C    0.088016
    35  C   -0.045769
    36  C   -0.147151
    37  C    0.135946
    38  C   -0.050482
    39  C    0.126794
    40  C    0.073931
    41  C    0.151668
    42  C   -0.024095
    43  C   -0.029695
    44  H    0.175750
    45  H    0.044050
    46  H    0.001503
    47  H    0.016913
    48  H    0.004453
    49  H   -0.005873
    50  H    0.005412
    51  H    0.071495
    52  H    0.169824
    53  H    0.025367
    54  H    0.020034
    55  H    0.021513
    56  H    0.139900
    57  H   -0.001171
    58  H    0.007635
    59  H   -0.013197
    60  H    0.042193
    61  H    0.023474
    62  H    0.027665
    63  H    0.008821
    64  H   -0.055710
    65  H   -0.008189
    66  H    0.024386
    67  H    0.012856
    68  H    0.013198
    69  H    0.157252
    70  H    0.038488
    71  H    0.053574
    72  H    0.001917
    73  H    0.012697
    74  H    0.040540
    75  H    0.038858
    76  H    0.019482
    77  H    0.004954
    78  H    0.006628
    79  H    0.030837
    80  H    0.148633
    81  H    0.215096
 Sum of Mulliken charges =  -0.00000

 Dipole moment (field-independent basis, Debye):
    X=             -2.1337    Y=             -1.2341    Z=             -0.4079  Tot=              2.4984
 Quadrupole moment (field-independent basis, Debye-Ang):
   XX=           -249.8374   YY=           -234.8097   ZZ=           -254.2240
   XY=             12.7181   XZ=             12.0286   YZ=            -14.7544

 Normal termination of Gaussian 16 at Fri Jun 28 10:35:25 2019.
