 Gaussian 16, Revision A.03,
 Gaussian 16:  ES64L-G16RevA.03 25-Dec-2016

 --------------------------
 # td=(NStates=1) B3LYP/SVP
 --------------------------

 --
 TD
 --
 Symbolic Z-matrix:
 Charge =  0 Multiplicity = 1

                         Standard orientation:
 ---------------------------------------------------------------------
 Center     Atomic      Atomic             Coordinates (Angstroms)
 Number     Number       Type             X           Y           Z
 ---------------------------------------------------------------------
      1          8           0        4.373602   -4.850158   -1.915911
      2          8           0       -2.756692   -4.831767   -1.156705
      3          8           0       -7.196044   -1.636726   -1.734055
      4          8           0       -3.914472   -3.352818    0.145135
      5          8           0       -7.778160   -0.243090   -0.086116
      6          8           0        3.070583    2.491139    0.424276
      7          7           0        0.296556   -0.574476    0.414484
      8          7           0       -1.506508    1.783402    0.249813
      9          7           0        3.282708   -3.114940   -0.730425
     10          7           0        0.798534    2.932178    0.175872
     11          6           0       -0.593002   -2.447253    1.345414
     12          6           0       -0.937025   -1.132842    0.848447
     13          6           0        0.812154   -2.634830    1.243162
     14          6           0        1.359396   -1.414757    0.621899
     15          6           0       -3.830385    1.458170    0.293678
     16          6           0       -2.603706    0.805956    0.504836
     17          6           0       -2.232130   -0.524918    0.946126
     18          6           0       -3.562552    2.744445   -0.151891
     19          6           0       -1.582440   -3.410816    2.002342
     20          6           0        5.587178   -2.756138   -1.162154
     21          6           0        3.588166   -1.867132   -0.226887
     22          6           0       -2.131696    2.892219   -0.066799
     23          6           0        4.951177   -1.560635   -0.411573
     24          6           0       -5.045962    0.736107    0.376079
     25          6           0        2.633895   -1.008945    0.343114
     26          6           0        1.531603   -3.841179    1.640060
     27          6           0        4.460955   -3.801335   -1.310125
     28          6           0       -1.896666   -4.541223    1.088105
     29          6           0       -5.356008   -0.348377   -0.711001
     30          6           0       -4.581699    3.869816   -0.366758
     31          6           0       -1.357380    4.010218   -0.316183
     32          6           0        6.919865   -3.417871   -0.753950
     33          6           0        5.787917   -0.563713   -0.054604
     34          6           0        0.101287    4.031115   -0.209359
     35          6           0        1.058309    5.288010   -0.376661
     36          6           0        2.393921    4.801938   -0.327351
     37          6           0       -2.852511   -4.113317   -0.102165
     38          6           0        5.352969    0.605562    0.721258
     39          6           0       -6.855816   -0.623941   -0.760587
     40          6           0        3.649532    5.384414   -0.397273
     41          6           0        2.211630    3.229746    0.139679
     42          6           0        0.615145    6.621688   -0.738164
     43          6           0        4.176219    5.886129    0.979671
     44          1           0        0.230973    0.284100   -0.054345
     45          1           0       -2.957689   -1.378580    0.845613
     46          1           0       -2.564728   -2.877158    2.297571
     47          1           0       -1.084048   -3.603583    3.172262
     48          1           0        5.665117   -2.190989   -2.174503
     49          1           0       -4.997755    0.122306    1.309857
     50          1           0       -5.940735    1.414656    0.151953
     51          1           0        2.720261   -0.017948    0.312125
     52          1           0       -0.537838    1.938917    0.653551
     53          1           0        1.472876   -4.693988    0.981037
     54          1           0        2.487474   -3.537822    1.856472
     55          1           0        1.027083   -4.515291    2.557543
     56          1           0        2.406875   -3.719283   -0.623239
     57          1           0       -1.013233   -5.074244    0.708147
     58          1           0       -2.591579   -5.237836    1.619264
     59          1           0       -4.864755   -1.406362   -0.734146
     60          1           0       -4.993789   -0.023339   -1.662095
     61          1           0       -4.629525    4.499079    0.526843
     62          1           0       -5.614475    3.426000   -0.709519
     63          1           0       -4.092176    4.762913   -1.226796
     64          1           0       -1.718270    4.824432   -0.662256
     65          1           0        7.558028   -2.578154   -0.718074
     66          1           0        7.291862   -4.346144   -1.327781
     67          1           0        6.707600   -3.697356    0.336792
     68          1           0        6.893157   -0.600348   -0.332076
     69          1           0        4.827803    1.457413    0.026732
     70          1           0        6.363987    1.029950    1.347969
     71          1           0        4.574684    0.357352    1.401390
     72          1           0        3.438801    6.192535   -1.177402
     73          1           0        4.470116    4.603550   -0.705380
     74          1           0       -0.287768    6.764158   -1.485468
     75          1           0        1.413783    7.080273   -1.358612
     76          1           0        0.263768    7.159137    0.146314
     77          1           0        3.447777    6.702928    1.482251
     78          1           0        5.049245    6.314095    0.795921
     79          1           0        4.018381    4.912993    1.700344
     80          1           0       -3.453522   -4.497771   -1.815474
     81          1           0       -8.111377   -1.784240   -1.546273
 ---------------------------------------------------------------------

 SCF Done:  E(RB3LYP) =  -1949.04541431     A.U. after   17 cycles

 Excitation energies and oscillator strengths:

 Excited State   1:      Singlet-A      1.7111 eV  724.60 nm  f=0.3722  <S**2>=0.000
     156 ->157         0.70990
     156 <-157        -0.12707
 This state for optimization and/or second-order correction.
 Total Energy, E(TD-HF/TD-DFT) =  -1948.98253334
 Copying the excited state density for this state as the 1-particle RhoCI density.

 The electronic state is 1-A.
 Alpha  occ. eigenvalues --  -19.23172 -19.15455 -19.13786 -19.13446 -19.13081
 Alpha  occ. eigenvalues --  -19.11947 -14.37685 -14.37051 -14.34681 -14.29073
 Alpha  occ. eigenvalues --  -10.35231 -10.32167 -10.30602 -10.27437 -10.25283
 Alpha  occ. eigenvalues --  -10.23603 -10.23397 -10.23276 -10.23162 -10.22960
 Alpha  occ. eigenvalues --  -10.22627 -10.22604 -10.22446 -10.21829 -10.21416
 Alpha  occ. eigenvalues --  -10.21197 -10.20688 -10.20555 -10.20509 -10.20420
 Alpha  occ. eigenvalues --  -10.20363 -10.20355 -10.20079 -10.19997 -10.19934
 Alpha  occ. eigenvalues --  -10.19853 -10.19811 -10.19695 -10.19478 -10.19299
 Alpha  occ. eigenvalues --  -10.19085 -10.17674 -10.16578  -1.13930  -1.07892
 Alpha  occ. eigenvalues --   -1.05050  -1.04214  -0.98790  -0.97633  -0.97452
 Alpha  occ. eigenvalues --   -0.96741  -0.94960  -0.89108  -0.83259  -0.82436
 Alpha  occ. eigenvalues --   -0.82168  -0.80723  -0.80471  -0.78187  -0.78039
 Alpha  occ. eigenvalues --   -0.77182  -0.76121  -0.75444  -0.74249  -0.72007
 Alpha  occ. eigenvalues --   -0.70942  -0.70471  -0.68785  -0.67964  -0.67548
 Alpha  occ. eigenvalues --   -0.67029  -0.64647  -0.63755  -0.62714  -0.62051
 Alpha  occ. eigenvalues --   -0.60841  -0.58543  -0.57448  -0.57303  -0.56859
 Alpha  occ. eigenvalues --   -0.55235  -0.54587  -0.54209  -0.53910  -0.52775
 Alpha  occ. eigenvalues --   -0.51960  -0.51318  -0.51001  -0.50864  -0.49876
 Alpha  occ. eigenvalues --   -0.49651  -0.49245  -0.48916  -0.48025  -0.47103
 Alpha  occ. eigenvalues --   -0.46901  -0.46748  -0.46288  -0.46130  -0.46002
 Alpha  occ. eigenvalues --   -0.45471  -0.45200  -0.44822  -0.44227  -0.43752
 Alpha  occ. eigenvalues --   -0.43517  -0.43434  -0.43190  -0.42720  -0.42109
 Alpha  occ. eigenvalues --   -0.41984  -0.41766  -0.41451  -0.41197  -0.40999
 Alpha  occ. eigenvalues --   -0.40852  -0.40642  -0.40413  -0.40013  -0.39781
 Alpha  occ. eigenvalues --   -0.39478  -0.39414  -0.38984  -0.38638  -0.38414
 Alpha  occ. eigenvalues --   -0.38031  -0.37534  -0.36979  -0.36749  -0.36366
 Alpha  occ. eigenvalues --   -0.36022  -0.35776  -0.35665  -0.35365  -0.34655
 Alpha  occ. eigenvalues --   -0.34531  -0.34465  -0.33487  -0.33280  -0.33069
 Alpha  occ. eigenvalues --   -0.32592  -0.32053  -0.31207  -0.29504  -0.28871
 Alpha  occ. eigenvalues --   -0.28308  -0.27859  -0.27247  -0.26418  -0.25489
 Alpha  occ. eigenvalues --   -0.24965  -0.24399  -0.23738  -0.22363  -0.21151
 Alpha  occ. eigenvalues --   -0.16895
 Alpha virt. eigenvalues --   -0.10079  -0.05996  -0.04709  -0.03928  -0.01666
 Alpha virt. eigenvalues --   -0.00414   0.01541   0.01758   0.02668   0.03166
 Alpha virt. eigenvalues --    0.03970   0.04452   0.04818   0.05037   0.05528

 Mulliken charges:
               1
     1  O   -0.191946
     2  O   -0.105120
     3  O   -0.247783
     4  O   -0.344721
     5  O   -0.212765
     6  O   -0.152048
     7  N   -0.061315
     8  N   -0.133279
     9  N   -0.204003
    10  N   -0.348107
    11  C   -0.113099
    12  C    0.004968
    13  C   -0.145552
    14  C    0.114450
    15  C   -0.024706
    16  C    0.062661
    17  C   -0.059020
    18  C   -0.126197
    19  C   -0.017684
    20  C   -0.133505
    21  C    0.147442
    22  C    0.118552
    23  C   -0.000468
    24  C    0.087516
    25  C   -0.085155
    26  C    0.056820
    27  C    0.172664
    28  C    0.085032
    29  C   -0.029380
    30  C   -0.008348
    31  C   -0.018222
    32  C    0.068744
    33  C   -0.169401
    34  C    0.057028
    35  C   -0.080696
    36  C   -0.174977
    37  C    0.138598
    38  C   -0.002227
    39  C    0.149074
    40  C    0.002003
    41  C    0.161457
    42  C    0.047379
    43  C    0.004021
    44  H    0.109407
    45  H    0.053128
    46  H    0.040384
    47  H    0.056982
    48  H    0.064537
    49  H    0.036567
    50  H    0.027434
    51  H   -0.058248
    52  H    0.170313
    53  H    0.020016
    54  H    0.016673
    55  H    0.017712
    56  H    0.161301
    57  H    0.025859
    58  H    0.056907
    59  H    0.076085
    60  H    0.019347
    61  H    0.045754
    62  H    0.055610
    63  H    0.038055
    64  H   -0.153029
    65  H    0.001698
    66  H    0.066295
    67  H    0.020306
    68  H    0.018168
    69  H    0.098837
    70  H    0.022629
    71  H    0.027086
    72  H    0.015335
    73  H    0.030927
    74  H    0.027779
    75  H    0.018517
    76  H    0.032656
    77  H    0.019467
    78  H   -0.004364
    79  H    0.054460
    80  H    0.223231
    81  H    0.157494
 Sum of Mulliken charges =  -0.00000

 Dipole moment (field-independent basis, Debye):
    X=              0.7664    Y=             -0.7402    Z=             -0.8820  Tot=              1.3832
 Quadrupole moment (field-independent basis, Debye-Ang):
   XX=           -260.3567   YY=           -234.3492   ZZ=           -257.7740
   XY=             12.2007   XZ=              9.6096   YZ=            -11.1903

 Normal termination of Gaussian 16 at Fri Jun 28 13:04:43 2019.
