 Gaussian 16, Revision A.03,
 Gaussian 16:  ES64L-G16RevA.03 25-Dec-2016

 --------------------------
 # td=(NStates=1) B3LYP/SVP
 --------------------------

 --
 TD
 --
 Symbolic Z-matrix:
 Charge =  0 Multiplicity = 1

                         Standard orientation:
 ---------------------------------------------------------------------
 Center     Atomic      Atomic             Coordinates (Angstroms)
 Number     Number       Type             X           Y           Z
 ---------------------------------------------------------------------
      1          8           0        4.206799   -4.955214   -1.871187
      2          8           0       -2.938328   -4.942238   -0.972911
      3          8           0       -7.115145   -1.399054   -1.750907
      4          8           0       -3.874759   -3.111943   -0.002779
      5          8           0       -7.580049   -0.415596    0.151489
      6          8           0        3.061570    2.398847    0.421568
      7          7           0        0.232291   -0.570390    0.528461
      8          7           0       -1.422451    1.913681    0.413073
      9          7           0        3.106421   -3.222862   -0.789975
     10          7           0        0.860741    2.921647    0.133073
     11          6           0       -0.716296   -2.354616    1.526683
     12          6           0       -0.941846   -1.107879    1.000470
     13          6           0        0.594083   -2.633474    1.279369
     14          6           0        1.231913   -1.443689    0.739206
     15          6           0       -3.686556    1.600562    0.101438
     16          6           0       -2.371003    0.961825    0.534924
     17          6           0       -2.182985   -0.439563    0.743317
     18          6           0       -3.393839    2.919904   -0.222977
     19          6           0       -1.845048   -3.259672    2.142495
     20          6           0        5.423497   -2.988679   -1.364535
     21          6           0        3.498995   -1.939484   -0.407650
     22          6           0       -1.946170    3.118898   -0.153102
     23          6           0        4.896076   -1.805199   -0.491646
     24          6           0       -5.010231    0.915542    0.191970
     25          6           0        2.567706   -1.102699    0.248785
     26          6           0        1.331958   -3.794523    1.732058
     27          6           0        4.189240   -3.850498   -1.411708
     28          6           0       -2.304895   -4.403730    1.223432
     29          6           0       -5.366053    0.019779   -0.959880
     30          6           0       -4.316882    4.033740   -0.573180
     31          6           0       -1.129408    4.224942   -0.396849
     32          6           0        6.578494   -3.766772   -0.862297
     33          6           0        5.796206   -0.798116   -0.126158
     34          6           0        0.279717    4.133592   -0.254083
     35          6           0        1.250683    5.172761   -0.398828
     36          6           0        2.495739    4.711742   -0.190114
     37          6           0       -3.157914   -4.059996    0.096776
     38          6           0        5.533711    0.368320    0.675177
     39          6           0       -6.750420   -0.605382   -0.799157
     40          6           0        3.810070    5.313473   -0.210570
     41          6           0        2.204660    3.190443    0.157508
     42          6           0        0.893537    6.579968   -0.861379
     43          6           0        4.277817    5.574928    1.318347
     44          1           0        0.496596    0.333765   -0.021682
     45          1           0       -3.033708   -1.176474    0.976309
     46          1           0       -2.700329   -2.659657    2.358954
     47          1           0       -1.877570   -3.821158    3.201522
     48          1           0        5.713973   -2.537807   -2.376553
     49          1           0       -5.287762    0.237693    1.130353
     50          1           0       -5.719293    1.978445    0.381201
     51          1           0        2.811766   -0.140843    0.394202
     52          1           0       -0.389145    1.989026    0.608321
     53          1           0        1.416108   -4.729388    1.091145
     54          1           0        2.531527   -3.733668    1.650928
     55          1           0        0.995136   -4.248841    2.783294
     56          1           0        2.137358   -3.638170   -0.697374
     57          1           0       -1.511544   -4.892457    0.704201
     58          1           0       -2.759956   -5.114394    1.793605
     59          1           0       -4.680657   -0.993448   -1.068277
     60          1           0       -5.407423    0.667141   -1.803896
     61          1           0       -4.013962    5.086087   -0.171038
     62          1           0       -5.391957    3.613833   -0.223499
     63          1           0       -4.255697    4.503860   -1.516944
     64          1           0       -1.468981    5.064642   -0.817022
     65          1           0        7.632672   -3.178945   -0.552159
     66          1           0        6.695013   -4.706484   -1.478807
     67          1           0        6.311616   -4.026214    0.287421
     68          1           0        6.905263   -0.954188   -0.390148
     69          1           0        4.844463    1.216466    0.425511
     70          1           0        6.401457    0.767581    0.942104
     71          1           0        5.012315    0.222524    1.634292
     72          1           0        3.962177    6.268968   -0.879778
     73          1           0        4.718589    4.590870   -0.726083
     74          1           0        0.690444    6.626149   -2.047874
     75          1           0        1.718022    7.359958   -0.614221
     76          1           0       -0.056439    6.838592   -0.357220
     77          1           0        3.546284    6.150672    1.908755
     78          1           0        5.213039    6.034424    1.335424
     79          1           0        4.433338    4.647512    1.740944
     80          1           0       -3.577005   -4.761239   -1.861561
     81          1           0       -7.982788   -1.696480   -1.706025
 ---------------------------------------------------------------------

 SCF Done:  E(RB3LYP) =  -1949.07561732     A.U. after   16 cycles

 Excitation energies and oscillator strengths:

 Excited State   1:      Singlet-A      1.7185 eV  721.48 nm  f=0.3322  <S**2>=0.000
     156 ->157         0.70876
     156 <-157        -0.11970
 This state for optimization and/or second-order correction.
 Total Energy, E(TD-HF/TD-DFT) =  -1949.01246465
 Copying the excited state density for this state as the 1-particle RhoCI density.

 The electronic state is 1-A.
 Alpha  occ. eigenvalues --  -19.18899 -19.18550 -19.14573 -19.10907 -19.10756
 Alpha  occ. eigenvalues --  -19.10286 -14.38284 -14.37496 -14.35556 -14.29097
 Alpha  occ. eigenvalues --  -10.33111 -10.31991 -10.28834 -10.26435 -10.24564
 Alpha  occ. eigenvalues --  -10.24351 -10.23925 -10.23474 -10.23114 -10.22815
 Alpha  occ. eigenvalues --  -10.22528 -10.22091 -10.21707 -10.21702 -10.21562
 Alpha  occ. eigenvalues --  -10.21187 -10.20993 -10.20938 -10.20837 -10.20827
 Alpha  occ. eigenvalues --  -10.20641 -10.20609 -10.20496 -10.20477 -10.20198
 Alpha  occ. eigenvalues --  -10.19969 -10.19604 -10.19435 -10.19156 -10.18625
 Alpha  occ. eigenvalues --  -10.18342 -10.17495 -10.16092  -1.11689  -1.09145
 Alpha  occ. eigenvalues --   -1.04271  -1.02714  -1.00271  -0.99485  -0.96883
 Alpha  occ. eigenvalues --   -0.96500  -0.95527  -0.91464  -0.83072  -0.81718
 Alpha  occ. eigenvalues --   -0.81522  -0.80708  -0.79759  -0.79559  -0.78733
 Alpha  occ. eigenvalues --   -0.77356  -0.76758  -0.75100  -0.74297  -0.72419
 Alpha  occ. eigenvalues --   -0.71186  -0.69979  -0.68780  -0.68422  -0.68088
 Alpha  occ. eigenvalues --   -0.67150  -0.65159  -0.64348  -0.63253  -0.62430
 Alpha  occ. eigenvalues --   -0.60721  -0.59935  -0.58816  -0.57589  -0.57028
 Alpha  occ. eigenvalues --   -0.55907  -0.55457  -0.54558  -0.54148  -0.52778
 Alpha  occ. eigenvalues --   -0.51935  -0.51888  -0.51212  -0.50478  -0.50283
 Alpha  occ. eigenvalues --   -0.49518  -0.49001  -0.48566  -0.47934  -0.47546
 Alpha  occ. eigenvalues --   -0.47188  -0.46809  -0.46563  -0.46025  -0.45905
 Alpha  occ. eigenvalues --   -0.44919  -0.44640  -0.44548  -0.43829  -0.43712
 Alpha  occ. eigenvalues --   -0.43545  -0.43189  -0.42385  -0.42181  -0.42123
 Alpha  occ. eigenvalues --   -0.41495  -0.41247  -0.41022  -0.40861  -0.40718
 Alpha  occ. eigenvalues --   -0.40517  -0.40184  -0.39919  -0.39624  -0.39214
 Alpha  occ. eigenvalues --   -0.39171  -0.38932  -0.38394  -0.38154  -0.37860
 Alpha  occ. eigenvalues --   -0.37765  -0.37510  -0.37245  -0.36949  -0.36769
 Alpha  occ. eigenvalues --   -0.36465  -0.36319  -0.35850  -0.35483  -0.35220
 Alpha  occ. eigenvalues --   -0.34414  -0.33673  -0.33493  -0.33347  -0.32964
 Alpha  occ. eigenvalues --   -0.32179  -0.31592  -0.30556  -0.29585  -0.29372
 Alpha  occ. eigenvalues --   -0.28436  -0.26726  -0.26497  -0.25863  -0.25576
 Alpha  occ. eigenvalues --   -0.24957  -0.24707  -0.24048  -0.23084  -0.21384
 Alpha  occ. eigenvalues --   -0.17540
 Alpha virt. eigenvalues --   -0.10642  -0.06154  -0.04680  -0.01420  -0.00104
 Alpha virt. eigenvalues --    0.00172   0.00544   0.02097   0.03064   0.03295
 Alpha virt. eigenvalues --    0.03318   0.03915   0.04582   0.05183   0.05701

 Mulliken charges:
               1
     1  O   -0.189681
     2  O   -0.304661
     3  O   -0.093339
     4  O   -0.194506
     5  O   -0.303778
     6  O   -0.181497
     7  N   -0.086118
     8  N   -0.116609
     9  N   -0.152993
    10  N   -0.329527
    11  C   -0.019806
    12  C    0.034757
    13  C   -0.125745
    14  C    0.060283
    15  C   -0.057994
    16  C    0.104883
    17  C   -0.078213
    18  C   -0.076099
    19  C    0.051005
    20  C   -0.063183
    21  C    0.115137
    22  C    0.117821
    23  C   -0.025893
    24  C   -0.084578
    25  C   -0.061203
    26  C   -0.049830
    27  C    0.123301
    28  C    0.093206
    29  C    0.016487
    30  C    0.072292
    31  C   -0.061422
    32  C   -0.045217
    33  C   -0.114792
    34  C    0.102721
    35  C   -0.092548
    36  C   -0.105444
    37  C    0.130261
    38  C    0.091217
    39  C    0.107001
    40  C   -0.080685
    41  C    0.134271
    42  C    0.027726
    43  C    0.058281
    44  H    0.181680
    45  H    0.042651
    46  H   -0.002955
    47  H    0.027437
    48  H    0.057619
    49  H    0.055970
    50  H    0.052563
    51  H   -0.058819
    52  H    0.149819
    53  H    0.014651
    54  H    0.039260
    55  H    0.043586
    56  H    0.159069
    57  H    0.024341
    58  H    0.010155
    59  H    0.101060
    60  H    0.025300
    61  H    0.009680
    62  H    0.042960
    63  H   -0.000122
    64  H   -0.087430
    65  H    0.040247
    66  H    0.059246
    67  H    0.015149
    68  H    0.017789
    69  H    0.065789
    70  H   -0.040483
    71  H    0.013183
    72  H    0.024024
    73  H    0.039188
    74  H    0.045905
    75  H    0.036863
    76  H    0.023074
    77  H    0.020630
    78  H   -0.006866
    79  H    0.007854
    80  H    0.245309
    81  H    0.159331
 Sum of Mulliken charges =  -0.00000

 Dipole moment (field-independent basis, Debye):
    X=             -1.8065    Y=              0.6644    Z=             -1.4487  Tot=              2.4091
 Quadrupole moment (field-independent basis, Debye-Ang):
   XX=           -254.3968   YY=           -238.2747   ZZ=           -252.7728
   XY=             24.1947   XZ=             19.6281   YZ=            -13.3665

 Normal termination of Gaussian 16 at Mon Jul  1 05:20:13 2019.
