 Gaussian 16, Revision A.03,
 Gaussian 16:  ES64L-G16RevA.03 25-Dec-2016

 --------------------------
 # td=(NStates=1) B3LYP/SVP
 --------------------------

 --
 TD
 --
 Symbolic Z-matrix:
 Charge =  0 Multiplicity = 1

                         Standard orientation:
 ---------------------------------------------------------------------
 Center     Atomic      Atomic             Coordinates (Angstroms)
 Number     Number       Type             X           Y           Z
 ---------------------------------------------------------------------
      1          8           0        4.145204   -5.036321   -1.886954
      2          8           0       -3.128434   -4.629563   -1.087222
      3          8           0       -7.056594   -1.308142   -1.799487
      4          8           0       -3.917487   -3.026741    0.137580
      5          8           0       -7.645472   -0.211209    0.111799
      6          8           0        3.135842    2.304781    0.441667
      7          7           0        0.182723   -0.570553    0.489025
      8          7           0       -1.423768    1.849724    0.272953
      9          7           0        3.113816   -3.166809   -0.755286
     10          7           0        0.840440    2.932417    0.127138
     11          6           0       -0.746435   -2.433445    1.276303
     12          6           0       -0.956389   -1.060989    0.988495
     13          6           0        0.671749   -2.617556    1.300201
     14          6           0        1.182624   -1.424103    0.629652
     15          6           0       -3.740706    1.674676    0.379551
     16          6           0       -2.427368    0.917254    0.481189
     17          6           0       -2.257749   -0.401440    0.950632
     18          6           0       -3.404576    2.887226   -0.133920
     19          6           0       -1.784302   -3.398636    1.937370
     20          6           0        5.421318   -2.955165   -1.352800
     21          6           0        3.518766   -1.910418   -0.213788
     22          6           0       -1.984707    2.992742   -0.155646
     23          6           0        5.014475   -1.690647   -0.571154
     24          6           0       -4.996093    0.981494    0.352617
     25          6           0        2.582960   -1.074220    0.397553
     26          6           0        1.264363   -3.867181    1.739249
     27          6           0        4.151424   -3.895916   -1.372792
     28          6           0       -2.218165   -4.519100    1.090258
     29          6           0       -5.355971   -0.025065   -0.821151
     30          6           0       -4.340724    3.942426   -0.663265
     31          6           0       -1.193226    4.067515   -0.402362
     32          6           0        6.580685   -3.698314   -0.825849
     33          6           0        5.833929   -0.750541   -0.075816
     34          6           0        0.258293    4.078493   -0.257598
     35          6           0        1.319874    5.032356   -0.448270
     36          6           0        2.492147    4.477201   -0.197016
     37          6           0       -3.225277   -4.071229    0.028102
     38          6           0        5.406949    0.450079    0.724050
     39          6           0       -6.827582   -0.426492   -0.765047
     40          6           0        3.790319    5.240721   -0.192695
     41          6           0        2.314371    3.056282    0.096889
     42          6           0        0.992646    6.483259   -0.834409
     43          6           0        4.536825    5.557851    1.205353
     44          1           0        0.367562    0.410238    0.103239
     45          1           0       -3.204470   -0.921146    1.298371
     46          1           0       -2.575825   -2.707960    2.095014
     47          1           0       -1.242916   -3.737803    2.716594
     48          1           0        5.633448   -2.555495   -2.404238
     49          1           0       -5.153939    0.292759    1.311464
     50          1           0       -5.738337    1.772165    0.489243
     51          1           0        2.940823    0.026633    0.556399
     52          1           0       -0.398874    1.967019    0.600030
     53          1           0        1.409069   -4.764798    1.153025
     54          1           0        2.448642   -3.661153    2.001883
     55          1           0        0.851729   -4.317736    2.617669
     56          1           0        2.314583   -3.591803   -0.632389
     57          1           0       -1.502238   -4.893885    0.576409
     58          1           0       -2.788972   -5.270694    1.756613
     59          1           0       -4.585461   -0.926711   -0.891525
     60          1           0       -5.291775    0.652557   -1.747250
     61          1           0       -4.067090    4.936344    0.079679
     62          1           0       -5.396331    3.514238   -0.608281
     63          1           0       -3.815167    4.451320   -1.617079
     64          1           0       -1.625000    5.083975   -0.720925
     65          1           0        7.547060   -3.097165   -0.585076
     66          1           0        6.686561   -4.700771   -1.373030
     67          1           0        6.405778   -3.803419    0.291228
     68          1           0        7.003873   -0.747828   -0.436287
     69          1           0        4.814023    1.157804    0.068196
     70          1           0        6.438996    0.955046    0.848825
     71          1           0        4.599268    0.255834    1.500225
     72          1           0        3.870373    6.166161   -0.574488
     73          1           0        4.386402    4.651616   -0.984730
     74          1           0        0.347516    6.334301   -1.672305
     75          1           0        1.822488    7.056553   -1.322227
     76          1           0        0.502504    7.004100    0.008887
     77          1           0        3.744407    6.164521    1.876056
     78          1           0        5.470185    6.131209    1.161734
     79          1           0        4.939298    4.675686    1.721698
     80          1           0       -3.633288   -4.198658   -1.657156
     81          1           0       -8.028542   -1.533674   -1.644667
 ---------------------------------------------------------------------

 SCF Done:  E(RB3LYP) =  -1949.07408824     A.U. after   16 cycles

 Excitation energies and oscillator strengths:

 Excited State   1:      Singlet-A      1.7399 eV  712.61 nm  f=0.2426  <S**2>=0.000
     156 ->157         0.70558
     156 <-157        -0.11021
 This state for optimization and/or second-order correction.
 Total Energy, E(TD-HF/TD-DFT) =  -1949.01014910
 Copying the excited state density for this state as the 1-particle RhoCI density.

 The electronic state is 1-A.
 Alpha  occ. eigenvalues --  -19.20955 -19.18404 -19.13608 -19.13058 -19.12757
 Alpha  occ. eigenvalues --  -19.11419 -14.38465 -14.36814 -14.35311 -14.29159
 Alpha  occ. eigenvalues --  -10.33283 -10.32605 -10.29745 -10.27953 -10.25337
 Alpha  occ. eigenvalues --  -10.23488 -10.23295 -10.23211 -10.23189 -10.22809
 Alpha  occ. eigenvalues --  -10.22630 -10.22191 -10.21764 -10.20773 -10.20590
 Alpha  occ. eigenvalues --  -10.20585 -10.20530 -10.20300 -10.20203 -10.20128
 Alpha  occ. eigenvalues --  -10.19984 -10.19919 -10.19749 -10.19748 -10.19710
 Alpha  occ. eigenvalues --  -10.19497 -10.19429 -10.19254 -10.19168 -10.19145
 Alpha  occ. eigenvalues --  -10.19043 -10.18522 -10.18432  -1.16989  -1.08881
 Alpha  occ. eigenvalues --   -1.06387  -1.01463  -1.00284  -1.00265  -1.00096
 Alpha  occ. eigenvalues --   -0.98154  -0.94506  -0.92476  -0.83271  -0.82561
 Alpha  occ. eigenvalues --   -0.81327  -0.80914  -0.79595  -0.78974  -0.78144
 Alpha  occ. eigenvalues --   -0.76495  -0.75965  -0.74774  -0.73875  -0.72582
 Alpha  occ. eigenvalues --   -0.71293  -0.70570  -0.69453  -0.69242  -0.67565
 Alpha  occ. eigenvalues --   -0.67053  -0.65049  -0.64653  -0.64317  -0.62542
 Alpha  occ. eigenvalues --   -0.61362  -0.58868  -0.58727  -0.57336  -0.57263
 Alpha  occ. eigenvalues --   -0.56083  -0.55775  -0.55000  -0.53726  -0.53080
 Alpha  occ. eigenvalues --   -0.52729  -0.52277  -0.51309  -0.51166  -0.50664
 Alpha  occ. eigenvalues --   -0.49738  -0.48975  -0.48752  -0.48401  -0.47669
 Alpha  occ. eigenvalues --   -0.47051  -0.46632  -0.46488  -0.45825  -0.45665
 Alpha  occ. eigenvalues --   -0.45525  -0.45012  -0.44832  -0.44706  -0.44060
 Alpha  occ. eigenvalues --   -0.43883  -0.43401  -0.43029  -0.42937  -0.42211
 Alpha  occ. eigenvalues --   -0.41886  -0.41704  -0.41636  -0.41429  -0.41193
 Alpha  occ. eigenvalues --   -0.40763  -0.40444  -0.40325  -0.40174  -0.39346
 Alpha  occ. eigenvalues --   -0.39300  -0.38925  -0.38744  -0.38240  -0.38200
 Alpha  occ. eigenvalues --   -0.37972  -0.37681  -0.37367  -0.37121  -0.36838
 Alpha  occ. eigenvalues --   -0.35877  -0.35405  -0.35252  -0.35089  -0.34461
 Alpha  occ. eigenvalues --   -0.34165  -0.33796  -0.33184  -0.33010  -0.32907
 Alpha  occ. eigenvalues --   -0.32824  -0.32515  -0.31372  -0.29840  -0.29035
 Alpha  occ. eigenvalues --   -0.28830  -0.28620  -0.26197  -0.25811  -0.25302
 Alpha  occ. eigenvalues --   -0.25191  -0.24891  -0.24396  -0.23382  -0.21728
 Alpha  occ. eigenvalues --   -0.17662
 Alpha virt. eigenvalues --   -0.10518  -0.05922  -0.03863  -0.01645  -0.00693
 Alpha virt. eigenvalues --   -0.00094   0.02034   0.03007   0.03200   0.04047
 Alpha virt. eigenvalues --    0.04463   0.04963   0.05086   0.05287   0.06038

 Mulliken charges:
               1
     1  O   -0.246574
     2  O    0.005482
     3  O   -0.219348
     4  O   -0.298718
     5  O   -0.227691
     6  O   -0.135999
     7  N   -0.001568
     8  N   -0.104574
     9  N   -0.084146
    10  N   -0.412944
    11  C   -0.191391
    12  C    0.026292
    13  C   -0.090044
    14  C    0.018081
    15  C   -0.048542
    16  C    0.031993
    17  C   -0.049349
    18  C   -0.116281
    19  C    0.216872
    20  C   -0.059583
    21  C    0.077693
    22  C    0.145588
    23  C    0.010689
    24  C    0.003548
    25  C   -0.147832
    26  C    0.005574
    27  C    0.168567
    28  C    0.133352
    29  C   -0.036995
    30  C    0.025589
    31  C   -0.156510
    32  C    0.014043
    33  C   -0.211365
    34  C    0.056111
    35  C   -0.082591
    36  C   -0.164460
    37  C    0.040163
    38  C    0.022777
    39  C    0.161314
    40  C    0.092155
    41  C    0.189477
    42  C    0.118042
    43  C   -0.045913
    44  H    0.157332
    45  H    0.045364
    46  H    0.001276
    47  H   -0.033491
    48  H    0.047764
    49  H    0.033642
    50  H    0.009948
    51  H    0.049200
    52  H    0.175008
    53  H    0.023269
    54  H    0.032510
    55  H    0.001118
    56  H    0.072520
    57  H   -0.039601
    58  H    0.049648
    59  H    0.100627
    60  H    0.038928
    61  H    0.039889
    62  H    0.051969
    63  H    0.046776
    64  H   -0.016231
    65  H    0.017917
    66  H    0.060636
    67  H   -0.000579
    68  H    0.030103
    69  H    0.068832
    70  H    0.020886
    71  H    0.053925
    72  H   -0.036763
    73  H    0.011633
    74  H    0.007980
    75  H    0.015877
    76  H    0.041802
    77  H    0.033498
    78  H    0.012259
    79  H    0.025436
    80  H    0.129892
    81  H    0.188217
 Sum of Mulliken charges =  -0.00000

 Dipole moment (field-independent basis, Debye):
    X=             -2.2345    Y=              1.8513    Z=             -0.9253  Tot=              3.0457
 Quadrupole moment (field-independent basis, Debye-Ang):
   XX=           -257.2713   YY=           -238.9190   ZZ=           -257.2244
   XY=             24.4423   XZ=             15.1889   YZ=            -16.0182

 Normal termination of Gaussian 16 at Tue Jul  2 06:33:34 2019.
