 Gaussian 16, Revision A.03,
 Gaussian 16:  ES64L-G16RevA.03 25-Dec-2016

 --------------------------
 # td=(NStates=1) B3LYP/SVP
 --------------------------

 --
 TD
 --
 Symbolic Z-matrix:
 Charge =  0 Multiplicity = 1

                         Standard orientation:
 ---------------------------------------------------------------------
 Center     Atomic      Atomic             Coordinates (Angstroms)
 Number     Number       Type             X           Y           Z
 ---------------------------------------------------------------------
      1          8           0        4.236033   -4.941163   -1.869881
      2          8           0       -3.033671   -4.728693   -1.149306
      3          8           0       -6.782133   -1.612315   -1.790874
      4          8           0       -3.982574   -3.044902    0.104671
      5          8           0       -7.568005   -0.355357   -0.064414
      6          8           0        3.114859    2.334790    0.365382
      7          7           0        0.214537   -0.559718    0.566449
      8          7           0       -1.509350    1.912434    0.304738
      9          7           0        3.186698   -3.201715   -0.611014
     10          7           0        0.953873    2.883757    0.067728
     11          6           0       -0.665807   -2.417472    1.488019
     12          6           0       -1.050603   -1.047480    1.070248
     13          6           0        0.613378   -2.597393    1.285297
     14          6           0        1.254187   -1.484897    0.743814
     15          6           0       -3.628590    1.602095    0.245777
     16          6           0       -2.441256    0.929176    0.432167
     17          6           0       -2.216516   -0.365967    0.907539
     18          6           0       -3.420639    2.918688   -0.158436
     19          6           0       -1.724687   -3.359913    2.129314
     20          6           0        5.480636   -2.909659   -1.247149
     21          6           0        3.523994   -1.946319   -0.149498
     22          6           0       -2.037670    3.108623   -0.075006
     23          6           0        4.983474   -1.712257   -0.453026
     24          6           0       -5.047494    0.992290    0.285010
     25          6           0        2.566674   -1.049175    0.386133
     26          6           0        1.425501   -3.809256    1.688240
     27          6           0        4.225030   -3.855701   -1.286669
     28          6           0       -2.239847   -4.446078    1.096316
     29          6           0       -5.286372   -0.070549   -0.791832
     30          6           0       -4.383517    3.927066   -0.440428
     31          6           0       -1.195319    4.138479   -0.331583
     32          6           0        6.669203   -3.695929   -0.909671
     33          6           0        5.679548   -0.661856   -0.163449
     34          6           0        0.211680    4.030912   -0.282990
     35          6           0        1.179675    5.043861   -0.509876
     36          6           0        2.377860    4.554390   -0.302681
     37          6           0       -3.272903   -4.013118   -0.002928
     38          6           0        5.420239    0.527251    0.675168
     39          6           0       -6.695986   -0.594486   -0.887388
     40          6           0        3.752175    5.264009   -0.254441
     41          6           0        2.265108    3.075322    0.074419
     42          6           0        0.869123    6.524197   -0.806820
     43          6           0        4.167009    5.669207    1.141139
     44          1           0        0.347180    0.417185   -0.039725
     45          1           0       -3.221314   -0.974491    1.029153
     46          1           0       -2.476141   -2.816782    2.809507
     47          1           0       -1.159460   -3.906077    3.046988
     48          1           0        5.670146   -2.435639   -2.305874
     49          1           0       -5.300517    0.336569    1.240381
     50          1           0       -5.913016    1.654831    0.131226
     51          1           0        2.631386    0.178556    0.447374
     52          1           0       -0.533616    1.789274    0.575638
     53          1           0        1.395521   -4.732041    1.093585
     54          1           0        2.489841   -3.674807    1.497494
     55          1           0        1.170669   -4.234088    2.827970
     56          1           0        2.163812   -3.374161   -0.743681
     57          1           0       -1.401095   -4.750797    0.510693
     58          1           0       -2.666872   -5.543087    1.574055
     59          1           0       -4.415512   -0.991227   -0.784571
     60          1           0       -5.081277    0.309827   -1.857063
     61          1           0       -4.054708    5.064714   -0.061072
     62          1           0       -5.407233    3.744236   -0.000100
     63          1           0       -4.401124    4.312820   -1.442588
     64          1           0       -1.550052    5.143910   -0.763831
     65          1           0        7.522320   -3.090754   -1.048821
     66          1           0        6.605919   -4.700774   -1.504778
     67          1           0        6.507702   -3.965228    0.127076
     68          1           0        6.748789   -0.656538   -0.524476
     69          1           0        4.751946    1.232509    0.070837
     70          1           0        6.472904    1.223615    0.799551
     71          1           0        4.917725    0.578427    1.497975
     72          1           0        3.836548    6.174947   -1.009519
     73          1           0        4.685524    4.289272   -0.387578
     74          1           0        0.837719    6.655811   -2.096281
     75          1           0        1.737552    7.125733   -0.354410
     76          1           0       -0.255931    6.661287   -0.225526
     77          1           0        3.735914    6.643580    1.611735
     78          1           0        5.223618    5.888354    1.241691
     79          1           0        4.026531    4.846020    1.975088
     80          1           0       -3.876344   -4.557901   -1.669954
     81          1           0       -7.705151   -1.937613   -1.916486
 ---------------------------------------------------------------------

 SCF Done:  E(RB3LYP) =  -1949.03312063     A.U. after   19 cycles

 Excitation energies and oscillator strengths:

 Excited State   1:      Singlet-A      1.6877 eV  734.62 nm  f=0.3214  <S**2>=0.000
     156 ->157         0.70460
     156 <-157        -0.13176
 This state for optimization and/or second-order correction.
 Total Energy, E(TD-HF/TD-DFT) =  -1948.97109759
 Copying the excited state density for this state as the 1-particle RhoCI density.

 The electronic state is 1-A.
 Alpha  occ. eigenvalues --  -19.20670 -19.18024 -19.15548 -19.12895 -19.12516
 Alpha  occ. eigenvalues --  -19.09999 -14.39541 -14.38459 -14.35325 -14.26778
 Alpha  occ. eigenvalues --  -10.34479 -10.32017 -10.30965 -10.26432 -10.24812
 Alpha  occ. eigenvalues --  -10.24772 -10.24163 -10.23861 -10.23757 -10.22951
 Alpha  occ. eigenvalues --  -10.22625 -10.22387 -10.22294 -10.22222 -10.21445
 Alpha  occ. eigenvalues --  -10.21321 -10.21316 -10.21275 -10.20999 -10.20964
 Alpha  occ. eigenvalues --  -10.20668 -10.20317 -10.20287 -10.20221 -10.20079
 Alpha  occ. eigenvalues --  -10.19979 -10.19206 -10.19055 -10.18650 -10.18382
 Alpha  occ. eigenvalues --  -10.17706 -10.17675 -10.17172  -1.11055  -1.08374
 Alpha  occ. eigenvalues --   -1.04143  -1.03913  -1.03172  -0.99819  -0.99297
 Alpha  occ. eigenvalues --   -0.97354  -0.96607  -0.91203  -0.82966  -0.82557
 Alpha  occ. eigenvalues --   -0.82103  -0.81706  -0.79656  -0.77813  -0.77798
 Alpha  occ. eigenvalues --   -0.76990  -0.76901  -0.75417  -0.73649  -0.72144
 Alpha  occ. eigenvalues --   -0.71482  -0.70126  -0.68866  -0.68185  -0.67462
 Alpha  occ. eigenvalues --   -0.66554  -0.65571  -0.65211  -0.63102  -0.60706
 Alpha  occ. eigenvalues --   -0.59816  -0.58887  -0.58692  -0.58040  -0.57545
 Alpha  occ. eigenvalues --   -0.56690  -0.54754  -0.54534  -0.54276  -0.53577
 Alpha  occ. eigenvalues --   -0.51894  -0.51606  -0.51013  -0.50207  -0.49920
 Alpha  occ. eigenvalues --   -0.49452  -0.48728  -0.48541  -0.48345  -0.47339
 Alpha  occ. eigenvalues --   -0.46959  -0.46614  -0.46169  -0.45908  -0.45666
 Alpha  occ. eigenvalues --   -0.45086  -0.44941  -0.44595  -0.44073  -0.43874
 Alpha  occ. eigenvalues --   -0.43448  -0.43236  -0.42918  -0.42798  -0.42315
 Alpha  occ. eigenvalues --   -0.41700  -0.40994  -0.40770  -0.40568  -0.40362
 Alpha  occ. eigenvalues --   -0.40026  -0.39965  -0.39685  -0.39396  -0.39224
 Alpha  occ. eigenvalues --   -0.38965  -0.38814  -0.38649  -0.38579  -0.38296
 Alpha  occ. eigenvalues --   -0.37924  -0.37709  -0.36880  -0.36774  -0.36605
 Alpha  occ. eigenvalues --   -0.36319  -0.35976  -0.35372  -0.35108  -0.34900
 Alpha  occ. eigenvalues --   -0.34504  -0.33735  -0.33491  -0.33200  -0.32965
 Alpha  occ. eigenvalues --   -0.32346  -0.32073  -0.30780  -0.30066  -0.29948
 Alpha  occ. eigenvalues --   -0.27886  -0.27439  -0.27303  -0.26903  -0.26265
 Alpha  occ. eigenvalues --   -0.25860  -0.24531  -0.22948  -0.22523  -0.21567
 Alpha  occ. eigenvalues --   -0.17902
 Alpha virt. eigenvalues --   -0.11184  -0.06031  -0.04205  -0.02867  -0.01861
 Alpha virt. eigenvalues --   -0.00756   0.01564   0.02300   0.03041   0.03180
 Alpha virt. eigenvalues --    0.04024   0.04257   0.04627   0.04871   0.05624

 Mulliken charges:
               1
     1  O   -0.213072
     2  O   -0.204382
     3  O   -0.211239
     4  O   -0.198784
     5  O   -0.236242
     6  O   -0.176917
     7  N   -0.238077
     8  N   -0.062967
     9  N   -0.135112
    10  N   -0.325889
    11  C   -0.079554
    12  C    0.098575
    13  C   -0.113986
    14  C    0.083157
    15  C   -0.044071
    16  C    0.030258
    17  C   -0.084534
    18  C   -0.070295
    19  C    0.050736
    20  C   -0.108690
    21  C    0.073818
    22  C    0.150455
    23  C    0.052426
    24  C    0.082746
    25  C   -0.154216
    26  C    0.027291
    27  C    0.157106
    28  C   -0.018094
    29  C   -0.140077
    30  C    0.042444
    31  C   -0.177005
    32  C    0.086218
    33  C   -0.176817
    34  C    0.093109
    35  C   -0.075571
    36  C   -0.148514
    37  C    0.148869
    38  C    0.063956
    39  C    0.171744
    40  C   -0.033737
    41  C    0.118295
    42  C   -0.036762
    43  C   -0.030522
    44  H    0.194570
    45  H    0.059766
    46  H    0.044015
    47  H    0.023784
    48  H    0.054570
    49  H    0.035311
    50  H    0.012961
    51  H    0.102142
    52  H    0.117561
    53  H    0.013862
    54  H    0.018495
    55  H    0.045541
    56  H    0.160707
    57  H    0.029520
    58  H    0.070041
    59  H    0.093205
    60  H    0.027055
    61  H    0.010814
    62  H    0.043511
    63  H    0.006148
    64  H   -0.001335
    65  H    0.009438
    66  H    0.058820
    67  H   -0.000607
    68  H    0.002182
    69  H    0.082554
    70  H    0.014612
    71  H   -0.021420
    72  H    0.029921
    73  H    0.038436
    74  H    0.056313
    75  H    0.049717
    76  H    0.051472
    77  H    0.007451
    78  H    0.003176
    79  H    0.030722
    80  H    0.199702
    81  H    0.189191
 Sum of Mulliken charges =  -0.00000

 Dipole moment (field-independent basis, Debye):
    X=             -2.2200    Y=             -2.1961    Z=             -1.1859  Tot=              3.3403
 Quadrupole moment (field-independent basis, Debye-Ang):
   XX=           -253.8317   YY=           -246.5861   ZZ=           -254.5530
   XY=             17.6537   XZ=             16.1134   YZ=            -11.4399

 Normal termination of Gaussian 16 at Fri Jun 28 21:50:07 2019.
