 Gaussian 16, Revision A.03,
 Gaussian 16:  ES64L-G16RevA.03 25-Dec-2016

 --------------------------
 # td=(NStates=1) B3LYP/SVP
 --------------------------

 --
 TD
 --
 Symbolic Z-matrix:
 Charge =  0 Multiplicity = 1

                         Standard orientation:
 ---------------------------------------------------------------------
 Center     Atomic      Atomic             Coordinates (Angstroms)
 Number     Number       Type             X           Y           Z
 ---------------------------------------------------------------------
      1          8           0        4.111850   -4.931854   -1.877567
      2          8           0       -3.090292   -4.990483   -1.036136
      3          8           0       -6.915814   -1.535874   -1.794633
      4          8           0       -3.735191   -3.138802    0.018029
      5          8           0       -7.531915   -0.360075    0.003724
      6          8           0        3.129691    2.424302    0.319962
      7          7           0        0.220467   -0.457055    0.596775
      8          7           0       -1.505591    1.939638    0.475097
      9          7           0        3.160924   -3.168815   -0.684787
     10          7           0        0.895500    2.922644    0.062447
     11          6           0       -0.790197   -2.414440    1.495012
     12          6           0       -1.013192   -1.008127    0.931049
     13          6           0        0.650869   -2.616247    1.333624
     14          6           0        1.170783   -1.404800    0.709648
     15          6           0       -3.719887    1.587508    0.207114
     16          6           0       -2.488402    0.918712    0.659877
     17          6           0       -2.201476   -0.408187    0.957406
     18          6           0       -3.407066    2.910115   -0.132581
     19          6           0       -1.696144   -3.335947    2.006008
     20          6           0        5.457439   -2.907832   -1.340131
     21          6           0        3.511809   -1.862465   -0.154934
     22          6           0       -1.969760    3.100888    0.031252
     23          6           0        4.942578   -1.698772   -0.564169
     24          6           0       -5.103227    0.963046    0.267115
     25          6           0        2.614134   -1.017830    0.422659
     26          6           0        1.376239   -3.762861    1.778957
     27          6           0        4.229171   -3.856131   -1.413430
     28          6           0       -2.132836   -4.533215    1.103491
     29          6           0       -5.281686   -0.081679   -0.881192
     30          6           0       -4.353824    3.962291   -0.644398
     31          6           0       -1.241690    4.153932   -0.296689
     32          6           0        6.651022   -3.642460   -0.740777
     33          6           0        5.751224   -0.682796   -0.238262
     34          6           0        0.167030    4.082778   -0.251492
     35          6           0        1.078995    5.201924   -0.391838
     36          6           0        2.419514    4.656597   -0.284463
     37          6           0       -3.148498   -4.075444   -0.093863
     38          6           0        5.546256    0.509853    0.595395
     39          6           0       -6.637949   -0.687572   -0.819499
     40          6           0        3.766891    5.270128   -0.324440
     41          6           0        2.245675    3.256452    0.056827
     42          6           0        0.691523    6.600315   -0.666896
     43          6           0        4.376500    5.310412    1.044265
     44          1           0        0.376625    0.370007    0.122774
     45          1           0       -3.105406   -1.040014    1.233206
     46          1           0       -2.492214   -2.998778    2.518103
     47          1           0       -1.353164   -3.834899    2.942092
     48          1           0        5.791143   -2.558673   -2.356784
     49          1           0       -5.130677    0.511548    1.109028
     50          1           0       -5.864574    1.586345    0.229956
     51          1           0        2.896909   -0.008270    0.450124
     52          1           0       -0.454619    1.965134    0.732125
     53          1           0        1.568263   -4.448664    0.931270
     54          1           0        2.347939   -3.467983    2.051675
     55          1           0        0.833998   -4.097660    2.722383
     56          1           0        2.222335   -3.673954   -0.391096
     57          1           0       -1.223706   -5.225702    0.689287
     58          1           0       -2.538484   -5.434561    1.603435
     59          1           0       -4.496708   -1.000767   -0.883576
     60          1           0       -5.211023    0.641825   -1.757172
     61          1           0       -4.244003    5.011363   -0.342324
     62          1           0       -5.396907    3.684154   -0.594650
     63          1           0       -4.071562    4.215194   -1.652334
     64          1           0       -1.781447    5.176113   -0.536163
     65          1           0        7.776802   -3.236398   -0.958688
     66          1           0        6.631245   -4.575138   -1.231791
     67          1           0        6.407449   -3.923237    0.291692
     68          1           0        6.673762   -0.672469   -0.668657
     69          1           0        5.100202    1.500912   -0.006989
     70          1           0        6.411820    0.691787    1.082957
     71          1           0        4.659006    0.387860    1.422006
     72          1           0        3.714671    6.333719   -0.528987
     73          1           0        4.254608    4.566509   -1.185141
     74          1           0        0.277038    6.817088   -1.732926
     75          1           0        1.450622    7.367330   -0.499744
     76          1           0       -0.175424    6.802727    0.127916
     77          1           0        3.879103    5.898175    1.914108
     78          1           0        5.402937    5.789236    1.076897
     79          1           0        4.487134    4.240989    1.365209
     80          1           0       -3.755265   -4.776797   -1.769733
     81          1           0       -7.785093   -1.905527   -1.897112
 ---------------------------------------------------------------------

 SCF Done:  E(RB3LYP) =  -1949.09714773     A.U. after   25 cycles

 Excitation energies and oscillator strengths:

 Excited State   1:      Singlet-A      1.7558 eV  706.14 nm  f=0.3020  <S**2>=0.000
     154 ->157        -0.10182
     156 ->157         0.70050
     156 <-157        -0.12942
 This state for optimization and/or second-order correction.
 Total Energy, E(TD-HF/TD-DFT) =  -1949.03262347
 Copying the excited state density for this state as the 1-particle RhoCI density.

 The electronic state is 1-A.
 Alpha  occ. eigenvalues --  -19.20556 -19.18246 -19.15488 -19.12453 -19.11346
 Alpha  occ. eigenvalues --  -19.09173 -14.38393 -14.36601 -14.35310 -14.27556
 Alpha  occ. eigenvalues --  -10.33372 -10.32044 -10.30019 -10.24908 -10.24803
 Alpha  occ. eigenvalues --  -10.24493 -10.23543 -10.23000 -10.22240 -10.22231
 Alpha  occ. eigenvalues --  -10.22112 -10.21471 -10.21279 -10.21202 -10.21074
 Alpha  occ. eigenvalues --  -10.20297 -10.20284 -10.20202 -10.20039 -10.19936
 Alpha  occ. eigenvalues --  -10.19687 -10.19557 -10.19461 -10.19403 -10.19170
 Alpha  occ. eigenvalues --  -10.18930 -10.18800 -10.18617 -10.18429 -10.18395
 Alpha  occ. eigenvalues --  -10.17798 -10.17713 -10.17463  -1.14698  -1.09570
 Alpha  occ. eigenvalues --   -1.06598  -1.05656  -0.99441  -0.99058  -0.98032
 Alpha  occ. eigenvalues --   -0.96868  -0.92198  -0.89281  -0.83573  -0.82224
 Alpha  occ. eigenvalues --   -0.81280  -0.80983  -0.79015  -0.78503  -0.77470
 Alpha  occ. eigenvalues --   -0.77137  -0.76721  -0.74936  -0.74265  -0.72413
 Alpha  occ. eigenvalues --   -0.71626  -0.69572  -0.69122  -0.68745  -0.68036
 Alpha  occ. eigenvalues --   -0.67043  -0.65006  -0.63547  -0.62566  -0.61983
 Alpha  occ. eigenvalues --   -0.61840  -0.59804  -0.58781  -0.58384  -0.56831
 Alpha  occ. eigenvalues --   -0.56101  -0.55574  -0.54865  -0.53471  -0.52436
 Alpha  occ. eigenvalues --   -0.52301  -0.51890  -0.51527  -0.50515  -0.50339
 Alpha  occ. eigenvalues --   -0.49875  -0.49367  -0.48919  -0.48244  -0.47551
 Alpha  occ. eigenvalues --   -0.46903  -0.46779  -0.46258  -0.45568  -0.45459
 Alpha  occ. eigenvalues --   -0.45164  -0.44760  -0.44327  -0.44004  -0.43807
 Alpha  occ. eigenvalues --   -0.43434  -0.43370  -0.43024  -0.42555  -0.42280
 Alpha  occ. eigenvalues --   -0.42103  -0.41256  -0.41057  -0.40905  -0.40568
 Alpha  occ. eigenvalues --   -0.40505  -0.40198  -0.40072  -0.39727  -0.39196
 Alpha  occ. eigenvalues --   -0.38897  -0.38722  -0.38483  -0.38112  -0.37963
 Alpha  occ. eigenvalues --   -0.37839  -0.37597  -0.37349  -0.36679  -0.36429
 Alpha  occ. eigenvalues --   -0.36313  -0.36013  -0.35736  -0.35482  -0.35117
 Alpha  occ. eigenvalues --   -0.35019  -0.34317  -0.33831  -0.33075  -0.32445
 Alpha  occ. eigenvalues --   -0.32084  -0.31224  -0.31174  -0.30138  -0.29656
 Alpha  occ. eigenvalues --   -0.27134  -0.26878  -0.26212  -0.25565  -0.25208
 Alpha  occ. eigenvalues --   -0.24807  -0.24036  -0.23225  -0.22051  -0.20814
 Alpha  occ. eigenvalues --   -0.17315
 Alpha virt. eigenvalues --   -0.10356  -0.06108  -0.03407  -0.00497  -0.00362
 Alpha virt. eigenvalues --    0.01529   0.01652   0.02214   0.02647   0.04223
 Alpha virt. eigenvalues --    0.04454   0.04867   0.05251   0.05796   0.06196

 Mulliken charges:
               1
     1  O   -0.155239
     2  O   -0.170606
     3  O   -0.158321
     4  O   -0.098944
     5  O   -0.281956
     6  O   -0.244766
     7  N    0.000715
     8  N   -0.123449
     9  N   -0.274946
    10  N   -0.351437
    11  C   -0.026917
    12  C    0.102403
    13  C   -0.205464
    14  C    0.040575
    15  C   -0.144172
    16  C    0.081407
    17  C   -0.094428
    18  C   -0.136251
    19  C    0.132470
    20  C   -0.077554
    21  C    0.147466
    22  C    0.126479
    23  C   -0.002376
    24  C    0.318727
    25  C   -0.069852
    26  C    0.137956
    27  C    0.165320
    28  C   -0.105661
    29  C   -0.108839
    30  C    0.139887
    31  C   -0.189547
    32  C    0.049059
    33  C   -0.107190
    34  C    0.118163
    35  C   -0.103421
    36  C   -0.164977
    37  C    0.111594
    38  C    0.021976
    39  C    0.150129
    40  C    0.097797
    41  C    0.149358
    42  C    0.037060
    43  C   -0.061162
    44  H    0.113729
    45  H    0.027658
    46  H   -0.036586
    47  H   -0.008156
    48  H    0.043217
    49  H   -0.058560
    50  H   -0.049350
    51  H   -0.008959
    52  H    0.162209
    53  H    0.022292
    54  H    0.004238
    55  H    0.032882
    56  H    0.158999
    57  H    0.030986
    58  H    0.027049
    59  H    0.090979
    60  H    0.054178
    61  H   -0.001940
    62  H    0.013514
    63  H   -0.004963
    64  H    0.007012
    65  H    0.044130
    66  H    0.007191
    67  H    0.011265
    68  H   -0.048863
    69  H    0.101639
    70  H   -0.012017
    71  H    0.040275
    72  H   -0.018176
    73  H    0.050542
    74  H    0.042337
    75  H    0.014087
    76  H    0.032474
    77  H    0.022559
    78  H    0.006171
    79  H    0.039873
    80  H    0.194896
    81  H    0.180124
 Sum of Mulliken charges =  -0.00000

 Dipole moment (field-independent basis, Debye):
    X=             -2.6603    Y=             -1.7834    Z=             -1.1251  Tot=              3.3946
 Quadrupole moment (field-independent basis, Debye-Ang):
   XX=           -248.0460   YY=           -234.2576   ZZ=           -250.6930
   XY=             17.6877   XZ=             17.1409   YZ=            -11.6179

 Normal termination of Gaussian 16 at Wed Jul  3 14:53:25 2019.
