 Gaussian 16, Revision A.03,
 Gaussian 16:  ES64L-G16RevA.03 25-Dec-2016

 --------------------------
 # td=(NStates=1) B3LYP/SVP
 --------------------------

 --
 TD
 --
 Symbolic Z-matrix:
 Charge =  0 Multiplicity = 1

                         Standard orientation:
 ---------------------------------------------------------------------
 Center     Atomic      Atomic             Coordinates (Angstroms)
 Number     Number       Type             X           Y           Z
 ---------------------------------------------------------------------
      1          8           0        4.089232   -4.786184   -1.987316
      2          8           0       -3.211917   -4.889875   -0.913872
      3          8           0       -6.763852   -1.619031   -1.721135
      4          8           0       -3.929105   -3.096609    0.098158
      5          8           0       -7.678432   -0.022468   -0.229685
      6          8           0        3.060968    2.215498    0.246123
      7          7           0        0.352025   -0.509514    0.588642
      8          7           0       -1.455817    1.878147    0.154623
      9          7           0        3.223107   -3.118561   -0.722262
     10          7           0        0.865390    2.799834    0.024924
     11          6           0       -0.619718   -2.356896    1.374583
     12          6           0       -0.945816   -0.978713    0.920966
     13          6           0        0.687443   -2.681372    1.205004
     14          6           0        1.211441   -1.428692    0.694820
     15          6           0       -3.719204    1.581272    0.301484
     16          6           0       -2.447274    0.777921    0.339011
     17          6           0       -2.247654   -0.489662    0.835243
     18          6           0       -3.543493    2.885085    0.015120
     19          6           0       -1.671605   -3.272396    2.050697
     20          6           0        5.405226   -2.795078   -1.357977
     21          6           0        3.573400   -1.830528   -0.202586
     22          6           0       -2.101738    3.033494   -0.081751
     23          6           0        4.962346   -1.642097   -0.461477
     24          6           0       -5.023616    0.840367    0.315100
     25          6           0        2.580546   -1.079341    0.408577
     26          6           0        1.434735   -3.891079    1.755763
     27          6           0        4.172918   -3.704764   -1.465379
     28          6           0       -2.175972   -4.426351    1.184804
     29          6           0       -5.226803   -0.052287   -0.813463
     30          6           0       -4.529440    3.918195   -0.431409
     31          6           0       -1.245769    4.091545   -0.319835
     32          6           0        6.669018   -3.595857   -0.840894
     33          6           0        5.932537   -0.709567   -0.048245
     34          6           0        0.198147    4.001252   -0.198664
     35          6           0        1.139525    5.104308   -0.352122
     36          6           0        2.429265    4.589584   -0.225954
     37          6           0       -3.257913   -4.052259    0.177836
     38          6           0        5.622181    0.577143    0.618422
     39          6           0       -6.763916   -0.525781   -0.899515
     40          6           0        3.746388    5.263002   -0.227290
     41          6           0        2.264695    3.048692   -0.019437
     42          6           0        0.761020    6.500267   -0.697529
     43          6           0        4.394085    5.405693    1.160976
     44          1           0        0.573277    0.452803    0.257917
     45          1           0       -3.067717   -1.258741    1.094732
     46          1           0       -2.683506   -2.704843    2.431287
     47          1           0       -1.048940   -3.767956    2.870757
     48          1           0        5.681221   -2.224268   -2.155103
     49          1           0       -5.063348    0.414731    1.370165
     50          1           0       -5.864878    1.681607    0.365353
     51          1           0        2.898786   -0.071744    0.481762
     52          1           0       -0.481158    1.983767    0.349815
     53          1           0        1.179126   -4.588589    0.979376
     54          1           0        2.642450   -3.738957    1.756411
     55          1           0        1.093009   -4.202995    3.002075
     56          1           0        2.238393   -3.528692   -0.612344
     57          1           0       -1.367545   -5.072027    0.659788
     58          1           0       -2.731236   -5.323610    1.653067
     59          1           0       -4.662497   -1.142609   -0.652195
     60          1           0       -4.892475    0.271807   -2.026110
     61          1           0       -4.537866    4.756518    0.345478
     62          1           0       -5.594795    3.536500   -0.517959
     63          1           0       -4.218141    4.507936   -1.503019
     64          1           0       -1.611926    5.137866   -0.357779
     65          1           0        7.436968   -2.669576   -0.729868
     66          1           0        6.912648   -4.424875   -1.557145
     67          1           0        6.400462   -4.100868    0.040722
     68          1           0        6.828423   -1.001808   -0.498379
     69          1           0        5.077739    1.318858    0.134522
     70          1           0        6.484741    0.946573    1.325605
     71          1           0        4.864755    0.420194    1.459952
     72          1           0        3.885899    6.377751   -0.737566
     73          1           0        4.319516    4.777357   -1.055104
     74          1           0        0.304964    6.615355   -1.722772
     75          1           0        1.413983    7.370255   -0.758922
     76          1           0       -0.019747    6.958863    0.042828
     77          1           0        3.751307    6.031709    1.960636
     78          1           0        5.425857    5.923719    1.251881
     79          1           0        4.597240    4.269208    1.637416
     80          1           0       -3.958311   -4.567454   -1.478894
     81          1           0       -7.624688   -1.754363   -1.657346
 ---------------------------------------------------------------------

 SCF Done:  E(RB3LYP) =  -1949.05376117     A.U. after   16 cycles

 Excitation energies and oscillator strengths:

 Excited State   1:      Singlet-A      1.7962 eV  690.26 nm  f=0.3001  <S**2>=0.000
     156 ->157         0.70896
     156 <-157        -0.10754
 This state for optimization and/or second-order correction.
 Total Energy, E(TD-HF/TD-DFT) =  -1948.98775210
 Copying the excited state density for this state as the 1-particle RhoCI density.

 The electronic state is 1-A.
 Alpha  occ. eigenvalues --  -19.19415 -19.18406 -19.15346 -19.14447 -19.11465
 Alpha  occ. eigenvalues --  -19.09862 -14.39191 -14.36813 -14.34793 -14.28810
 Alpha  occ. eigenvalues --  -10.33583 -10.33339 -10.28124 -10.27313 -10.24466
 Alpha  occ. eigenvalues --  -10.24270 -10.23551 -10.23501 -10.23486 -10.23430
 Alpha  occ. eigenvalues --  -10.23378 -10.23354 -10.23260 -10.22640 -10.22245
 Alpha  occ. eigenvalues --  -10.21719 -10.20893 -10.20730 -10.20691 -10.20544
 Alpha  occ. eigenvalues --  -10.20332 -10.20315 -10.20218 -10.20127 -10.20021
 Alpha  occ. eigenvalues --  -10.20019 -10.19832 -10.19745 -10.19725 -10.19227
 Alpha  occ. eigenvalues --  -10.18774 -10.18607 -10.18043  -1.12308  -1.12105
 Alpha  occ. eigenvalues --   -1.04164  -1.03403  -1.02345  -1.01732  -1.01189
 Alpha  occ. eigenvalues --   -0.96536  -0.94871  -0.90101  -0.83288  -0.82458
 Alpha  occ. eigenvalues --   -0.81666  -0.81351  -0.78910  -0.78765  -0.78114
 Alpha  occ. eigenvalues --   -0.76780  -0.75964  -0.74716  -0.74028  -0.71863
 Alpha  occ. eigenvalues --   -0.70281  -0.69562  -0.68841  -0.68231  -0.67381
 Alpha  occ. eigenvalues --   -0.67078  -0.65166  -0.64520  -0.62549  -0.61093
 Alpha  occ. eigenvalues --   -0.60057  -0.59185  -0.58660  -0.58493  -0.57752
 Alpha  occ. eigenvalues --   -0.55367  -0.54817  -0.54433  -0.53795  -0.52968
 Alpha  occ. eigenvalues --   -0.52411  -0.52037  -0.51131  -0.50803  -0.50618
 Alpha  occ. eigenvalues --   -0.49312  -0.48930  -0.48881  -0.48019  -0.47745
 Alpha  occ. eigenvalues --   -0.46849  -0.46394  -0.46300  -0.46079  -0.45092
 Alpha  occ. eigenvalues --   -0.44660  -0.44401  -0.44194  -0.43992  -0.43627
 Alpha  occ. eigenvalues --   -0.43172  -0.42948  -0.42867  -0.42762  -0.42206
 Alpha  occ. eigenvalues --   -0.42051  -0.41625  -0.41360  -0.41250  -0.40898
 Alpha  occ. eigenvalues --   -0.40722  -0.40481  -0.40276  -0.39929  -0.39817
 Alpha  occ. eigenvalues --   -0.39631  -0.39505  -0.39243  -0.38831  -0.38566
 Alpha  occ. eigenvalues --   -0.38419  -0.38090  -0.37413  -0.37018  -0.36050
 Alpha  occ. eigenvalues --   -0.35830  -0.35281  -0.34797  -0.34450  -0.34244
 Alpha  occ. eigenvalues --   -0.34030  -0.33776  -0.33654  -0.33544  -0.33412
 Alpha  occ. eigenvalues --   -0.32839  -0.31784  -0.31074  -0.30626  -0.30333
 Alpha  occ. eigenvalues --   -0.28646  -0.28262  -0.26888  -0.25850  -0.25453
 Alpha  occ. eigenvalues --   -0.25253  -0.24605  -0.24329  -0.22861  -0.21692
 Alpha  occ. eigenvalues --   -0.17597
 Alpha virt. eigenvalues --   -0.10225  -0.06591  -0.04351  -0.01639  -0.01007
 Alpha virt. eigenvalues --    0.01145   0.01381   0.01681   0.03445   0.03564
 Alpha virt. eigenvalues --    0.04674   0.04864   0.04943   0.05502   0.05821

 Mulliken charges:
               1
     1  O   -0.208754
     2  O   -0.216080
     3  O   -0.100598
     4  O   -0.175018
     5  O   -0.240135
     6  O   -0.162229
     7  N    0.007604
     8  N   -0.131283
     9  N   -0.148763
    10  N   -0.377826
    11  C   -0.125198
    12  C    0.075066
    13  C   -0.137615
    14  C    0.038148
    15  C   -0.140989
    16  C    0.138636
    17  C   -0.093216
    18  C   -0.051715
    19  C    0.072552
    20  C   -0.090385
    21  C    0.073966
    22  C    0.091990
    23  C   -0.057423
    24  C    0.090621
    25  C   -0.085650
    26  C   -0.027649
    27  C    0.133366
    28  C   -0.033482
    29  C   -0.148125
    30  C    0.009790
    31  C   -0.099511
    32  C    0.038448
    33  C   -0.045554
    34  C    0.054182
    35  C   -0.024278
    36  C   -0.169621
    37  C    0.108140
    38  C    0.063866
    39  C    0.165708
    40  C    0.022877
    41  C    0.180709
    42  C    0.035950
    43  C   -0.091777
    44  H    0.157437
    45  H    0.061105
    46  H    0.052643
    47  H    0.017817
    48  H    0.013580
    49  H    0.029236
    50  H    0.028685
    51  H   -0.026040
    52  H    0.118936
    53  H    0.040525
    54  H    0.071754
    55  H    0.074060
    56  H    0.148074
    57  H    0.054653
    58  H    0.047108
    59  H    0.096842
    60  H    0.074706
    61  H    0.032693
    62  H    0.035356
    63  H    0.051396
    64  H   -0.025182
    65  H    0.038867
    66  H    0.042956
    67  H    0.007212
    68  H   -0.038929
    69  H    0.045878
    70  H    0.014726
    71  H    0.021092
    72  H    0.009897
    73  H    0.023494
    74  H    0.028079
    75  H    0.005481
    76  H    0.024552
    77  H    0.036323
    78  H    0.028218
    79  H    0.047275
    80  H    0.184586
    81  H    0.106164
 Sum of Mulliken charges =  -0.00000

 Dipole moment (field-independent basis, Debye):
    X=             -2.6182    Y=              0.2587    Z=              0.8774  Tot=              2.7734
 Quadrupole moment (field-independent basis, Debye-Ang):
   XX=           -256.2886   YY=           -241.2248   ZZ=           -255.7831
   XY=             23.1095   XZ=             11.5890   YZ=            -17.6565

 Normal termination of Gaussian 16 at Wed Jul  3 02:59:14 2019.
