 Gaussian 16, Revision A.03,
 Gaussian 16:  ES64L-G16RevA.03 25-Dec-2016

 --------------------------
 # td=(NStates=1) B3LYP/SVP
 --------------------------

 --
 TD
 --
 Symbolic Z-matrix:
 Charge =  0 Multiplicity = 1

                         Standard orientation:
 ---------------------------------------------------------------------
 Center     Atomic      Atomic             Coordinates (Angstroms)
 Number     Number       Type             X           Y           Z
 ---------------------------------------------------------------------
      1          8           0        4.132039   -5.031756   -1.764101
      2          8           0       -3.209044   -5.007805   -1.032944
      3          8           0       -7.031286   -1.297244   -2.011671
      4          8           0       -3.836414   -3.162699    0.076018
      5          8           0       -7.597758   -0.523208    0.044904
      6          8           0        3.121987    2.355936    0.438639
      7          7           0        0.298851   -0.527218    0.503046
      8          7           0       -1.522683    1.854319    0.505310
      9          7           0        3.167355   -3.287351   -0.522566
     10          7           0        0.840612    2.859641    0.016574
     11          6           0       -0.605738   -2.320698    1.309273
     12          6           0       -0.899122   -1.009965    0.904023
     13          6           0        0.713469   -2.511311    1.176088
     14          6           0        1.322443   -1.424633    0.683673
     15          6           0       -3.809550    1.680573    0.276008
     16          6           0       -2.489048    0.872560    0.564267
     17          6           0       -2.195113   -0.415818    0.910209
     18          6           0       -3.473115    2.834656   -0.150775
     19          6           0       -1.632441   -3.154933    1.991266
     20          6           0        5.481490   -3.002101   -1.335816
     21          6           0        3.543397   -1.954042   -0.238871
     22          6           0       -2.004715    3.093942   -0.124425
     23          6           0        4.959111   -1.759684   -0.555167
     24          6           0       -5.094027    1.034529    0.408532
     25          6           0        2.621616   -1.103864    0.358792
     26          6           0        1.336241   -3.696330    1.802259
     27          6           0        4.162648   -3.925403   -1.227250
     28          6           0       -2.109572   -4.496282    1.072177
     29          6           0       -5.419442   -0.030302   -0.739999
     30          6           0       -4.431342    3.978838   -0.526501
     31          6           0       -1.223171    4.079475   -0.320148
     32          6           0        6.757718   -3.568510   -0.837336
     33          6           0        5.674985   -0.630467   -0.252516
     34          6           0        0.256597    4.106145   -0.184913
     35          6           0        1.245889    5.180999   -0.367162
     36          6           0        2.398666    4.648556   -0.224193
     37          6           0       -3.074763   -4.101470    0.010055
     38          6           0        5.432633    0.605295    0.439607
     39          6           0       -6.764280   -0.584148   -0.803829
     40          6           0        3.778098    5.343328   -0.285815
     41          6           0        2.239068    3.092892    0.119819
     42          6           0        0.769808    6.577586   -0.789898
     43          6           0        4.522660    5.431967    1.059057
     44          1           0        0.289096    0.338251    0.061167
     45          1           0       -2.911260   -1.210247    0.875082
     46          1           0       -2.752663   -2.866799    2.208608
     47          1           0       -1.326736   -3.655577    2.907193
     48          1           0        5.567130   -2.677646   -2.477882
     49          1           0       -5.069046    0.473553    1.428452
     50          1           0       -5.889367    1.729071    0.598186
     51          1           0        2.917294   -0.031619    0.704282
     52          1           0       -0.453277    1.779452    0.537685
     53          1           0        1.110554   -4.947034    1.524373
     54          1           0        2.331836   -3.523058    1.778936
     55          1           0        1.010482   -3.893510    2.934444
     56          1           0        2.288943   -3.794519   -0.415363
     57          1           0       -1.333619   -5.055206    0.608264
     58          1           0       -2.603519   -5.235874    1.925631
     59          1           0       -4.687462   -0.760616   -0.979360
     60          1           0       -5.235553    0.678453   -1.693170
     61          1           0       -4.241361    4.864870   -0.042306
     62          1           0       -5.431171    3.681547   -0.184722
     63          1           0       -4.278739    3.930474   -1.688071
     64          1           0       -1.875859    5.002462   -0.726113
     65          1           0        7.598807   -2.982006   -0.914936
     66          1           0        6.974993   -4.512402   -1.344967
     67          1           0        6.836463   -4.099083    0.166303
     68          1           0        6.736337   -0.597518   -0.432786
     69          1           0        4.574779    1.260261   -0.088593
     70          1           0        6.257063    1.284233    0.602914
     71          1           0        4.821077    0.400007    1.223010
     72          1           0        3.760646    6.416411   -0.417413
     73          1           0        4.508923    4.976778   -1.027503
     74          1           0        0.817461    6.407340   -2.078318
     75          1           0        1.678962    7.325786   -0.393050
     76          1           0       -0.141576    6.821558   -0.210210
     77          1           0        3.701986    5.881139    1.971713
     78          1           0        5.428712    6.125250    0.881073
     79          1           0        4.966633    4.423129    1.367687
     80          1           0       -4.031143   -4.720326   -1.541161
     81          1           0       -7.987555   -1.426797   -1.895354
 ---------------------------------------------------------------------

 SCF Done:  E(RB3LYP) =  -1949.02685150     A.U. after   17 cycles

 Excitation energies and oscillator strengths:

 Excited State   1:      Singlet-A      1.3483 eV  919.55 nm  f=0.1579  <S**2>=0.000
     156 ->157         0.70999
     156 <-157        -0.12104
 This state for optimization and/or second-order correction.
 Total Energy, E(TD-HF/TD-DFT) =  -1948.97730161
 Copying the excited state density for this state as the 1-particle RhoCI density.

 The electronic state is 1-A.
 Alpha  occ. eigenvalues --  -19.18386 -19.16936 -19.13861 -19.13605 -19.13481
 Alpha  occ. eigenvalues --  -19.10123 -14.37050 -14.36459 -14.35428 -14.31321
 Alpha  occ. eigenvalues --  -10.32936 -10.32251 -10.29270 -10.28667 -10.26061
 Alpha  occ. eigenvalues --  -10.24320 -10.24286 -10.23798 -10.23688 -10.22189
 Alpha  occ. eigenvalues --  -10.21868 -10.21640 -10.21473 -10.21451 -10.21303
 Alpha  occ. eigenvalues --  -10.21272 -10.21016 -10.20868 -10.20660 -10.20637
 Alpha  occ. eigenvalues --  -10.20625 -10.20515 -10.20241 -10.20033 -10.20011
 Alpha  occ. eigenvalues --  -10.19599 -10.19560 -10.19080 -10.18380 -10.17677
 Alpha  occ. eigenvalues --  -10.17599 -10.17463 -10.16567  -1.09269  -1.08924
 Alpha  occ. eigenvalues --   -1.05220  -1.01818  -1.00412  -1.00231  -0.99523
 Alpha  occ. eigenvalues --   -0.95757  -0.94379  -0.92480  -0.83279  -0.82328
 Alpha  occ. eigenvalues --   -0.81943  -0.80930  -0.80682  -0.79732  -0.77817
 Alpha  occ. eigenvalues --   -0.76731  -0.76347  -0.75781  -0.75027  -0.72443
 Alpha  occ. eigenvalues --   -0.71694  -0.70134  -0.69526  -0.68777  -0.68317
 Alpha  occ. eigenvalues --   -0.66985  -0.65738  -0.63885  -0.62632  -0.60481
 Alpha  occ. eigenvalues --   -0.59537  -0.58444  -0.57844  -0.57373  -0.57026
 Alpha  occ. eigenvalues --   -0.55971  -0.55407  -0.54930  -0.54172  -0.53528
 Alpha  occ. eigenvalues --   -0.52751  -0.52171  -0.50816  -0.50608  -0.49408
 Alpha  occ. eigenvalues --   -0.49004  -0.48433  -0.48226  -0.47912  -0.47514
 Alpha  occ. eigenvalues --   -0.46850  -0.46772  -0.46590  -0.46164  -0.45796
 Alpha  occ. eigenvalues --   -0.45650  -0.45343  -0.44858  -0.44727  -0.44195
 Alpha  occ. eigenvalues --   -0.43639  -0.43151  -0.43069  -0.42864  -0.42355
 Alpha  occ. eigenvalues --   -0.42126  -0.41972  -0.41373  -0.40992  -0.40695
 Alpha  occ. eigenvalues --   -0.40635  -0.40469  -0.40187  -0.39761  -0.39627
 Alpha  occ. eigenvalues --   -0.39425  -0.39171  -0.38693  -0.38645  -0.38254
 Alpha  occ. eigenvalues --   -0.37643  -0.37311  -0.36941  -0.36905  -0.36440
 Alpha  occ. eigenvalues --   -0.36319  -0.35552  -0.35300  -0.34865  -0.34317
 Alpha  occ. eigenvalues --   -0.34110  -0.33784  -0.33417  -0.33162  -0.32827
 Alpha  occ. eigenvalues --   -0.32655  -0.32270  -0.31130  -0.30625  -0.30231
 Alpha  occ. eigenvalues --   -0.29201  -0.28938  -0.27144  -0.26520  -0.25447
 Alpha  occ. eigenvalues --   -0.25373  -0.24900  -0.24659  -0.24154  -0.21905
 Alpha  occ. eigenvalues --   -0.17148
 Alpha virt. eigenvalues --   -0.11347  -0.05201  -0.03407  -0.02498  -0.00684
 Alpha virt. eigenvalues --    0.00711   0.01833   0.02212   0.03294   0.03714
 Alpha virt. eigenvalues --    0.03941   0.04448   0.04759   0.05083   0.06302

 Mulliken charges:
               1
     1  O   -0.232720
     2  O   -0.226929
     3  O   -0.245039
     4  O   -0.232481
     5  O   -0.197805
     6  O   -0.167077
     7  N   -0.001864
     8  N   -0.202943
     9  N   -0.124637
    10  N   -0.351850
    11  C    0.004931
    12  C   -0.059047
    13  C   -0.115446
    14  C    0.107489
    15  C   -0.049143
    16  C    0.102818
    17  C   -0.043001
    18  C   -0.144939
    19  C    0.038378
    20  C   -0.054893
    21  C    0.126217
    22  C    0.139253
    23  C    0.031854
    24  C    0.115457
    25  C   -0.209213
    26  C   -0.011791
    27  C    0.115551
    28  C   -0.073250
    29  C   -0.009106
    30  C    0.118734
    31  C   -0.151639
    32  C    0.083318
    33  C   -0.178165
    34  C    0.089262
    35  C   -0.064557
    36  C   -0.177002
    37  C    0.171574
    38  C    0.098584
    39  C    0.160323
    40  C    0.074079
    41  C    0.214318
    42  C    0.011826
    43  C   -0.114865
    44  H    0.085096
    45  H    0.006196
    46  H    0.049453
    47  H   -0.007686
    48  H    0.059361
    49  H    0.030183
    50  H   -0.004050
    51  H    0.038691
    52  H    0.153867
    53  H    0.035316
    54  H   -0.000122
    55  H    0.029272
    56  H    0.146968
    57  H    0.021974
    58  H    0.074675
    59  H    0.043896
    60  H    0.046000
    61  H    0.013869
    62  H    0.007403
    63  H    0.051148
    64  H    0.009595
    65  H   -0.000344
    66  H    0.006112
    67  H    0.005777
    68  H   -0.023627
    69  H    0.077581
    70  H    0.009542
    71  H   -0.006790
    72  H   -0.008878
    73  H    0.017345
    74  H    0.085643
    75  H    0.050811
    76  H    0.047799
    77  H    0.036582
    78  H    0.027431
    79  H    0.046201
    80  H    0.202009
    81  H    0.171139
 Sum of Mulliken charges =  -0.00000

 Dipole moment (field-independent basis, Debye):
    X=             -1.9642    Y=              4.8235    Z=             -0.1765  Tot=              5.2111
 Quadrupole moment (field-independent basis, Debye-Ang):
   XX=           -250.9576   YY=           -241.3717   ZZ=           -257.5935
   XY=             15.1461   XZ=             10.8098   YZ=            -17.4519

 Normal termination of Gaussian 16 at Sat Jun 29 02:06:24 2019.
