 Gaussian 16, Revision A.03,
 Gaussian 16:  ES64L-G16RevA.03 25-Dec-2016

 --------------------------
 # td=(NStates=1) B3LYP/SVP
 --------------------------

 --
 TD
 --
 Symbolic Z-matrix:
 Charge =  0 Multiplicity = 1

                         Standard orientation:
 ---------------------------------------------------------------------
 Center     Atomic      Atomic             Coordinates (Angstroms)
 Number     Number       Type             X           Y           Z
 ---------------------------------------------------------------------
      1          8           0        4.141627   -5.041675   -1.714771
      2          8           0       -3.266324   -4.795588   -1.041055
      3          8           0       -7.071393   -1.387730   -1.774691
      4          8           0       -3.923758   -2.998038    0.102846
      5          8           0       -7.617894   -0.331435    0.109883
      6          8           0        3.086607    2.091185    0.209042
      7          7           0        0.211350   -0.569135    0.501078
      8          7           0       -1.480821    1.953886    0.442166
      9          7           0        3.177847   -3.205702   -0.673427
     10          7           0        0.891902    2.828911    0.059816
     11          6           0       -0.804109   -2.349836    1.281391
     12          6           0       -0.994722   -1.057355    0.766768
     13          6           0        0.701765   -2.577005    1.269491
     14          6           0        1.243989   -1.402432    0.672569
     15          6           0       -3.765609    1.679705    0.259121
     16          6           0       -2.399069    0.929268    0.529293
     17          6           0       -2.303821   -0.387717    0.868152
     18          6           0       -3.453545    3.075785   -0.014651
     19          6           0       -1.783284   -3.357503    1.999725
     20          6           0        5.363726   -3.004267   -1.328617
     21          6           0        3.431347   -1.889570   -0.258845
     22          6           0       -2.003306    3.167494    0.085861
     23          6           0        4.886565   -1.764763   -0.493378
     24          6           0       -5.077090    0.930531    0.273411
     25          6           0        2.542840   -1.015478    0.305453
     26          6           0        1.510659   -3.740706    1.798732
     27          6           0        4.170576   -3.886746   -1.253751
     28          6           0       -2.253239   -4.400619    1.107445
     29          6           0       -5.410270    0.095712   -0.940972
     30          6           0       -4.378129    4.064718   -0.480067
     31          6           0       -1.145534    4.147675   -0.200996
     32          6           0        6.563879   -3.641496   -0.792979
     33          6           0        5.758817   -0.722505   -0.037968
     34          6           0        0.327179    3.949229   -0.244934
     35          6           0        1.271594    5.147557   -0.417918
     36          6           0        2.544345    4.436367   -0.287366
     37          6           0       -3.158237   -3.927662    0.037499
     38          6           0        5.608595    0.476006    0.703446
     39          6           0       -6.824697   -0.625369   -0.757079
     40          6           0        3.882543    5.079129   -0.283585
     41          6           0        2.265151    2.999789   -0.013366
     42          6           0        1.034024    6.608551   -0.703963
     43          6           0        4.647977    5.307838    1.039647
     44          1           0        0.404025    0.437772   -0.026193
     45          1           0       -3.108565   -1.067955    0.829000
     46          1           0       -2.533004   -2.617263    2.294924
     47          1           0       -1.400759   -3.871921    2.961322
     48          1           0        5.564291   -2.720820   -2.346199
     49          1           0       -5.202717    0.271090    1.137427
     50          1           0       -5.954918    1.672199    0.281557
     51          1           0        2.871022    0.036117    0.255518
     52          1           0       -0.465747    2.084930    0.527389
     53          1           0        1.604579   -4.560506    0.898109
     54          1           0        2.465056   -3.145310    2.323659
     55          1           0        0.715918   -4.256451    2.450172
     56          1           0        2.214011   -3.565621   -0.664309
     57          1           0       -1.467045   -4.919462    0.622835
     58          1           0       -2.962261   -5.180334    1.635053
     59          1           0       -4.652503   -0.611465   -1.274053
     60          1           0       -5.644053    0.691598   -1.971613
     61          1           0       -4.117228    4.978936   -0.058374
     62          1           0       -5.318447    3.833439   -0.290131
     63          1           0       -4.290969    4.288837   -1.463697
     64          1           0       -1.446723    5.212922   -0.649643
     65          1           0        7.443719   -2.990552   -0.968128
     66          1           0        6.846936   -4.386693   -1.595310
     67          1           0        6.366195   -4.161289    0.154219
     68          1           0        6.813190   -0.891265   -0.490611
     69          1           0        5.109311    1.159599   -0.068483
     70          1           0        6.702634    0.816549    0.896691
     71          1           0        4.899329    0.496397    1.618047
     72          1           0        3.796121    6.058854   -0.612844
     73          1           0        4.614566    4.597520   -0.930892
     74          1           0        0.305295    6.802692   -1.539623
     75          1           0        2.155419    7.025319   -0.977059
     76          1           0        0.533524    7.021229    0.225547
     77          1           0        4.207483    6.264213    1.583300
     78          1           0        5.625652    5.512978    0.979232
     79          1           0        4.646540    4.331383    1.623082
     80          1           0       -3.726555   -4.391479   -1.806214
     81          1           0       -8.011632   -1.671591   -1.926588
 ---------------------------------------------------------------------

 SCF Done:  E(RB3LYP) =  -1949.11119185     A.U. after   16 cycles

 Excitation energies and oscillator strengths:

 Excited State   1:      Singlet-A      1.4727 eV  841.87 nm  f=0.1823  <S**2>=0.000
     156 ->157         0.70629
     156 <-157        -0.11034
 This state for optimization and/or second-order correction.
 Total Energy, E(TD-HF/TD-DFT) =  -1949.05707055
 Copying the excited state density for this state as the 1-particle RhoCI density.

 The electronic state is 1-A.
 Alpha  occ. eigenvalues --  -19.19229 -19.17755 -19.13773 -19.12163 -19.11830
 Alpha  occ. eigenvalues --  -19.09202 -14.37366 -14.36605 -14.35545 -14.30503
 Alpha  occ. eigenvalues --  -10.32875 -10.32168 -10.28179 -10.27545 -10.24717
 Alpha  occ. eigenvalues --  -10.24263 -10.24039 -10.23470 -10.22744 -10.22399
 Alpha  occ. eigenvalues --  -10.22338 -10.22119 -10.21756 -10.21672 -10.21472
 Alpha  occ. eigenvalues --  -10.21461 -10.21012 -10.20967 -10.20685 -10.20586
 Alpha  occ. eigenvalues --  -10.20579 -10.20315 -10.20262 -10.19540 -10.19410
 Alpha  occ. eigenvalues --  -10.18882 -10.18864 -10.18830 -10.18725 -10.18343
 Alpha  occ. eigenvalues --  -10.17791 -10.17581 -10.17451  -1.10971  -1.09317
 Alpha  occ. eigenvalues --   -1.02025  -1.01540  -1.00741  -1.00579  -0.98700
 Alpha  occ. eigenvalues --   -0.97679  -0.94402  -0.93787  -0.82332  -0.81758
 Alpha  occ. eigenvalues --   -0.81593  -0.80663  -0.80160  -0.79324  -0.77650
 Alpha  occ. eigenvalues --   -0.76788  -0.76576  -0.75758  -0.74788  -0.72260
 Alpha  occ. eigenvalues --   -0.71488  -0.69867  -0.69145  -0.68261  -0.67742
 Alpha  occ. eigenvalues --   -0.66861  -0.65989  -0.63524  -0.62981  -0.61688
 Alpha  occ. eigenvalues --   -0.61316  -0.59924  -0.59438  -0.57428  -0.56139
 Alpha  occ. eigenvalues --   -0.55637  -0.55339  -0.54593  -0.53937  -0.52275
 Alpha  occ. eigenvalues --   -0.52099  -0.51452  -0.50794  -0.49796  -0.49336
 Alpha  occ. eigenvalues --   -0.48941  -0.48608  -0.48497  -0.48002  -0.47882
 Alpha  occ. eigenvalues --   -0.47127  -0.46889  -0.45843  -0.45687  -0.45368
 Alpha  occ. eigenvalues --   -0.45218  -0.44662  -0.44546  -0.43824  -0.43611
 Alpha  occ. eigenvalues --   -0.43307  -0.43139  -0.42594  -0.42488  -0.42350
 Alpha  occ. eigenvalues --   -0.41943  -0.41728  -0.41641  -0.41301  -0.41191
 Alpha  occ. eigenvalues --   -0.40983  -0.40749  -0.40262  -0.40146  -0.39874
 Alpha  occ. eigenvalues --   -0.39734  -0.39179  -0.39000  -0.38565  -0.38157
 Alpha  occ. eigenvalues --   -0.37565  -0.37127  -0.37008  -0.36782  -0.36459
 Alpha  occ. eigenvalues --   -0.35867  -0.35572  -0.35305  -0.34572  -0.34238
 Alpha  occ. eigenvalues --   -0.33688  -0.33537  -0.33375  -0.32950  -0.32799
 Alpha  occ. eigenvalues --   -0.32618  -0.31901  -0.31305  -0.30311  -0.29225
 Alpha  occ. eigenvalues --   -0.28985  -0.27784  -0.26258  -0.25551  -0.24690
 Alpha  occ. eigenvalues --   -0.24531  -0.23894  -0.23579  -0.23094  -0.21409
 Alpha  occ. eigenvalues --   -0.17470
 Alpha virt. eigenvalues --   -0.11252  -0.06329  -0.04006  -0.01531   0.00460
 Alpha virt. eigenvalues --    0.00702   0.02262   0.03023   0.03112   0.03273
 Alpha virt. eigenvalues --    0.03949   0.04609   0.04975   0.05325   0.05953

 Mulliken charges:
               1
     1  O   -0.251707
     2  O   -0.228326
     3  O   -0.158069
     4  O   -0.219131
     5  O   -0.232564
     6  O   -0.222859
     7  N   -0.071067
     8  N   -0.083187
     9  N   -0.077442
    10  N   -0.248994
    11  C   -0.170189
    12  C    0.007345
    13  C   -0.220282
    14  C    0.095037
    15  C   -0.092657
    16  C    0.140779
    17  C   -0.039770
    18  C   -0.149923
    19  C    0.089351
    20  C   -0.033986
    21  C    0.079419
    22  C    0.127967
    23  C   -0.081991
    24  C    0.091672
    25  C   -0.118295
    26  C    0.014596
    27  C    0.093737
    28  C    0.088160
    29  C   -0.079653
    30  C    0.291285
    31  C   -0.158246
    32  C    0.087631
    33  C   -0.160254
    34  C   -0.001776
    35  C   -0.107488
    36  C   -0.169737
    37  C    0.099746
    38  C    0.049700
    39  C    0.133157
    40  C    0.112837
    41  C    0.183827
    42  C    0.035227
    43  C   -0.001913
    44  H    0.190365
    45  H    0.009739
    46  H    0.013670
    47  H    0.033962
    48  H    0.022702
    49  H    0.035896
    50  H    0.023065
    51  H    0.003380
    52  H    0.124786
    53  H    0.043393
    54  H    0.086636
    55  H    0.012340
    56  H    0.135293
    57  H    0.013617
    58  H    0.064023
    59  H    0.031974
    60  H    0.040075
    61  H   -0.020010
    62  H   -0.035884
    63  H   -0.015819
    64  H    0.006726
    65  H    0.002085
    66  H    0.007394
    67  H    0.024885
    68  H    0.003982
    69  H    0.081598
    70  H    0.025212
    71  H    0.057671
    72  H   -0.044861
    73  H    0.006746
    74  H    0.042823
    75  H    0.061005
    76  H    0.050849
    77  H    0.015837
    78  H   -0.020994
    79  H    0.031254
    80  H    0.193082
    81  H    0.199536
 Sum of Mulliken charges =  -0.00000

 Dipole moment (field-independent basis, Debye):
    X=             -3.1229    Y=              4.3263    Z=             -2.2345  Tot=              5.7847
 Quadrupole moment (field-independent basis, Debye-Ang):
   XX=           -245.8331   YY=           -244.1050   ZZ=           -252.5189
   XY=             24.8856   XZ=             20.8076   YZ=            -14.0588

 Normal termination of Gaussian 16 at Mon Jul  1 22:39:56 2019.
