 Gaussian 16, Revision A.03,
 Gaussian 16:  ES64L-G16RevA.03 25-Dec-2016

 --------------------------
 # td=(NStates=1) B3LYP/SVP
 --------------------------

 --
 TD
 --
 Symbolic Z-matrix:
 Charge =  0 Multiplicity = 1

                         Standard orientation:
 ---------------------------------------------------------------------
 Center     Atomic      Atomic             Coordinates (Angstroms)
 Number     Number       Type             X           Y           Z
 ---------------------------------------------------------------------
      1          8           0        4.137996   -4.965085   -1.815841
      2          8           0       -3.262272   -4.843120   -1.021333
      3          8           0       -6.919372   -1.450120   -1.928417
      4          8           0       -3.997836   -3.160483    0.220659
      5          8           0       -7.533450   -0.518341   -0.035419
      6          8           0        3.039012    2.413883    0.405190
      7          7           0        0.399511   -0.471449    0.729502
      8          7           0       -1.533974    1.794530    0.391120
      9          7           0        3.221715   -3.244964   -0.645803
     10          7           0        0.874109    2.926443    0.140014
     11          6           0       -0.570488   -2.399469    1.413165
     12          6           0       -0.863344   -1.094758    1.000742
     13          6           0        0.774488   -2.645796    1.209752
     14          6           0        1.374042   -1.417048    0.831401
     15          6           0       -3.759976    1.493437    0.220970
     16          6           0       -2.528121    0.888402    0.564664
     17          6           0       -2.159853   -0.434784    0.957701
     18          6           0       -3.522063    2.784349   -0.211016
     19          6           0       -1.514381   -3.377076    2.048679
     20          6           0        5.462719   -2.881417   -1.344473
     21          6           0        3.627997   -1.904807   -0.134328
     22          6           0       -2.068868    3.053642   -0.015387
     23          6           0        4.976549   -1.624596   -0.549876
     24          6           0       -5.037028    0.813643    0.279198
     25          6           0        2.616498   -1.010229    0.406200
     26          6           0        1.582336   -3.764656    1.888372
     27          6           0        4.258715   -3.772169   -1.373548
     28          6           0       -2.094556   -4.484212    0.998763
     29          6           0       -5.345801   -0.111173   -0.889202
     30          6           0       -4.478480    3.895188   -0.572694
     31          6           0       -1.240115    4.173347   -0.318601
     32          6           0        6.824997   -3.664123   -1.049822
     33          6           0        5.733359   -0.629608   -0.284667
     34          6           0        0.110251    4.010049   -0.213188
     35          6           0        1.047460    5.178085   -0.461837
     36          6           0        2.318840    4.795243   -0.156826
     37          6           0       -3.213648   -4.050371    0.079006
     38          6           0        5.413179    0.622437    0.519443
     39          6           0       -6.696880   -0.754624   -0.826534
     40          6           0        3.690068    5.377726   -0.188386
     41          6           0        2.153596    3.316999    0.122715
     42          6           0        0.655330    6.530025   -0.815613
     43          6           0        4.300721    5.526960    1.139066
     44          1           0        0.393435    0.422759    0.263949
     45          1           0       -2.955258   -1.034414    1.310221
     46          1           0       -2.479165   -2.986469    2.717821
     47          1           0       -0.854175   -4.021581    2.719139
     48          1           0        5.543533   -2.400388   -2.459702
     49          1           0       -5.052751    0.116805    1.212772
     50          1           0       -5.774581    1.533973    0.447876
     51          1           0        2.905636    0.173510    0.412360
     52          1           0       -0.499528    1.810082    0.411975
     53          1           0        1.250760   -4.898729    1.406980
     54          1           0        2.744415   -3.452202    1.533500
     55          1           0        1.423572   -4.010563    3.037914
     56          1           0        2.194395   -3.685055   -0.767169
     57          1           0       -1.232134   -4.831916    0.399302
     58          1           0       -2.382932   -5.274089    1.700552
     59          1           0       -4.630519   -0.937659   -1.051777
     60          1           0       -5.054755    0.447745   -1.742547
     61          1           0       -4.880366    4.565370    0.380535
     62          1           0       -5.665777    3.465413   -1.029790
     63          1           0       -3.961957    4.844599   -1.396055
     64          1           0       -1.484841    5.160211   -0.596014
     65          1           0        7.476170   -2.960965   -1.327514
     66          1           0        6.996274   -4.528916   -1.838726
     67          1           0        7.132363   -3.934049    0.033012
     68          1           0        6.615872   -0.480383   -0.689805
     69          1           0        4.976200    1.465623   -0.123843
     70          1           0        6.330514    1.066011    0.807757
     71          1           0        4.501448    0.599584    1.284175
     72          1           0        3.652409    6.211848   -0.723655
     73          1           0        4.375984    4.709399   -0.853147
     74          1           0        0.184989    6.566592   -1.753635
     75          1           0        1.543533    7.303045   -1.017980
     76          1           0       -0.260469    6.882924   -0.185583
     77          1           0        3.524852    6.120843    1.855541
     78          1           0        5.341577    6.056436    0.978313
     79          1           0        4.498164    4.515365    1.654036
     80          1           0       -3.977128   -4.396008   -1.592256
     81          1           0       -7.867156   -1.682255   -1.964100
 ---------------------------------------------------------------------

 SCF Done:  E(RB3LYP) =  -1949.05046726     A.U. after   23 cycles

 Excitation energies and oscillator strengths:

 Excited State   1:      Singlet-A      1.6583 eV  747.67 nm  f=0.3359  <S**2>=0.000
     156 ->157         0.70850
     156 <-157        -0.12997
 This state for optimization and/or second-order correction.
 Total Energy, E(TD-HF/TD-DFT) =  -1948.98952642
 Copying the excited state density for this state as the 1-particle RhoCI density.

 The electronic state is 1-A.
 Alpha  occ. eigenvalues --  -19.19398 -19.18266 -19.14678 -19.12532 -19.09494
 Alpha  occ. eigenvalues --  -19.08612 -14.37973 -14.37941 -14.36577 -14.28649
 Alpha  occ. eigenvalues --  -10.33612 -10.31607 -10.28582 -10.26111 -10.25443
 Alpha  occ. eigenvalues --  -10.25164 -10.25131 -10.24345 -10.24164 -10.23901
 Alpha  occ. eigenvalues --  -10.23558 -10.23239 -10.22715 -10.22616 -10.22492
 Alpha  occ. eigenvalues --  -10.22458 -10.21179 -10.20972 -10.20550 -10.20480
 Alpha  occ. eigenvalues --  -10.20354 -10.20279 -10.20176 -10.19976 -10.19760
 Alpha  occ. eigenvalues --  -10.19678 -10.19642 -10.19228 -10.19182 -10.18879
 Alpha  occ. eigenvalues --  -10.18598 -10.18069 -10.17826  -1.11410  -1.11312
 Alpha  occ. eigenvalues --   -1.02008  -1.01999  -1.00189  -0.98873  -0.97962
 Alpha  occ. eigenvalues --   -0.97371  -0.92108  -0.90402  -0.83208  -0.82835
 Alpha  occ. eigenvalues --   -0.82320  -0.81204  -0.80267  -0.79120  -0.77744
 Alpha  occ. eigenvalues --   -0.77613  -0.76750  -0.75889  -0.74658  -0.72319
 Alpha  occ. eigenvalues --   -0.70573  -0.69592  -0.68877  -0.68458  -0.68225
 Alpha  occ. eigenvalues --   -0.66886  -0.65504  -0.64945  -0.62203  -0.61360
 Alpha  occ. eigenvalues --   -0.60548  -0.60006  -0.58835  -0.57491  -0.56591
 Alpha  occ. eigenvalues --   -0.55930  -0.55831  -0.54549  -0.54214  -0.53163
 Alpha  occ. eigenvalues --   -0.52814  -0.51985  -0.51466  -0.51098  -0.49925
 Alpha  occ. eigenvalues --   -0.49510  -0.49209  -0.48740  -0.48439  -0.48009
 Alpha  occ. eigenvalues --   -0.47300  -0.46747  -0.46213  -0.45813  -0.45627
 Alpha  occ. eigenvalues --   -0.44985  -0.44507  -0.44226  -0.44032  -0.43580
 Alpha  occ. eigenvalues --   -0.43258  -0.42979  -0.42389  -0.42235  -0.42086
 Alpha  occ. eigenvalues --   -0.41596  -0.41230  -0.41070  -0.40939  -0.40280
 Alpha  occ. eigenvalues --   -0.39828  -0.39610  -0.39563  -0.39431  -0.38988
 Alpha  occ. eigenvalues --   -0.38776  -0.38355  -0.38247  -0.38172  -0.37975
 Alpha  occ. eigenvalues --   -0.37669  -0.37479  -0.37233  -0.36972  -0.36541
 Alpha  occ. eigenvalues --   -0.36309  -0.36117  -0.35606  -0.34926  -0.34847
 Alpha  occ. eigenvalues --   -0.34198  -0.33767  -0.33575  -0.33400  -0.33086
 Alpha  occ. eigenvalues --   -0.32784  -0.32184  -0.31540  -0.30184  -0.29574
 Alpha  occ. eigenvalues --   -0.28659  -0.26898  -0.26572  -0.26007  -0.25716
 Alpha  occ. eigenvalues --   -0.25450  -0.24652  -0.23432  -0.23325  -0.21760
 Alpha  occ. eigenvalues --   -0.17970
 Alpha virt. eigenvalues --   -0.11317  -0.06494  -0.05079  -0.01663  -0.00969
 Alpha virt. eigenvalues --    0.00642   0.01381   0.01630   0.01959   0.03030
 Alpha virt. eigenvalues --    0.03291   0.03837   0.04650   0.04953   0.05531

 Mulliken charges:
               1
     1  O   -0.282405
     2  O   -0.207816
     3  O   -0.171598
     4  O   -0.208350
     5  O   -0.192522
     6  O   -0.307346
     7  N   -0.082383
     8  N   -0.127455
     9  N   -0.199438
    10  N   -0.258960
    11  C   -0.030679
    12  C    0.031061
    13  C   -0.151293
    14  C    0.143921
    15  C   -0.074985
    16  C    0.095970
    17  C   -0.011072
    18  C   -0.057310
    19  C    0.011786
    20  C   -0.110966
    21  C    0.077979
    22  C    0.131190
    23  C    0.084789
    24  C    0.121321
    25  C   -0.164826
    26  C   -0.089638
    27  C    0.143684
    28  C   -0.007631
    29  C    0.002785
    30  C   -0.132476
    31  C   -0.090433
    32  C    0.090460
    33  C   -0.134773
    34  C    0.095839
    35  C   -0.127936
    36  C   -0.182778
    37  C    0.146729
    38  C    0.013378
    39  C    0.135326
    40  C    0.182583
    41  C    0.138281
    42  C    0.081746
    43  C   -0.066139
    44  H    0.126460
    45  H   -0.027109
    46  H    0.060922
    47  H    0.012355
    48  H    0.065462
    49  H    0.022564
    50  H   -0.009071
    51  H    0.103980
    52  H    0.136766
    53  H    0.030686
    54  H    0.088645
    55  H    0.065745
    56  H    0.197844
    57  H    0.041694
    58  H    0.053363
    59  H    0.022977
    60  H    0.013544
    61  H    0.066998
    62  H    0.051239
    63  H    0.058200
    64  H   -0.061015
    65  H   -0.026356
    66  H    0.053949
    67  H    0.044156
    68  H   -0.064798
    69  H    0.065577
    70  H   -0.009703
    71  H    0.065351
    72  H   -0.067572
    73  H    0.016333
    74  H   -0.007312
    75  H    0.039298
    76  H    0.032358
    77  H    0.027275
    78  H    0.023419
    79  H    0.048778
    80  H    0.201556
    81  H    0.177822
 Sum of Mulliken charges =  -0.00000

 Dipole moment (field-independent basis, Debye):
    X=             -2.3043    Y=              1.1026    Z=             -1.2660  Tot=              2.8510
 Quadrupole moment (field-independent basis, Debye-Ang):
   XX=           -245.0987   YY=           -250.4279   ZZ=           -254.6422
   XY=             16.2150   XZ=             10.4708   YZ=            -18.6953

 Normal termination of Gaussian 16 at Sat Jun 29 16:54:24 2019.
