 Gaussian 16, Revision A.03,
 Gaussian 16:  ES64L-G16RevA.03 25-Dec-2016

 --------------------------
 # td=(NStates=1) B3LYP/SVP
 --------------------------

 --
 TD
 --
 Symbolic Z-matrix:
 Charge =  0 Multiplicity = 1

                         Standard orientation:
 ---------------------------------------------------------------------
 Center     Atomic      Atomic             Coordinates (Angstroms)
 Number     Number       Type             X           Y           Z
 ---------------------------------------------------------------------
      1          8           0        4.116760   -4.918331   -1.853592
      2          8           0       -3.189187   -4.698423   -1.106480
      3          8           0       -6.916517   -1.631958   -1.704548
      4          8           0       -3.809250   -3.014528    0.247881
      5          8           0       -7.684576   -0.261725   -0.137354
      6          8           0        2.976941    2.220614    0.453198
      7          7           0        0.225183   -0.562399    0.407412
      8          7           0       -1.456400    1.892889    0.382504
      9          7           0        3.170139   -3.090060   -0.776967
     10          7           0        0.797646    2.911831    0.180364
     11          6           0       -0.550438   -2.336428    1.550339
     12          6           0       -0.924501   -1.073760    0.950364
     13          6           0        0.727380   -2.587742    1.373102
     14          6           0        1.264812   -1.464270    0.660445
     15          6           0       -3.805480    1.630413    0.260892
     16          6           0       -2.481610    0.865847    0.612811
     17          6           0       -2.115531   -0.436152    0.866052
     18          6           0       -3.483266    2.857639   -0.126829
     19          6           0       -1.649694   -3.380356    2.077846
     20          6           0        5.406886   -2.762369   -1.462677
     21          6           0        3.511018   -1.811781   -0.244733
     22          6           0       -1.992390    3.076912    0.001020
     23          6           0        4.991098   -1.667056   -0.508559
     24          6           0       -5.109584    0.932218    0.316838
     25          6           0        2.546248   -0.964478    0.310023
     26          6           0        1.481378   -3.801277    1.882784
     27          6           0        4.103241   -3.762435   -1.418543
     28          6           0       -2.113961   -4.454223    1.048526
     29          6           0       -5.297146   -0.030147   -0.854778
     30          6           0       -4.368006    3.902903   -0.602747
     31          6           0       -1.144747    4.091835   -0.296432
     32          6           0        6.729793   -3.585462   -1.054517
     33          6           0        5.800275   -0.614015    0.012706
     34          6           0        0.248305    3.971244   -0.221567
     35          6           0        1.221100    5.098267   -0.471467
     36          6           0        2.453204    4.574248   -0.190649
     37          6           0       -3.106665   -3.993763   -0.017852
     38          6           0        5.459632    0.490144    0.823277
     39          6           0       -6.807084   -0.619432   -0.835004
     40          6           0        3.844089    5.133721   -0.263742
     41          6           0        2.135702    3.075418    0.147074
     42          6           0        0.859582    6.496719   -0.988289
     43          6           0        4.321086    5.397500    1.217262
     44          1           0        0.240579    0.291264   -0.328898
     45          1           0       -3.077411   -1.017148    1.004899
     46          1           0       -2.509146   -2.818305    2.382159
     47          1           0       -1.316233   -3.992335    2.936118
     48          1           0        5.465179   -2.427070   -2.518473
     49          1           0       -5.509407    0.418893    1.361696
     50          1           0       -6.044488    1.550682    0.272333
     51          1           0        2.782625   -0.071835    0.443792
     52          1           0       -0.562498    1.769236    0.458821
     53          1           0        1.810298   -4.522912    1.153916
     54          1           0        2.556286   -3.400605    1.942356
     55          1           0        1.117071   -4.086355    2.867789
     56          1           0        2.208199   -3.492928   -0.812675
     57          1           0       -1.298623   -4.899952    0.565289
     58          1           0       -2.714027   -5.054760    1.751529
     59          1           0       -4.462039   -0.883056   -0.845935
     60          1           0       -5.083761    0.421103   -1.967504
     61          1           0       -4.574519    4.721776    0.333672
     62          1           0       -5.537492    3.495474   -0.770207
     63          1           0       -4.117129    4.315418   -1.635346
     64          1           0       -1.672640    5.110422   -0.705397
     65          1           0        7.484395   -3.023827   -1.374722
     66          1           0        6.657124   -4.567699   -1.654412
     67          1           0        6.709843   -3.760726   -0.037931
     68          1           0        6.778784   -0.600471   -0.375759
     69          1           0        4.843959    1.091119    0.156180
     70          1           0        6.430703    0.978287    1.347552
     71          1           0        4.850589    0.183092    1.621471
     72          1           0        3.783360    6.064151   -0.937636
     73          1           0        4.587958    4.251415   -0.740724
     74          1           0        0.112550    6.500933   -1.870407
     75          1           0        1.807782    7.092947   -1.204735
     76          1           0        0.336939    7.106975   -0.225792
     77          1           0        3.601654    5.815059    1.952304
     78          1           0        5.305840    6.090739    1.065825
     79          1           0        4.648509    4.440935    1.618950
     80          1           0       -3.815174   -4.319157   -1.657369
     81          1           0       -7.863336   -1.901088   -1.436607
 ---------------------------------------------------------------------

 SCF Done:  E(RB3LYP) =  -1949.08738420     A.U. after   16 cycles

 Excitation energies and oscillator strengths:

 Excited State   1:      Singlet-A      1.8278 eV  678.33 nm  f=0.2852  <S**2>=0.000
     156 ->157         0.70655
 This state for optimization and/or second-order correction.
 Total Energy, E(TD-HF/TD-DFT) =  -1949.02021399
 Copying the excited state density for this state as the 1-particle RhoCI density.

 The electronic state is 1-A.
 Alpha  occ. eigenvalues --  -19.21085 -19.19249 -19.14162 -19.13356 -19.10675
 Alpha  occ. eigenvalues --  -19.10198 -14.38269 -14.37581 -14.35013 -14.28480
 Alpha  occ. eigenvalues --  -10.33529 -10.32688 -10.28325 -10.26901 -10.24637
 Alpha  occ. eigenvalues --  -10.24234 -10.23829 -10.23121 -10.22644 -10.22524
 Alpha  occ. eigenvalues --  -10.22467 -10.22209 -10.21709 -10.21377 -10.21203
 Alpha  occ. eigenvalues --  -10.21158 -10.20893 -10.20640 -10.20598 -10.20215
 Alpha  occ. eigenvalues --  -10.20192 -10.20150 -10.19941 -10.19891 -10.19587
 Alpha  occ. eigenvalues --  -10.19383 -10.19298 -10.19191 -10.19097 -10.18902
 Alpha  occ. eigenvalues --  -10.17473 -10.17406 -10.17015  -1.13982  -1.11773
 Alpha  occ. eigenvalues --   -1.02522  -1.02057  -1.01808  -1.01416  -0.98072
 Alpha  occ. eigenvalues --   -0.97044  -0.94835  -0.94038  -0.82874  -0.81948
 Alpha  occ. eigenvalues --   -0.81432  -0.80510  -0.79287  -0.78726  -0.78106
 Alpha  occ. eigenvalues --   -0.76671  -0.75999  -0.75436  -0.73830  -0.71940
 Alpha  occ. eigenvalues --   -0.70651  -0.69621  -0.69369  -0.68530  -0.67275
 Alpha  occ. eigenvalues --   -0.66826  -0.64935  -0.63668  -0.62624  -0.62249
 Alpha  occ. eigenvalues --   -0.61332  -0.59188  -0.58897  -0.57300  -0.57159
 Alpha  occ. eigenvalues --   -0.56271  -0.55293  -0.54694  -0.53833  -0.53172
 Alpha  occ. eigenvalues --   -0.52647  -0.51416  -0.50861  -0.50631  -0.50183
 Alpha  occ. eigenvalues --   -0.49805  -0.49465  -0.48669  -0.47834  -0.47535
 Alpha  occ. eigenvalues --   -0.47025  -0.46491  -0.46200  -0.45921  -0.44939
 Alpha  occ. eigenvalues --   -0.44832  -0.44547  -0.44198  -0.43960  -0.43583
 Alpha  occ. eigenvalues --   -0.43472  -0.43303  -0.43172  -0.42738  -0.42338
 Alpha  occ. eigenvalues --   -0.41901  -0.41871  -0.41419  -0.40830  -0.40569
 Alpha  occ. eigenvalues --   -0.40373  -0.40146  -0.39836  -0.39691  -0.39442
 Alpha  occ. eigenvalues --   -0.39230  -0.39070  -0.38887  -0.38750  -0.37970
 Alpha  occ. eigenvalues --   -0.37817  -0.37609  -0.37477  -0.37169  -0.36021
 Alpha  occ. eigenvalues --   -0.35882  -0.35523  -0.35040  -0.34839  -0.34780
 Alpha  occ. eigenvalues --   -0.34015  -0.33849  -0.33800  -0.33598  -0.33404
 Alpha  occ. eigenvalues --   -0.33140  -0.32355  -0.31567  -0.29887  -0.29599
 Alpha  occ. eigenvalues --   -0.28684  -0.27555  -0.26446  -0.26234  -0.25623
 Alpha  occ. eigenvalues --   -0.24990  -0.24437  -0.23987  -0.23458  -0.21702
 Alpha  occ. eigenvalues --   -0.17292
 Alpha virt. eigenvalues --   -0.09709  -0.05697  -0.03572  -0.01406   0.00441
 Alpha virt. eigenvalues --    0.00722   0.01529   0.03294   0.03531   0.03890
 Alpha virt. eigenvalues --    0.03942   0.04548   0.04796   0.05171   0.05728

 Mulliken charges:
               1
     1  O   -0.246338
     2  O   -0.078774
     3  O   -0.187472
     4  O   -0.262249
     5  O   -0.199761
     6  O   -0.218259
     7  N   -0.139763
     8  N   -0.049526
     9  N   -0.094597
    10  N   -0.178160
    11  C   -0.092689
    12  C    0.109832
    13  C   -0.140731
    14  C    0.087914
    15  C    0.040523
    16  C    0.005772
    17  C   -0.083567
    18  C   -0.076287
    19  C    0.104088
    20  C   -0.135585
    21  C    0.074206
    22  C    0.108188
    23  C   -0.035174
    24  C   -0.001526
    25  C    0.038788
    26  C    0.124833
    27  C    0.099323
    28  C    0.065808
    29  C   -0.121292
    30  C   -0.050102
    31  C   -0.184888
    32  C    0.118266
    33  C   -0.130757
    34  C    0.056364
    35  C   -0.094222
    36  C   -0.189906
    37  C    0.090268
    38  C    0.111059
    39  C    0.151840
    40  C    0.003082
    41  C    0.136420
    42  C    0.069833
    43  C   -0.033837
    44  H    0.189221
    45  H    0.039376
    46  H    0.004346
    47  H   -0.002427
    48  H    0.039480
    49  H    0.053352
    50  H    0.015063
    51  H   -0.169437
    52  H    0.033007
    53  H    0.009566
    54  H    0.012237
    55  H    0.033690
    56  H    0.143178
    57  H    0.010461
    58  H    0.045505
    59  H    0.067701
    60  H    0.050942
    61  H    0.061143
    62  H    0.033739
    63  H    0.051040
    64  H    0.007541
    65  H   -0.015880
    66  H    0.042455
    67  H   -0.003213
    68  H   -0.027703
    69  H    0.078867
    70  H    0.026843
    71  H    0.016339
    72  H    0.021343
    73  H    0.048911
    74  H    0.034373
    75  H    0.020459
    76  H    0.021047
    77  H    0.032859
    78  H    0.025764
    79  H    0.033546
    80  H    0.160219
    81  H    0.184104
 Sum of Mulliken charges =  -0.00000

 Dipole moment (field-independent basis, Debye):
    X=             -3.5250    Y=              0.9729    Z=             -1.0989  Tot=              3.8183
 Quadrupole moment (field-independent basis, Debye-Ang):
   XX=           -252.4314   YY=           -248.0067   ZZ=           -253.2755
   XY=             24.1914   XZ=             13.2558   YZ=            -15.1445

 Normal termination of Gaussian 16 at Sun Jun 30 14:01:49 2019.
