 Gaussian 16, Revision A.03,
 Gaussian 16:  ES64L-G16RevA.03 25-Dec-2016

 --------------------------
 # td=(NStates=1) B3LYP/SVP
 --------------------------

 --
 TD
 --
 Symbolic Z-matrix:
 Charge =  0 Multiplicity = 1

                         Standard orientation:
 ---------------------------------------------------------------------
 Center     Atomic      Atomic             Coordinates (Angstroms)
 Number     Number       Type             X           Y           Z
 ---------------------------------------------------------------------
      1          8           0        4.393417   -4.937712   -1.542167
      2          8           0       -2.881952   -4.883164   -1.129756
      3          8           0       -7.015921   -1.635681   -1.872522
      4          8           0       -3.740957   -3.230181    0.144830
      5          8           0       -7.734949   -0.546005   -0.042924
      6          8           0        2.993431    2.518179    0.429590
      7          7           0        0.287755   -0.454321    0.629466
      8          7           0       -1.593170    1.819091    0.376842
      9          7           0        3.345941   -3.072682   -0.593074
     10          7           0        0.725861    2.947609    0.061875
     11          6           0       -0.542870   -2.373767    1.442203
     12          6           0       -0.876602   -1.087290    0.994687
     13          6           0        0.853388   -2.608941    1.297552
     14          6           0        1.358595   -1.404139    0.723151
     15          6           0       -3.817142    1.407671    0.319435
     16          6           0       -2.504511    0.780165    0.571896
     17          6           0       -2.197005   -0.567886    0.891168
     18          6           0       -3.603071    2.680793   -0.028935
     19          6           0       -1.502765   -3.384226    1.966062
     20          6           0        5.545208   -2.747417   -1.414498
     21          6           0        3.621808   -1.732515   -0.236821
     22          6           0       -2.107756    2.960632    0.009009
     23          6           0        5.022348   -1.503261   -0.622973
     24          6           0       -5.164208    0.589284    0.340019
     25          6           0        2.706846   -0.941367    0.316436
     26          6           0        1.697516   -3.713618    1.771266
     27          6           0        4.409070   -3.740244   -1.222502
     28          6           0       -1.846936   -4.559542    0.963067
     29          6           0       -5.407674   -0.273166   -0.824882
     30          6           0       -4.677945    3.695758   -0.442369
     31          6           0       -1.381790    4.097437   -0.358188
     32          6           0        6.944777   -3.315693   -0.990774
     33          6           0        5.879100   -0.450899   -0.342897
     34          6           0        0.000153    4.151503   -0.180942
     35          6           0        0.967994    5.204050   -0.375482
     36          6           0        2.223477    4.800062   -0.076867
     37          6           0       -2.903643   -4.154032   -0.017974
     38          6           0        5.334752    0.625092    0.546985
     39          6           0       -6.851466   -0.826623   -0.896858
     40          6           0        3.492312    5.461989   -0.319430
     41          6           0        2.037031    3.275769    0.155038
     42          6           0        0.456741    6.542138   -0.856273
     43          6           0        4.286633    5.615432    1.022543
     44          1           0        0.622386    0.502204    0.312497
     45          1           0       -3.026749   -1.159695    0.981027
     46          1           0       -2.387265   -2.843759    2.441580
     47          1           0       -0.972239   -4.222088    2.749634
     48          1           0        5.563164   -2.347599   -2.444078
     49          1           0       -5.117693    0.097172    1.386933
     50          1           0       -6.125020    1.290343    0.518564
     51          1           0        2.914540    0.121805    0.302279
     52          1           0       -0.503723    1.765268    0.453516
     53          1           0        2.159779   -4.635506    1.209483
     54          1           0        2.731439   -3.116840    2.189253
     55          1           0        1.134662   -4.441726    2.585617
     56          1           0        2.461119   -3.571595   -0.530005
     57          1           0       -0.990048   -4.985989    0.307317
     58          1           0       -2.251140   -5.252658    1.909128
     59          1           0       -4.822760   -1.221429   -1.050416
     60          1           0       -5.121596    0.179136   -1.676094
     61          1           0       -4.676341    4.525522   -0.114122
     62          1           0       -5.748903    3.416209   -0.411054
     63          1           0       -4.605596    4.104769   -1.399808
     64          1           0       -2.042060    5.026303   -0.538392
     65          1           0        7.821211   -2.534787   -1.378250
     66          1           0        7.031755   -4.309283   -1.586040
     67          1           0        6.887518   -3.214863    0.241689
     68          1           0        6.935976   -0.529002   -0.532683
     69          1           0        4.719564    1.463235   -0.070482
     70          1           0        6.078025    1.104647    1.226010
     71          1           0        4.455370    0.175866    1.259470
     72          1           0        3.436083    6.428594   -0.895725
     73          1           0        4.169027    4.694740   -0.889514
     74          1           0       -0.183302    6.545737   -1.652952
     75          1           0        1.363801    7.464407   -1.231068
     76          1           0       -0.217215    7.215840   -0.135075
     77          1           0        3.762441    6.260989    1.814692
     78          1           0        5.266633    6.035190    0.734778
     79          1           0        4.412452    4.762712    1.718424
     80          1           0       -3.387895   -4.593076   -1.933954
     81          1           0       -7.930866   -2.181074   -1.825471
 ---------------------------------------------------------------------

 SCF Done:  E(RB3LYP) =  -1949.04319983     A.U. after   16 cycles

 Excitation energies and oscillator strengths:

 Excited State   1:      Singlet-A      1.8372 eV  674.85 nm  f=0.2973  <S**2>=0.000
     156 ->157         0.70488
 This state for optimization and/or second-order correction.
 Total Energy, E(TD-HF/TD-DFT) =  -1948.97568351
 Copying the excited state density for this state as the 1-particle RhoCI density.

 The electronic state is 1-A.
 Alpha  occ. eigenvalues --  -19.20419 -19.20132 -19.13708 -19.11414 -19.10851
 Alpha  occ. eigenvalues --  -19.09698 -14.38261 -14.36961 -14.36723 -14.29303
 Alpha  occ. eigenvalues --  -10.33983 -10.32109 -10.29121 -10.26404 -10.24992
 Alpha  occ. eigenvalues --  -10.24417 -10.24239 -10.24059 -10.23926 -10.23819
 Alpha  occ. eigenvalues --  -10.23683 -10.23121 -10.22853 -10.21959 -10.21675
 Alpha  occ. eigenvalues --  -10.21450 -10.21135 -10.20893 -10.20682 -10.20623
 Alpha  occ. eigenvalues --  -10.20501 -10.20308 -10.20252 -10.20160 -10.19940
 Alpha  occ. eigenvalues --  -10.19901 -10.19887 -10.19833 -10.19110 -10.18848
 Alpha  occ. eigenvalues --  -10.18181 -10.18148 -10.17488  -1.11018  -1.10471
 Alpha  occ. eigenvalues --   -1.01951  -1.00039  -0.99739  -0.99196  -0.98046
 Alpha  occ. eigenvalues --   -0.97245  -0.94258  -0.90968  -0.82478  -0.82048
 Alpha  occ. eigenvalues --   -0.81107  -0.80781  -0.79624  -0.79021  -0.77984
 Alpha  occ. eigenvalues --   -0.77787  -0.76891  -0.74897  -0.73823  -0.73131
 Alpha  occ. eigenvalues --   -0.72318  -0.69387  -0.68403  -0.68177  -0.67585
 Alpha  occ. eigenvalues --   -0.67115  -0.65495  -0.63317  -0.62589  -0.62234
 Alpha  occ. eigenvalues --   -0.61450  -0.60651  -0.59399  -0.57855  -0.57020
 Alpha  occ. eigenvalues --   -0.56071  -0.55535  -0.55356  -0.53990  -0.53411
 Alpha  occ. eigenvalues --   -0.52360  -0.51786  -0.50958  -0.50495  -0.49399
 Alpha  occ. eigenvalues --   -0.49046  -0.48770  -0.48258  -0.48192  -0.47576
 Alpha  occ. eigenvalues --   -0.47152  -0.46752  -0.46004  -0.45466  -0.45103
 Alpha  occ. eigenvalues --   -0.44779  -0.44401  -0.43918  -0.43591  -0.43370
 Alpha  occ. eigenvalues --   -0.43294  -0.43000  -0.42636  -0.42305  -0.41812
 Alpha  occ. eigenvalues --   -0.41552  -0.41333  -0.41133  -0.40658  -0.40496
 Alpha  occ. eigenvalues --   -0.40280  -0.40005  -0.39826  -0.39463  -0.39161
 Alpha  occ. eigenvalues --   -0.38969  -0.38594  -0.38446  -0.38164  -0.37900
 Alpha  occ. eigenvalues --   -0.37492  -0.37217  -0.36915  -0.36187  -0.35828
 Alpha  occ. eigenvalues --   -0.35320  -0.35180  -0.34635  -0.34339  -0.34238
 Alpha  occ. eigenvalues --   -0.34115  -0.33469  -0.33118  -0.32928  -0.32402
 Alpha  occ. eigenvalues --   -0.32274  -0.31965  -0.31339  -0.29868  -0.29068
 Alpha  occ. eigenvalues --   -0.27740  -0.27287  -0.26441  -0.25788  -0.25734
 Alpha  occ. eigenvalues --   -0.25061  -0.24577  -0.24014  -0.23217  -0.22204
 Alpha  occ. eigenvalues --   -0.18432
 Alpha virt. eigenvalues --   -0.10854  -0.05906  -0.04165  -0.03575  -0.00504
 Alpha virt. eigenvalues --    0.00078   0.01172   0.01849   0.02545   0.03050
 Alpha virt. eigenvalues --    0.03304   0.03651   0.04592   0.05241   0.05449

 Mulliken charges:
               1
     1  O   -0.241320
     2  O   -0.182809
     3  O   -0.170121
     4  O   -0.263678
     5  O   -0.287686
     6  O   -0.262851
     7  N   -0.155991
     8  N   -0.069787
     9  N   -0.148912
    10  N   -0.360666
    11  C   -0.082924
    12  C    0.163716
    13  C   -0.055320
    14  C    0.055561
    15  C   -0.094294
    16  C    0.027794
    17  C   -0.004650
    18  C   -0.110909
    19  C   -0.009087
    20  C   -0.053215
    21  C    0.158592
    22  C    0.040482
    23  C   -0.080581
    24  C    0.052427
    25  C   -0.116649
    26  C   -0.107601
    27  C    0.145547
    28  C   -0.051323
    29  C    0.057892
    30  C    0.266025
    31  C   -0.103177
    32  C   -0.052709
    33  C   -0.067793
    34  C    0.127555
    35  C   -0.033955
    36  C   -0.129015
    37  C    0.165349
    38  C   -0.062522
    39  C    0.128927
    40  C    0.051211
    41  C    0.164735
    42  C    0.000547
    43  C   -0.040257
    44  H    0.176706
    45  H   -0.040866
    46  H    0.050297
    47  H    0.027922
    48  H    0.050379
    49  H    0.033307
    50  H    0.047788
    51  H    0.010403
    52  H    0.169652
    53  H    0.056899
    54  H    0.066900
    55  H    0.029780
    56  H    0.136066
    57  H    0.066057
    58  H    0.086972
    59  H    0.036134
    60  H   -0.012974
    61  H   -0.108718
    62  H    0.008336
    63  H   -0.032175
    64  H    0.003350
    65  H    0.041151
    66  H    0.069787
    67  H    0.055875
    68  H   -0.012703
    69  H    0.101244
    70  H    0.013152
    71  H    0.050373
    72  H    0.018142
    73  H    0.036716
    74  H   -0.001394
    75  H    0.025965
    76  H    0.032776
    77  H    0.006919
    78  H    0.013934
    79  H    0.032028
    80  H    0.210669
    81  H    0.236595
 Sum of Mulliken charges =  -0.00000

 Dipole moment (field-independent basis, Debye):
    X=             -3.2963    Y=             -0.2798    Z=             -2.4354  Tot=              4.1079
 Quadrupole moment (field-independent basis, Debye-Ang):
   XX=           -258.1875   YY=           -243.0250   ZZ=           -251.5440
   XY=             20.2870   XZ=             17.9102   YZ=             -8.1012

 Normal termination of Gaussian 16 at Mon Jul  1 03:46:54 2019.
