 Gaussian 16, Revision A.03,
 Gaussian 16:  ES64L-G16RevA.03 25-Dec-2016

 --------------------------
 # td=(NStates=1) B3LYP/SVP
 --------------------------

 --
 TD
 --
 Symbolic Z-matrix:
 Charge =  0 Multiplicity = 1

                         Standard orientation:
 ---------------------------------------------------------------------
 Center     Atomic      Atomic             Coordinates (Angstroms)
 Number     Number       Type             X           Y           Z
 ---------------------------------------------------------------------
      1          8           0        4.117978   -4.757552   -2.079073
      2          8           0       -3.099249   -4.853004   -1.001460
      3          8           0       -7.035452   -1.376523   -1.874315
      4          8           0       -3.980604   -3.113826    0.061893
      5          8           0       -7.517165   -0.477924    0.094593
      6          8           0        3.211089    2.375883    0.273509
      7          7           0        0.300037   -0.577460    0.454073
      8          7           0       -1.586770    1.841683    0.352567
      9          7           0        3.286062   -3.145009   -0.663067
     10          7           0        0.798355    2.911752    0.073674
     11          6           0       -0.730220   -2.331928    1.420377
     12          6           0       -0.910672   -1.015069    0.887830
     13          6           0        0.650207   -2.607807    1.245912
     14          6           0        1.275924   -1.453026    0.685794
     15          6           0       -3.724953    1.520739    0.215883
     16          6           0       -2.501013    0.910847    0.584159
     17          6           0       -2.159959   -0.395006    0.887739
     18          6           0       -3.537830    2.825703   -0.099956
     19          6           0       -1.720649   -3.299810    2.091400
     20          6           0        5.487803   -2.811947   -1.252392
     21          6           0        3.639061   -1.854886   -0.194842
     22          6           0       -2.093868    2.997469   -0.009263
     23          6           0        5.081694   -1.664798   -0.460825
     24          6           0       -5.110932    0.781050    0.307895
     25          6           0        2.721316   -1.074037    0.405396
     26          6           0        1.511998   -3.808069    1.662022
     27          6           0        4.234494   -3.747931   -1.393753
     28          6           0       -2.227279   -4.469170    1.061339
     29          6           0       -5.379088   -0.132535   -0.883894
     30          6           0       -4.417318    3.952286   -0.535358
     31          6           0       -1.250347    4.162132   -0.301599
     32          6           0        6.890111   -3.485359   -0.870449
     33          6           0        5.896056   -0.613851   -0.036106
     34          6           0        0.177464    4.067769   -0.157607
     35          6           0        1.084504    5.136445   -0.324445
     36          6           0        2.370016    4.606359   -0.305897
     37          6           0       -3.173264   -4.024838   -0.009502
     38          6           0        5.474345    0.513908    0.828057
     39          6           0       -6.679957   -0.667588   -0.782177
     40          6           0        3.686372    5.200457   -0.389006
     41          6           0        2.230318    3.150458    0.117199
     42          6           0        0.722516    6.504336   -0.711517
     43          6           0        4.282573    5.273278    1.067083
     44          1           0        0.484046    0.376577    0.186002
     45          1           0       -3.148470   -0.932026    0.983603
     46          1           0       -2.604630   -2.748713    2.631439
     47          1           0       -1.172436   -4.004851    2.938627
     48          1           0        5.740195   -2.467683   -2.241432
     49          1           0       -5.117921    0.050376    1.365288
     50          1           0       -5.768614    1.555323    0.515669
     51          1           0        2.993428   -0.021498    0.672336
     52          1           0       -0.525814    1.739389    0.494334
     53          1           0        1.523901   -4.827179    1.107801
     54          1           0        2.600190   -3.270371    1.757570
     55          1           0        1.254022   -4.041127    2.734611
     56          1           0        2.319019   -3.419204   -0.561775
     57          1           0       -1.427677   -5.174674    0.631047
     58          1           0       -2.793080   -5.254500    1.779093
     59          1           0       -4.620381   -0.894135   -0.878458
     60          1           0       -5.516266    0.355762   -1.799239
     61          1           0       -4.302362    4.956891    0.040082
     62          1           0       -5.604592    3.694544   -0.383386
     63          1           0       -4.311358    4.138204   -1.580649
     64          1           0       -1.841767    5.218629   -0.523701
     65          1           0        7.652058   -2.815960   -0.861630
     66          1           0        7.058020   -4.335848   -1.466247
     67          1           0        6.643594   -3.835056    0.072116
     68          1           0        6.799531   -0.462252   -0.392563
     69          1           0        4.751537    1.284377    0.225542
     70          1           0        6.358563    1.121269    1.417300
     71          1           0        4.835226    0.251976    1.618998
     72          1           0        3.791968    6.239325   -0.796893
     73          1           0        4.300831    4.532083   -1.164165
     74          1           0        0.044997    6.463936   -1.735004
     75          1           0        1.623331    7.315592   -0.814167
     76          1           0        0.075811    6.926388   -0.026791
     77          1           0        3.698877    5.748562    1.729619
     78          1           0        5.291425    5.720118    0.910882
     79          1           0        4.720948    4.382080    1.394933
     80          1           0       -3.629562   -4.314501   -1.806833
     81          1           0       -8.129710   -1.718492   -1.992856
 ---------------------------------------------------------------------

 SCF Done:  E(RB3LYP) =  -1949.08782686     A.U. after   17 cycles

 Excitation energies and oscillator strengths:

 Excited State   1:      Singlet-A      1.8707 eV  662.76 nm  f=0.2791  <S**2>=0.000
     154 ->157         0.11869
     156 ->157         0.69879
     156 <-157        -0.10492
 This state for optimization and/or second-order correction.
 Total Energy, E(TD-HF/TD-DFT) =  -1949.01907914
 Copying the excited state density for this state as the 1-particle RhoCI density.

 The electronic state is 1-A.
 Alpha  occ. eigenvalues --  -19.21015 -19.17569 -19.13927 -19.11504 -19.10983
 Alpha  occ. eigenvalues --  -19.10166 -14.39128 -14.36854 -14.36337 -14.29056
 Alpha  occ. eigenvalues --  -10.33299 -10.30837 -10.28835 -10.27598 -10.24513
 Alpha  occ. eigenvalues --  -10.24409 -10.24367 -10.24286 -10.23970 -10.23471
 Alpha  occ. eigenvalues --  -10.22695 -10.22540 -10.22067 -10.21591 -10.21578
 Alpha  occ. eigenvalues --  -10.21339 -10.21140 -10.20800 -10.20515 -10.20409
 Alpha  occ. eigenvalues --  -10.20381 -10.20243 -10.20018 -10.19796 -10.19705
 Alpha  occ. eigenvalues --  -10.19564 -10.19564 -10.19301 -10.18886 -10.18615
 Alpha  occ. eigenvalues --  -10.17871 -10.17181 -10.16559  -1.12213  -1.07036
 Alpha  occ. eigenvalues --   -1.02588  -1.01609  -1.01390  -1.00528  -0.99986
 Alpha  occ. eigenvalues --   -0.97372  -0.95394  -0.91710  -0.82612  -0.82228
 Alpha  occ. eigenvalues --   -0.81748  -0.81435  -0.79605  -0.79282  -0.78471
 Alpha  occ. eigenvalues --   -0.77069  -0.76345  -0.75445  -0.74239  -0.72204
 Alpha  occ. eigenvalues --   -0.71425  -0.69802  -0.68964  -0.68666  -0.67975
 Alpha  occ. eigenvalues --   -0.67608  -0.65669  -0.64049  -0.62818  -0.61342
 Alpha  occ. eigenvalues --   -0.60243  -0.59275  -0.58986  -0.58411  -0.57520
 Alpha  occ. eigenvalues --   -0.56833  -0.55631  -0.55277  -0.55048  -0.54061
 Alpha  occ. eigenvalues --   -0.52201  -0.51978  -0.51306  -0.50734  -0.50135
 Alpha  occ. eigenvalues --   -0.49581  -0.49115  -0.48956  -0.48129  -0.47436
 Alpha  occ. eigenvalues --   -0.46784  -0.46598  -0.46139  -0.45789  -0.45430
 Alpha  occ. eigenvalues --   -0.45184  -0.44942  -0.44754  -0.44426  -0.43492
 Alpha  occ. eigenvalues --   -0.42961  -0.42909  -0.42519  -0.42368  -0.42193
 Alpha  occ. eigenvalues --   -0.42069  -0.41907  -0.41287  -0.40819  -0.40454
 Alpha  occ. eigenvalues --   -0.40233  -0.40172  -0.39821  -0.39570  -0.39462
 Alpha  occ. eigenvalues --   -0.39258  -0.38935  -0.38494  -0.38390  -0.38127
 Alpha  occ. eigenvalues --   -0.37647  -0.37128  -0.37017  -0.36760  -0.36712
 Alpha  occ. eigenvalues --   -0.36127  -0.35495  -0.35336  -0.35123  -0.34562
 Alpha  occ. eigenvalues --   -0.34261  -0.33759  -0.33680  -0.33600  -0.33359
 Alpha  occ. eigenvalues --   -0.33204  -0.32559  -0.30701  -0.30514  -0.29759
 Alpha  occ. eigenvalues --   -0.28261  -0.26879  -0.26184  -0.26156  -0.25757
 Alpha  occ. eigenvalues --   -0.25424  -0.24353  -0.23982  -0.22349  -0.21553
 Alpha  occ. eigenvalues --   -0.18480
 Alpha virt. eigenvalues --   -0.10817  -0.06400  -0.04382  -0.02370  -0.00606
 Alpha virt. eigenvalues --    0.00301   0.00790   0.01475   0.02294   0.02976
 Alpha virt. eigenvalues --    0.03560   0.04250   0.04379   0.05237   0.05721

 Mulliken charges:
               1
     1  O   -0.225866
     2  O   -0.188219
     3  O   -0.300014
     4  O   -0.243009
     5  O   -0.248069
     6  O   -0.257843
     7  N    0.014556
     8  N   -0.011377
     9  N   -0.086209
    10  N   -0.361103
    11  C   -0.070098
    12  C    0.098629
    13  C   -0.144390
    14  C   -0.002392
    15  C   -0.081601
    16  C   -0.029457
    17  C   -0.069622
    18  C   -0.091239
    19  C    0.031187
    20  C   -0.106575
    21  C    0.085467
    22  C    0.009262
    23  C    0.038728
    24  C    0.014683
    25  C   -0.127719
    26  C   -0.033800
    27  C    0.135954
    28  C   -0.070889
    29  C    0.134363
    30  C    0.034109
    31  C   -0.156115
    32  C    0.130188
    33  C   -0.058151
    34  C    0.127348
    35  C   -0.097181
    36  C   -0.160606
    37  C    0.144124
    38  C   -0.036796
    39  C    0.125530
    40  C    0.013722
    41  C    0.222537
    42  C    0.066391
    43  C    0.073300
    44  H    0.118461
    45  H    0.023317
    46  H    0.053263
    47  H    0.037330
    48  H    0.028647
    49  H    0.053392
    50  H   -0.008176
    51  H    0.031025
    52  H    0.152915
    53  H    0.062196
    54  H    0.061628
    55  H    0.024366
    56  H    0.128291
    57  H    0.051097
    58  H    0.067868
    59  H    0.041219
    60  H    0.013590
    61  H    0.047173
    62  H    0.029349
    63  H    0.028431
    64  H    0.025225
    65  H   -0.000897
    66  H    0.013194
    67  H   -0.007798
    68  H   -0.060944
    69  H    0.120808
    70  H    0.018528
    71  H    0.008989
    72  H    0.001643
    73  H    0.028464
    74  H    0.038137
    75  H    0.036845
    76  H   -0.007088
    77  H    0.000812
    78  H   -0.011399
    79  H    0.007451
    80  H    0.239274
    81  H    0.261632
 Sum of Mulliken charges =  -0.00000

 Dipole moment (field-independent basis, Debye):
    X=             -2.8311    Y=              0.8606    Z=             -0.3699  Tot=              2.9820
 Quadrupole moment (field-independent basis, Debye-Ang):
   XX=           -252.9635   YY=           -243.8210   ZZ=           -254.4823
   XY=             14.7984   XZ=             22.0429   YZ=            -12.8011

 Normal termination of Gaussian 16 at Sun Jun 30 09:16:45 2019.
