 Gaussian 16, Revision A.03,
 Gaussian 16:  ES64L-G16RevA.03 25-Dec-2016

 --------------------------
 # td=(NStates=1) B3LYP/SVP
 --------------------------

 --
 TD
 --
 Symbolic Z-matrix:
 Charge =  0 Multiplicity = 1

                         Standard orientation:
 ---------------------------------------------------------------------
 Center     Atomic      Atomic             Coordinates (Angstroms)
 Number     Number       Type             X           Y           Z
 ---------------------------------------------------------------------
      1          8           0        4.191862   -4.887587   -1.851120
      2          8           0       -2.878540   -4.877992   -1.186006
      3          8           0       -7.172286   -1.303257   -1.899332
      4          8           0       -3.767077   -3.243394   -0.032215
      5          8           0       -7.631130   -0.545915    0.146796
      6          8           0        3.104469    2.323918    0.424920
      7          7           0        0.184049   -0.523509    0.719686
      8          7           0       -1.481680    1.896263    0.398001
      9          7           0        3.146358   -3.170872   -0.718964
     10          7           0        0.888127    2.857157    0.158202
     11          6           0       -0.621925   -2.432751    1.481184
     12          6           0       -0.974949   -1.053005    1.031644
     13          6           0        0.697883   -2.589139    1.377098
     14          6           0        1.218722   -1.432254    0.786852
     15          6           0       -3.777501    1.634454    0.258109
     16          6           0       -2.494490    0.917610    0.587964
     17          6           0       -2.251592   -0.360138    0.925503
     18          6           0       -3.462721    2.843810   -0.143579
     19          6           0       -1.672547   -3.417940    2.072231
     20          6           0        5.391525   -2.904315   -1.357773
     21          6           0        3.513614   -1.850606   -0.173977
     22          6           0       -2.028583    3.071192   -0.085264
     23          6           0        4.918540   -1.614405   -0.454527
     24          6           0       -5.110178    0.924797    0.297295
     25          6           0        2.606971   -0.968672    0.355724
     26          6           0        1.477255   -3.803158    1.784841
     27          6           0        4.181759   -3.743520   -1.343174
     28          6           0       -2.095754   -4.465977    1.005129
     29          6           0       -5.379961   -0.060265   -0.758270
     30          6           0       -4.427165    3.982576   -0.634265
     31          6           0       -1.194865    4.193015   -0.323446
     32          6           0        6.717393   -3.582448   -0.945044
     33          6           0        5.752120   -0.648628   -0.175329
     34          6           0        0.256039    3.972630   -0.274369
     35          6           0        1.194792    5.144445   -0.455379
     36          6           0        2.365408    4.569322   -0.178347
     37          6           0       -2.961207   -4.149893   -0.090075
     38          6           0        5.468790    0.592488    0.560435
     39          6           0       -6.809343   -0.579153   -0.723768
     40          6           0        3.746693    5.245748   -0.128364
     41          6           0        2.205459    3.107414    0.212999
     42          6           0        0.830513    6.500110   -0.986977
     43          6           0        4.401002    5.558204    1.136930
     44          1           0        0.393144    0.324950    0.281095
     45          1           0       -3.118253   -0.981412    0.872112
     46          1           0       -2.660891   -2.963750    2.464163
     47          1           0       -1.309272   -3.955019    2.912454
     48          1           0        5.599118   -2.710257   -2.411867
     49          1           0       -5.507072    0.476079    1.278513
     50          1           0       -5.930829    1.721189    0.300994
     51          1           0        2.851060    0.212197    0.407405
     52          1           0       -0.545417    1.712294    0.534158
     53          1           0        1.212388   -4.547413    0.942498
     54          1           0        2.543232   -3.546348    2.007864
     55          1           0        0.865438   -4.330154    2.721836
     56          1           0        2.286388   -3.660933   -0.502391
     57          1           0       -1.246001   -5.096372    0.575595
     58          1           0       -2.635007   -5.476238    1.430578
     59          1           0       -4.727132   -0.944856   -0.624770
     60          1           0       -5.315232    0.387601   -1.861673
     61          1           0       -3.912617    4.878164   -0.315705
     62          1           0       -5.543797    3.779142   -0.317744
     63          1           0       -4.524934    4.075626   -1.938137
     64          1           0       -1.500136    5.114684   -0.344868
     65          1           0        7.569980   -2.714701   -1.005373
     66          1           0        7.135945   -4.301963   -1.749756
     67          1           0        6.613124   -4.030172    0.024117
     68          1           0        6.755828   -0.782913   -0.460068
     69          1           0        4.965472    1.249916   -0.062824
     70          1           0        6.524399    1.045627    0.884035
     71          1           0        4.908449    0.321144    1.401587
     72          1           0        3.549867    6.024272   -1.058556
     73          1           0        4.361748    4.450086   -0.700876
     74          1           0        0.421626    6.477665   -1.932478
     75          1           0        1.731126    7.229358   -0.849533
     76          1           0       -0.262831    6.811409   -0.424165
     77          1           0        3.787178    6.202750    1.765759
     78          1           0        5.434215    6.002499    1.058363
     79          1           0        4.437141    4.690374    1.558748
     80          1           0       -3.279549   -4.233356   -1.756848
     81          1           0       -7.954440   -1.659906   -1.679133
 ---------------------------------------------------------------------

 SCF Done:  E(RB3LYP) =  -1949.09574045     A.U. after   16 cycles

 Excitation energies and oscillator strengths:

 Excited State   1:      Singlet-A      1.7926 eV  691.64 nm  f=0.2803  <S**2>=0.000
     156 ->157         0.70675
 This state for optimization and/or second-order correction.
 Total Energy, E(TD-HF/TD-DFT) =  -1949.02986336
 Copying the excited state density for this state as the 1-particle RhoCI density.

 The electronic state is 1-A.
 Alpha  occ. eigenvalues --  -19.19601 -19.16184 -19.14054 -19.13426 -19.11497
 Alpha  occ. eigenvalues --  -19.08387 -14.38603 -14.36966 -14.36907 -14.29536
 Alpha  occ. eigenvalues --  -10.32966 -10.32792 -10.27333 -10.26941 -10.26035
 Alpha  occ. eigenvalues --  -10.24616 -10.24609 -10.24164 -10.24109 -10.23773
 Alpha  occ. eigenvalues --  -10.23263 -10.23042 -10.22546 -10.22517 -10.22461
 Alpha  occ. eigenvalues --  -10.21948 -10.21812 -10.21726 -10.21655 -10.21447
 Alpha  occ. eigenvalues --  -10.20615 -10.20577 -10.19959 -10.19880 -10.19811
 Alpha  occ. eigenvalues --  -10.19782 -10.19735 -10.19423 -10.19420 -10.18847
 Alpha  occ. eigenvalues --  -10.18321 -10.17024 -10.16826  -1.13585  -1.09704
 Alpha  occ. eigenvalues --   -1.03181  -1.01896  -1.01078  -1.00963  -1.00749
 Alpha  occ. eigenvalues --   -0.98339  -0.93073  -0.93053  -0.83851  -0.83429
 Alpha  occ. eigenvalues --   -0.81947  -0.81440  -0.80337  -0.79841  -0.79184
 Alpha  occ. eigenvalues --   -0.78061  -0.76912  -0.75970  -0.75069  -0.72955
 Alpha  occ. eigenvalues --   -0.71267  -0.70449  -0.69763  -0.69666  -0.68605
 Alpha  occ. eigenvalues --   -0.67778  -0.65729  -0.65052  -0.62538  -0.61721
 Alpha  occ. eigenvalues --   -0.61034  -0.59732  -0.59440  -0.58307  -0.57527
 Alpha  occ. eigenvalues --   -0.57296  -0.56018  -0.55736  -0.54466  -0.53607
 Alpha  occ. eigenvalues --   -0.53270  -0.52228  -0.51309  -0.50977  -0.50667
 Alpha  occ. eigenvalues --   -0.49910  -0.49196  -0.48354  -0.48082  -0.47983
 Alpha  occ. eigenvalues --   -0.47715  -0.47262  -0.46680  -0.46354  -0.45976
 Alpha  occ. eigenvalues --   -0.45623  -0.45091  -0.44757  -0.44119  -0.43871
 Alpha  occ. eigenvalues --   -0.43776  -0.43357  -0.43206  -0.43053  -0.42825
 Alpha  occ. eigenvalues --   -0.42509  -0.42151  -0.42088  -0.41886  -0.41797
 Alpha  occ. eigenvalues --   -0.41575  -0.41173  -0.40958  -0.40700  -0.40372
 Alpha  occ. eigenvalues --   -0.40333  -0.39697  -0.39346  -0.38966  -0.38518
 Alpha  occ. eigenvalues --   -0.38373  -0.38273  -0.37995  -0.37488  -0.36863
 Alpha  occ. eigenvalues --   -0.36405  -0.36375  -0.35068  -0.35000  -0.34318
 Alpha  occ. eigenvalues --   -0.33983  -0.33726  -0.33564  -0.33430  -0.32467
 Alpha  occ. eigenvalues --   -0.32362  -0.32240  -0.31468  -0.30622  -0.29438
 Alpha  occ. eigenvalues --   -0.29125  -0.28582  -0.27503  -0.26978  -0.25956
 Alpha  occ. eigenvalues --   -0.25729  -0.24838  -0.24080  -0.23603  -0.22503
 Alpha  occ. eigenvalues --   -0.18493
 Alpha virt. eigenvalues --   -0.11073  -0.06148  -0.03911  -0.01841  -0.00768
 Alpha virt. eigenvalues --    0.00919   0.01207   0.02124   0.02309   0.03804
 Alpha virt. eigenvalues --    0.04258   0.04421   0.05246   0.05882   0.06490

 Mulliken charges:
               1
     1  O   -0.272368
     2  O   -0.126044
     3  O   -0.193816
     4  O   -0.252013
     5  O   -0.204523
     6  O   -0.205623
     7  N    0.016519
     8  N   -0.074879
     9  N   -0.101778
    10  N   -0.266714
    11  C   -0.087519
    12  C   -0.002421
    13  C   -0.158606
    14  C   -0.013923
    15  C    0.015646
    16  C    0.039406
    17  C    0.004019
    18  C   -0.112248
    19  C    0.176227
    20  C   -0.040116
    21  C    0.124041
    22  C    0.154086
    23  C    0.045207
    24  C    0.014090
    25  C   -0.159413
    26  C    0.019474
    27  C    0.097935
    28  C   -0.060386
    29  C   -0.003170
    30  C    0.007224
    31  C   -0.043310
    32  C   -0.000479
    33  C   -0.195159
    34  C    0.056453
    35  C   -0.081643
    36  C   -0.233707
    37  C    0.092672
    38  C    0.127247
    39  C    0.127557
    40  C   -0.011415
    41  C    0.153449
    42  C    0.074493
    43  C    0.146931
    44  H    0.105825
    45  H   -0.010991
    46  H    0.035968
    47  H   -0.010903
    48  H    0.032191
    49  H    0.040340
    50  H   -0.000309
    51  H    0.094450
    52  H    0.080630
    53  H    0.051055
    54  H    0.066126
    55  H    0.034954
    56  H    0.123023
    57  H    0.023309
    58  H    0.059157
    59  H    0.073066
    60  H    0.057338
    61  H    0.035503
    62  H    0.053072
    63  H    0.048866
    64  H   -0.106232
    65  H    0.025129
    66  H    0.040878
    67  H    0.020214
    68  H   -0.032681
    69  H    0.046436
    70  H    0.008567
    71  H    0.018565
    72  H   -0.000626
    73  H    0.011902
    74  H    0.009331
    75  H    0.059766
    76  H    0.027662
    77  H    0.000155
    78  H    0.023221
    79  H   -0.029647
    80  H    0.165692
    81  H    0.127589
 Sum of Mulliken charges =  -0.00000

 Dipole moment (field-independent basis, Debye):
    X=             -2.4863    Y=              2.7064    Z=              0.6622  Tot=              3.7343
 Quadrupole moment (field-independent basis, Debye-Ang):
   XX=           -263.3865   YY=           -248.4780   ZZ=           -257.2029
   XY=             12.2908   XZ=             10.8414   YZ=            -19.6718

 Normal termination of Gaussian 16 at Thu Jun 27 17:31:37 2019.
