 Gaussian 16, Revision A.03,
 Gaussian 16:  ES64L-G16RevA.03 25-Dec-2016

 --------------------------
 # td=(NStates=1) B3LYP/SVP
 --------------------------

 --
 TD
 --
 Symbolic Z-matrix:
 Charge =  0 Multiplicity = 1

                         Standard orientation:
 ---------------------------------------------------------------------
 Center     Atomic      Atomic             Coordinates (Angstroms)
 Number     Number       Type             X           Y           Z
 ---------------------------------------------------------------------
      1          8           0        4.357055   -4.852300   -1.739052
      2          8           0       -2.896322   -4.931296   -0.987489
      3          8           0       -6.673451   -1.910036   -1.919930
      4          8           0       -3.806115   -3.277657    0.158185
      5          8           0       -7.652470   -0.800882   -0.240676
      6          8           0        2.950764    2.481235    0.291920
      7          7           0        0.276732   -0.519952    0.485123
      8          7           0       -1.668814    1.849762    0.330110
      9          7           0        3.370442   -3.062975   -0.588620
     10          7           0        0.740923    2.957417    0.020179
     11          6           0       -0.610153   -2.293701    1.398326
     12          6           0       -0.878568   -1.058004    0.993957
     13          6           0        0.801368   -2.481271    1.300110
     14          6           0        1.319698   -1.362418    0.688046
     15          6           0       -3.886913    1.493669    0.244169
     16          6           0       -2.592559    0.824905    0.519039
     17          6           0       -2.208950   -0.488497    0.860205
     18          6           0       -3.630805    2.829897   -0.162062
     19          6           0       -1.566045   -3.337474    2.088058
     20          6           0        5.513690   -2.780382   -1.358274
     21          6           0        3.579584   -1.756721   -0.180967
     22          6           0       -2.242358    3.034739   -0.037395
     23          6           0        5.139468   -1.585553   -0.553354
     24          6           0       -5.170650    0.741039    0.307737
     25          6           0        2.661428   -0.948902    0.323320
     26          6           0        1.745249   -3.592828    1.811614
     27          6           0        4.337293   -3.732963   -1.288962
     28          6           0       -1.929209   -4.513379    1.113868
     29          6           0       -5.243432   -0.308250   -0.799366
     30          6           0       -4.687772    3.924762   -0.329925
     31          6           0       -1.454609    4.181085   -0.234347
     32          6           0        6.809590   -3.493878   -1.003241
     33          6           0        5.873326   -0.532826   -0.183642
     34          6           0       -0.041505    4.045953   -0.308621
     35          6           0        1.006573    5.236729   -0.355704
     36          6           0        2.205461    4.721253   -0.277464
     37          6           0       -3.033232   -4.173081    0.130740
     38          6           0        5.509447    0.634727    0.803757
     39          6           0       -6.589121   -1.031652   -0.852768
     40          6           0        3.550868    5.349528   -0.346524
     41          6           0        2.003810    3.248119   -0.018840
     42          6           0        0.564815    6.708566   -0.746744
     43          6           0        4.113907    5.567619    0.973691
     44          1           0        0.288476    0.475061   -0.061818
     45          1           0       -3.157666   -1.127276    0.922197
     46          1           0       -2.258121   -2.793050    2.491752
     47          1           0       -1.107793   -3.749450    3.079130
     48          1           0        5.708313   -2.506135   -2.372635
     49          1           0       -5.169817    0.184942    1.383581
     50          1           0       -6.020823    1.555218    0.222913
     51          1           0        2.910250   -0.009928    0.301620
     52          1           0       -0.524929    1.856210    0.207886
     53          1           0        2.129567   -4.331586    0.944864
     54          1           0        2.714792   -3.227218    2.226340
     55          1           0        1.262589   -3.782789    2.855804
     56          1           0        2.427727   -3.553854   -0.463668
     57          1           0       -0.991447   -4.646046    0.648517
     58          1           0       -2.196739   -5.381072    1.751453
     59          1           0       -4.529232   -1.078192   -0.975335
     60          1           0       -5.300680    0.212242   -1.833057
     61          1           0       -4.823699    4.556726    0.762129
     62          1           0       -5.494654    3.235021   -0.628761
     63          1           0       -4.323235    4.835923   -1.172647
     64          1           0       -1.947619    5.043714   -0.519449
     65          1           0        7.658784   -2.861391   -1.173722
     66          1           0        6.905431   -4.451347   -1.412316
     67          1           0        6.766833   -3.606387    0.132968
     68          1           0        6.938830   -0.806217   -0.463986
     69          1           0        5.041976    1.498213    0.301598
     70          1           0        6.464551    1.002987    1.078987
     71          1           0        4.853089    0.370833    1.474154
     72          1           0        3.599620    6.209750   -0.836753
     73          1           0        4.243575    4.680154   -0.924863
     74          1           0       -0.200861    6.603399   -1.532433
     75          1           0        1.453794    7.203509   -0.969987
     76          1           0        0.109995    7.319892    0.191866
     77          1           0        3.647479    6.534356    1.430024
     78          1           0        5.123004    5.814568    1.000869
     79          1           0        4.009914    5.013794    1.961127
     80          1           0       -3.675787   -4.790202   -1.535998
     81          1           0       -7.624317   -2.171500   -1.834171
 ---------------------------------------------------------------------

 SCF Done:  E(RB3LYP) =  -1949.08155039     A.U. after   25 cycles

 Excitation energies and oscillator strengths:

 Excited State   1:      Singlet-A      2.0005 eV  619.76 nm  f=0.3512  <S**2>=0.000
     156 ->157         0.70589
     156 <-157        -0.10236
 This state for optimization and/or second-order correction.
 Total Energy, E(TD-HF/TD-DFT) =  -1949.00803289
 Copying the excited state density for this state as the 1-particle RhoCI density.

 The electronic state is 1-A.
 Alpha  occ. eigenvalues --  -19.18854 -19.18041 -19.15023 -19.13050 -19.11146
 Alpha  occ. eigenvalues --  -19.09091 -14.38106 -14.37529 -14.35935 -14.30059
 Alpha  occ. eigenvalues --  -10.33750 -10.32726 -10.28961 -10.25764 -10.24521
 Alpha  occ. eigenvalues --  -10.24335 -10.24279 -10.24200 -10.23793 -10.23363
 Alpha  occ. eigenvalues --  -10.23317 -10.23128 -10.23053 -10.22506 -10.22284
 Alpha  occ. eigenvalues --  -10.21917 -10.21466 -10.21086 -10.20776 -10.20250
 Alpha  occ. eigenvalues --  -10.20074 -10.19727 -10.19716 -10.19678 -10.19519
 Alpha  occ. eigenvalues --  -10.19334 -10.19185 -10.17973 -10.17859 -10.17821
 Alpha  occ. eigenvalues --  -10.17303 -10.17178 -10.16520  -1.11944  -1.08663
 Alpha  occ. eigenvalues --   -1.03881  -1.02920  -0.99803  -0.99288  -0.98511
 Alpha  occ. eigenvalues --   -0.97475  -0.95602  -0.91888  -0.82795  -0.82155
 Alpha  occ. eigenvalues --   -0.81575  -0.81237  -0.80614  -0.79736  -0.77922
 Alpha  occ. eigenvalues --   -0.77776  -0.76825  -0.75180  -0.74588  -0.72910
 Alpha  occ. eigenvalues --   -0.71079  -0.69183  -0.68968  -0.68567  -0.68342
 Alpha  occ. eigenvalues --   -0.67571  -0.65767  -0.65166  -0.63106  -0.62064
 Alpha  occ. eigenvalues --   -0.61136  -0.60383  -0.58308  -0.58114  -0.56704
 Alpha  occ. eigenvalues --   -0.56236  -0.55561  -0.55058  -0.53267  -0.52964
 Alpha  occ. eigenvalues --   -0.52620  -0.52066  -0.51591  -0.50610  -0.49962
 Alpha  occ. eigenvalues --   -0.49663  -0.49157  -0.48671  -0.48314  -0.48089
 Alpha  occ. eigenvalues --   -0.47527  -0.47138  -0.46515  -0.45990  -0.45142
 Alpha  occ. eigenvalues --   -0.44876  -0.44783  -0.44566  -0.44225  -0.43752
 Alpha  occ. eigenvalues --   -0.43685  -0.43392  -0.42786  -0.42599  -0.42528
 Alpha  occ. eigenvalues --   -0.42176  -0.41949  -0.41734  -0.41566  -0.41345
 Alpha  occ. eigenvalues --   -0.40927  -0.40453  -0.40297  -0.40040  -0.39864
 Alpha  occ. eigenvalues --   -0.39467  -0.39316  -0.38925  -0.38818  -0.38674
 Alpha  occ. eigenvalues --   -0.38077  -0.37874  -0.37755  -0.37378  -0.36925
 Alpha  occ. eigenvalues --   -0.36483  -0.36205  -0.35977  -0.35343  -0.35040
 Alpha  occ. eigenvalues --   -0.34263  -0.34246  -0.33737  -0.33386  -0.32730
 Alpha  occ. eigenvalues --   -0.32338  -0.31828  -0.30957  -0.30436  -0.29902
 Alpha  occ. eigenvalues --   -0.28256  -0.27094  -0.26715  -0.26342  -0.25577
 Alpha  occ. eigenvalues --   -0.25453  -0.25164  -0.24349  -0.23871  -0.22578
 Alpha  occ. eigenvalues --   -0.19261
 Alpha virt. eigenvalues --   -0.11231  -0.05502  -0.03084  -0.01711  -0.01309
 Alpha virt. eigenvalues --    0.00544   0.02092   0.02335   0.02732   0.03256
 Alpha virt. eigenvalues --    0.04186   0.04914   0.05212   0.05277   0.05616

 Mulliken charges:
               1
     1  O   -0.202748
     2  O   -0.184364
     3  O   -0.220343
     4  O   -0.190473
     5  O   -0.268957
     6  O   -0.256634
     7  N   -0.108080
     8  N   -0.187575
     9  N   -0.153196
    10  N   -0.253514
    11  C   -0.152031
    12  C    0.103455
    13  C   -0.191863
    14  C    0.113845
    15  C   -0.076199
    16  C    0.043319
    17  C   -0.076028
    18  C   -0.115934
    19  C    0.138719
    20  C   -0.030880
    21  C    0.105317
    22  C    0.100643
    23  C   -0.023131
    24  C    0.033912
    25  C   -0.002362
    26  C    0.027078
    27  C    0.124349
    28  C    0.061068
    29  C    0.016109
    30  C   -0.039168
    31  C   -0.030427
    32  C    0.054870
    33  C   -0.183924
    34  C    0.083780
    35  C   -0.142074
    36  C   -0.161109
    37  C    0.127793
    38  C    0.168423
    39  C    0.149963
    40  C    0.223448
    41  C    0.115904
    42  C    0.085239
    43  C   -0.013082
    44  H    0.178478
    45  H    0.040196
    46  H   -0.055201
    47  H    0.013496
    48  H    0.028650
    49  H    0.061528
    50  H    0.046311
    51  H   -0.109317
    52  H    0.197371
    53  H    0.047339
    54  H    0.025965
    55  H    0.033225
    56  H    0.152844
    57  H    0.034700
    58  H    0.050492
    59  H    0.039199
    60  H    0.052396
    61  H    0.074426
    62  H    0.043178
    63  H    0.056473
    64  H   -0.060804
    65  H    0.009911
    66  H    0.022454
    67  H    0.004703
    68  H   -0.007359
    69  H    0.053457
    70  H   -0.002183
    71  H   -0.011872
    72  H   -0.053843
    73  H    0.005320
    74  H    0.034496
    75  H   -0.001061
    76  H    0.035755
    77  H   -0.019886
    78  H   -0.017780
    79  H    0.023722
    80  H    0.177558
    81  H    0.182524
 Sum of Mulliken charges =  -0.00000

 Dipole moment (field-independent basis, Debye):
    X=             -2.7089    Y=              1.0147    Z=             -0.2971  Tot=              2.9079
 Quadrupole moment (field-independent basis, Debye-Ang):
   XX=           -260.4407   YY=           -242.7084   ZZ=           -252.5482
   XY=             14.7132   XZ=             10.3075   YZ=            -13.9393

 Normal termination of Gaussian 16 at Mon Jul  1 05:42:49 2019.
