 Gaussian 16, Revision A.03,
 Gaussian 16:  ES64L-G16RevA.03 25-Dec-2016

 --------------------------
 # td=(NStates=1) B3LYP/SVP
 --------------------------

 --
 TD
 --
 Symbolic Z-matrix:
 Charge =  0 Multiplicity = 1

                         Standard orientation:
 ---------------------------------------------------------------------
 Center     Atomic      Atomic             Coordinates (Angstroms)
 Number     Number       Type             X           Y           Z
 ---------------------------------------------------------------------
      1          8           0        4.489986   -4.733554   -1.900850
      2          8           0       -2.925146   -5.080182   -0.923017
      3          8           0       -6.885554   -1.839519   -1.725279
      4          8           0       -3.676665   -3.198812    0.086467
      5          8           0       -7.681950   -0.471851   -0.193672
      6          8           0        2.943139    2.417664    0.452066
      7          7           0        0.244760   -0.524652    0.365748
      8          7           0       -1.546837    1.854833    0.455493
      9          7           0        3.362461   -3.103129   -0.634918
     10          7           0        0.653582    2.883283    0.032904
     11          6           0       -0.620170   -2.345613    1.321981
     12          6           0       -0.961373   -1.080290    0.827772
     13          6           0        0.709379   -2.573069    1.117870
     14          6           0        1.363576   -1.451354    0.493121
     15          6           0       -3.848743    1.418091    0.365405
     16          6           0       -2.501254    0.835910    0.628471
     17          6           0       -2.231982   -0.469071    0.886275
     18          6           0       -3.576451    2.740630   -0.091246
     19          6           0       -1.550127   -3.358231    1.947760
     20          6           0        5.627657   -2.678823   -1.276225
     21          6           0        3.654703   -1.817632   -0.107945
     22          6           0       -2.193548    2.967066   -0.031765
     23          6           0        5.108864   -1.484283   -0.303701
     24          6           0       -5.253712    0.823998    0.339139
     25          6           0        2.701562   -0.999601    0.381059
     26          6           0        1.423219   -3.721141    1.733977
     27          6           0        4.504069   -3.641902   -1.382745
     28          6           0       -1.938702   -4.506699    1.154436
     29          6           0       -5.398997   -0.133115   -0.868737
     30          6           0       -4.600488    3.751529   -0.359903
     31          6           0       -1.398608    4.092174   -0.444447
     32          6           0        6.979587   -3.360714   -0.841312
     33          6           0        5.836134   -0.454575   -0.020211
     34          6           0       -0.018663    4.060960   -0.334744
     35          6           0        0.951636    5.211194   -0.498029
     36          6           0        2.202259    4.655915   -0.218134
     37          6           0       -3.026088   -4.165048    0.016993
     38          6           0        5.391775    0.639978    0.778681
     39          6           0       -6.669614   -0.759174   -0.869321
     40          6           0        3.585615    5.380168   -0.306649
     41          6           0        1.998162    3.213256    0.113349
     42          6           0        0.669917    6.624142   -0.860352
     43          6           0        4.182481    5.487482    1.143353
     44          1           0        0.410418    0.365512   -0.029366
     45          1           0       -2.925447   -1.024496    1.037928
     46          1           0       -2.404727   -2.907488    2.377881
     47          1           0       -1.005343   -3.780188    2.818716
     48          1           0        5.848360   -2.234568   -2.315728
     49          1           0       -5.216966   -0.107677    1.209235
     50          1           0       -5.967537    1.409848    0.539551
     51          1           0        2.665476    0.165970    0.333405
     52          1           0       -0.425995    1.840542    0.536053
     53          1           0        1.408784   -4.751346    1.052439
     54          1           0        2.513724   -3.437942    1.778874
     55          1           0        0.844971   -3.918810    2.637494
     56          1           0        2.361206   -3.328089   -0.647983
     57          1           0       -1.033711   -4.874855    0.578759
     58          1           0       -2.484821   -5.310474    1.582502
     59          1           0       -4.460073   -0.824092   -0.757529
     60          1           0       -5.232552    0.180883   -1.902224
     61          1           0       -4.767317    4.634786    0.535107
     62          1           0       -5.562411    3.227301   -0.384854
     63          1           0       -4.570944    4.398442   -1.372693
     64          1           0       -1.927471    4.936192   -0.886541
     65          1           0        7.833542   -2.753842   -1.218760
     66          1           0        7.113586   -4.506053   -1.121485
     67          1           0        6.989136   -3.396879    0.132050
     68          1           0        6.891190   -0.516768   -0.522568
     69          1           0        4.756815    1.282549    0.003341
     70          1           0        6.256457    1.317696    1.107870
     71          1           0        4.882320    0.452979    1.618007
     72          1           0        3.412277    6.490352   -0.513213
     73          1           0        4.532877    4.795310   -0.747707
     74          1           0       -0.087883    6.433307   -1.768983
     75          1           0        1.585846    7.278922   -1.131007
     76          1           0        0.270503    7.027869   -0.085401
     77          1           0        3.724756    6.174995    1.817162
     78          1           0        5.328697    5.751784    0.913493
     79          1           0        3.981189    4.480845    1.523412
     80          1           0       -3.402048   -4.852651   -1.663594
     81          1           0       -7.857579   -2.055125   -1.569017
 ---------------------------------------------------------------------

 SCF Done:  E(RB3LYP) =  -1949.05018777     A.U. after   17 cycles

 Excitation energies and oscillator strengths:

 Excited State   1:      Singlet-A      1.7370 eV  713.78 nm  f=0.3242  <S**2>=0.000
     156 ->157         0.70792
     156 <-157        -0.11784
 This state for optimization and/or second-order correction.
 Total Energy, E(TD-HF/TD-DFT) =  -1948.98635431
 Copying the excited state density for this state as the 1-particle RhoCI density.

 The electronic state is 1-A.
 Alpha  occ. eigenvalues --  -19.20218 -19.17097 -19.14828 -19.12353 -19.12106
 Alpha  occ. eigenvalues --  -19.09511 -14.37263 -14.37121 -14.35490 -14.29420
 Alpha  occ. eigenvalues --  -10.33206 -10.32137 -10.30401 -10.26378 -10.25003
 Alpha  occ. eigenvalues --  -10.24050 -10.23953 -10.23730 -10.23422 -10.23407
 Alpha  occ. eigenvalues --  -10.22121 -10.21988 -10.21958 -10.21845 -10.21730
 Alpha  occ. eigenvalues --  -10.20592 -10.20580 -10.20367 -10.20233 -10.20117
 Alpha  occ. eigenvalues --  -10.20064 -10.20057 -10.20016 -10.19908 -10.19764
 Alpha  occ. eigenvalues --  -10.19517 -10.19379 -10.19313 -10.19118 -10.19090
 Alpha  occ. eigenvalues --  -10.18968 -10.17414 -10.17278  -1.13609  -1.07697
 Alpha  occ. eigenvalues --   -1.05595  -1.04005  -0.98140  -0.97429  -0.97090
 Alpha  occ. eigenvalues --   -0.96099  -0.93971  -0.90095  -0.83428  -0.82886
 Alpha  occ. eigenvalues --   -0.82121  -0.81959  -0.79343  -0.79259  -0.78470
 Alpha  occ. eigenvalues --   -0.78120  -0.76937  -0.75823  -0.74495  -0.72563
 Alpha  occ. eigenvalues --   -0.71177  -0.69910  -0.69662  -0.69070  -0.68159
 Alpha  occ. eigenvalues --   -0.67467  -0.66113  -0.65300  -0.62884  -0.61963
 Alpha  occ. eigenvalues --   -0.59601  -0.59199  -0.57983  -0.57787  -0.57356
 Alpha  occ. eigenvalues --   -0.56452  -0.55165  -0.54951  -0.53118  -0.52455
 Alpha  occ. eigenvalues --   -0.52175  -0.51513  -0.51299  -0.51022  -0.50646
 Alpha  occ. eigenvalues --   -0.50437  -0.49899  -0.49261  -0.48369  -0.47712
 Alpha  occ. eigenvalues --   -0.47133  -0.46769  -0.46285  -0.45893  -0.45462
 Alpha  occ. eigenvalues --   -0.45344  -0.45049  -0.44744  -0.44104  -0.44002
 Alpha  occ. eigenvalues --   -0.43893  -0.43489  -0.43139  -0.42869  -0.42628
 Alpha  occ. eigenvalues --   -0.42207  -0.42051  -0.41768  -0.41265  -0.40718
 Alpha  occ. eigenvalues --   -0.40588  -0.40226  -0.40098  -0.39994  -0.39531
 Alpha  occ. eigenvalues --   -0.39153  -0.38925  -0.38657  -0.38540  -0.38191
 Alpha  occ. eigenvalues --   -0.38072  -0.37651  -0.37545  -0.36551  -0.36454
 Alpha  occ. eigenvalues --   -0.36304  -0.36044  -0.35861  -0.35531  -0.35275
 Alpha  occ. eigenvalues --   -0.34902  -0.34253  -0.33866  -0.32810  -0.32576
 Alpha  occ. eigenvalues --   -0.32299  -0.31993  -0.30951  -0.29827  -0.28802
 Alpha  occ. eigenvalues --   -0.28122  -0.27660  -0.27102  -0.26631  -0.25608
 Alpha  occ. eigenvalues --   -0.25450  -0.24990  -0.23807  -0.22991  -0.21910
 Alpha  occ. eigenvalues --   -0.18156
 Alpha virt. eigenvalues --   -0.11110  -0.06135  -0.03940  -0.01573  -0.01216
 Alpha virt. eigenvalues --    0.00702   0.01548   0.03051   0.03190   0.03639
 Alpha virt. eigenvalues --    0.04144   0.04993   0.05032   0.05198   0.05725

 Mulliken charges:
               1
     1  O   -0.183275
     2  O   -0.108175
     3  O   -0.240343
     4  O   -0.168638
     5  O   -0.277693
     6  O   -0.298349
     7  N   -0.144588
     8  N   -0.158882
     9  N   -0.186996
    10  N   -0.350507
    11  C   -0.095257
    12  C    0.100232
    13  C   -0.174416
    14  C    0.045718
    15  C   -0.067370
    16  C    0.122411
    17  C    0.106926
    18  C   -0.093170
    19  C    0.182876
    20  C   -0.120759
    21  C    0.121491
    22  C    0.107748
    23  C    0.041011
    24  C    0.115446
    25  C   -0.155784
    26  C    0.045602
    27  C    0.181265
    28  C   -0.006570
    29  C    0.002024
    30  C   -0.019226
    31  C   -0.119969
    32  C    0.071429
    33  C   -0.191978
    34  C    0.127140
    35  C   -0.117077
    36  C   -0.148984
    37  C    0.076085
    38  C    0.097545
    39  C    0.168933
    40  C    0.040320
    41  C    0.199660
    42  C    0.133073
    43  C   -0.052505
    44  H    0.111985
    45  H   -0.205010
    46  H   -0.013912
    47  H   -0.004212
    48  H    0.061491
    49  H    0.047536
    50  H   -0.039751
    51  H    0.071683
    52  H    0.195229
    53  H    0.037925
    54  H    0.042989
    55  H    0.020919
    56  H    0.141790
    57  H    0.034867
    58  H    0.021838
    59  H    0.074791
    60  H    0.040340
    61  H    0.050171
    62  H    0.011985
    63  H    0.041139
    64  H   -0.030248
    65  H    0.024873
    66  H    0.049648
    67  H   -0.027016
    68  H    0.009885
    69  H    0.092003
    70  H    0.008442
    71  H    0.006629
    72  H    0.005408
    73  H    0.046331
    74  H    0.045022
    75  H    0.036496
    76  H   -0.016927
    77  H    0.002443
    78  H    0.020095
    79  H    0.031911
    80  H    0.147554
    81  H    0.197234
 Sum of Mulliken charges =  -0.00000

 Dipole moment (field-independent basis, Debye):
    X=             -1.7047    Y=              0.0108    Z=             -1.1507  Tot=              2.0567
 Quadrupole moment (field-independent basis, Debye-Ang):
   XX=           -257.1090   YY=           -242.2512   ZZ=           -254.7851
   XY=             13.2897   XZ=              9.5979   YZ=            -11.0687

 Normal termination of Gaussian 16 at Mon Jul  1 23:54:33 2019.
