 Gaussian 16, Revision A.03,
 Gaussian 16:  ES64L-G16RevA.03 25-Dec-2016

 --------------------------
 # td=(NStates=1) B3LYP/SVP
 --------------------------

 --
 TD
 --
 Symbolic Z-matrix:
 Charge =  0 Multiplicity = 1

                         Standard orientation:
 ---------------------------------------------------------------------
 Center     Atomic      Atomic             Coordinates (Angstroms)
 Number     Number       Type             X           Y           Z
 ---------------------------------------------------------------------
      1          8           0       -4.386670   -4.773341    1.902683
      2          8           0        2.881429   -4.744620    1.124325
      3          8           0        7.082309   -1.553576    1.845219
      4          8           0        3.767587   -3.107881   -0.022238
      5          8           0        7.476735   -0.609137   -0.283964
      6          8           0       -2.933330    2.194812   -0.267563
      7          7           0       -0.262747   -0.437813   -0.611810
      8          7           0        1.523318    1.778492   -0.219973
      9          7           0       -3.277470   -3.094357    0.754543
     10          7           0       -0.763975    2.883057   -0.087479
     11          6           0        0.726700   -2.338726   -1.379655
     12          6           0        0.883744   -1.009975   -0.972792
     13          6           0       -0.695955   -2.595383   -1.163612
     14          6           0       -1.288714   -1.407131   -0.720800
     15          6           0        3.885843    1.506917   -0.263813
     16          6           0        2.462229    0.818047   -0.460199
     17          6           0        2.235162   -0.436862   -0.929150
     18          6           0        3.620231    2.852099    0.010305
     19          6           0        1.568682   -3.335465   -1.876374
     20          6           0       -5.598136   -2.652458    1.328084
     21          6           0       -3.572050   -1.761325    0.341787
     22          6           0        2.172717    3.059513    0.034223
     23          6           0       -4.911463   -1.548078    0.413266
     24          6           0        5.155718    0.807028   -0.252520
     25          6           0       -2.596554   -1.071383   -0.339573
     26          6           0       -1.408057   -3.807937   -1.633422
     27          6           0       -4.341039   -3.592883    1.385202
     28          6           0        2.115451   -4.475748   -0.994622
     29          6           0        5.342185   -0.072896    0.896079
     30          6           0        4.641098    3.919908    0.400109
     31          6           0        1.356770    4.164671    0.179811
     32          6           0       -6.793944   -3.220879    0.716428
     33          6           0       -5.822459   -0.686939   -0.172563
     34          6           0       -0.144954    4.039981    0.210431
     35          6           0       -1.077271    5.078572    0.384359
     36          6           0       -2.394112    4.601601    0.267387
     37          6           0        2.995661   -4.054493    0.001471
     38          6           0       -5.529721    0.540078   -1.059337
     39          6           0        6.796822   -0.759844    0.696696
     40          6           0       -3.723989    5.149039    0.354668
     41          6           0       -2.136616    3.034710   -0.044890
     42          6           0       -0.721179    6.471784    0.847903
     43          6           0       -4.512386    5.394516   -0.949109
     44          1           0       -0.333634    0.480164   -0.132844
     45          1           0        3.250227   -1.054313   -0.996245
     46          1           0        2.378573   -2.888522   -2.085834
     47          1           0        1.371770   -3.610784   -2.931758
     48          1           0       -5.814106   -2.475145    2.344232
     49          1           0        5.049011    0.036501   -1.056626
     50          1           0        6.084839    1.475739   -0.564971
     51          1           0       -2.992274    0.081805   -0.401981
     52          1           0        0.532885    1.988098   -0.454012
     53          1           0       -0.897329   -4.656893   -0.831112
     54          1           0       -2.738799   -3.941335   -1.347853
     55          1           0       -1.455845   -4.115745   -2.730252
     56          1           0       -2.401670   -3.397268    0.986964
     57          1           0        1.382609   -5.105391   -0.441255
     58          1           0        2.751677   -5.317992   -1.545900
     59          1           0        4.643542   -0.908025    1.122728
     60          1           0        5.531714    0.408216    1.918297
     61          1           0        4.598406    4.850185   -0.360452
     62          1           0        5.646261    3.490368    0.384754
     63          1           0        4.446951    4.423081    1.504373
     64          1           0        1.841421    5.195348    0.469417
     65          1           0       -7.706258   -2.590752    0.920419
     66          1           0       -6.827457   -4.239442    1.230305
     67          1           0       -6.586637   -3.634342   -0.321716
     68          1           0       -6.843682   -0.747449    0.268441
     69          1           0       -5.324066    1.476822   -0.528520
     70          1           0       -6.443762    0.743325   -1.545585
     71          1           0       -4.888375    0.142716   -1.768139
     72          1           0       -3.720091    6.150994    0.974339
     73          1           0       -4.221010    4.348507    1.118868
     74          1           0        0.054650    6.270937    1.699713
     75          1           0       -1.725923    7.115672    0.991627
     76          1           0       -0.201335    6.946886    0.046513
     77          1           0       -3.886064    6.268629   -1.328206
     78          1           0       -5.590468    5.590723   -0.923830
     79          1           0       -4.350861    4.424424   -1.363786
     80          1           0        3.524323   -4.237285    1.523719
     81          1           0        8.079970   -1.804512    1.386858
 ---------------------------------------------------------------------

 SCF Done:  E(RB3LYP) =  -1949.00758879     A.U. after   16 cycles

 Excitation energies and oscillator strengths:

 Excited State   1:      Singlet-A      1.5387 eV  805.78 nm  f=0.2098  <S**2>=0.000
     156 ->157         0.70768
     156 <-157        -0.10347
 This state for optimization and/or second-order correction.
 Total Energy, E(TD-HF/TD-DFT) =  -1948.95104340
 Copying the excited state density for this state as the 1-particle RhoCI density.

 The electronic state is 1-A.
 Alpha  occ. eigenvalues --  -19.19803 -19.19283 -19.15502 -19.13916 -19.12761
 Alpha  occ. eigenvalues --  -19.08489 -14.37485 -14.36034 -14.35493 -14.30128
 Alpha  occ. eigenvalues --  -10.33369 -10.32776 -10.28205 -10.27406 -10.25209
 Alpha  occ. eigenvalues --  -10.24824 -10.24165 -10.23296 -10.22666 -10.22661
 Alpha  occ. eigenvalues --  -10.22558 -10.22468 -10.22423 -10.22178 -10.21875
 Alpha  occ. eigenvalues --  -10.21615 -10.21407 -10.21405 -10.21260 -10.21260
 Alpha  occ. eigenvalues --  -10.21022 -10.20486 -10.20439 -10.19510 -10.19239
 Alpha  occ. eigenvalues --  -10.19197 -10.19173 -10.19017 -10.18875 -10.18873
 Alpha  occ. eigenvalues --  -10.18739 -10.18162 -10.16720  -1.14645  -1.08819
 Alpha  occ. eigenvalues --   -1.05530  -1.01980  -1.00719  -1.00373  -0.98382
 Alpha  occ. eigenvalues --   -0.96136  -0.93136  -0.93004  -0.84314  -0.83168
 Alpha  occ. eigenvalues --   -0.81664  -0.81050  -0.80497  -0.79214  -0.78569
 Alpha  occ. eigenvalues --   -0.77264  -0.76757  -0.75641  -0.73959  -0.73061
 Alpha  occ. eigenvalues --   -0.71037  -0.70073  -0.69201  -0.68477  -0.66998
 Alpha  occ. eigenvalues --   -0.66945  -0.65679  -0.64499  -0.62220  -0.61572
 Alpha  occ. eigenvalues --   -0.60192  -0.58599  -0.57666  -0.57059  -0.56442
 Alpha  occ. eigenvalues --   -0.55337  -0.54936  -0.54608  -0.53590  -0.52884
 Alpha  occ. eigenvalues --   -0.52393  -0.51987  -0.51617  -0.51296  -0.50656
 Alpha  occ. eigenvalues --   -0.50165  -0.49539  -0.49241  -0.48373  -0.47374
 Alpha  occ. eigenvalues --   -0.47092  -0.46679  -0.46292  -0.45653  -0.45583
 Alpha  occ. eigenvalues --   -0.45030  -0.44936  -0.44692  -0.44414  -0.43920
 Alpha  occ. eigenvalues --   -0.43723  -0.43542  -0.43470  -0.42766  -0.42472
 Alpha  occ. eigenvalues --   -0.42173  -0.41905  -0.41802  -0.41779  -0.41589
 Alpha  occ. eigenvalues --   -0.41086  -0.40784  -0.40651  -0.40247  -0.40161
 Alpha  occ. eigenvalues --   -0.39162  -0.38999  -0.38452  -0.38343  -0.38157
 Alpha  occ. eigenvalues --   -0.37929  -0.37778  -0.37281  -0.36893  -0.36515
 Alpha  occ. eigenvalues --   -0.35825  -0.35453  -0.35304  -0.34734  -0.34421
 Alpha  occ. eigenvalues --   -0.34229  -0.34028  -0.33857  -0.33657  -0.33272
 Alpha  occ. eigenvalues --   -0.33213  -0.31189  -0.30487  -0.30079  -0.29874
 Alpha  occ. eigenvalues --   -0.29677  -0.29056  -0.26313  -0.25590  -0.25231
 Alpha  occ. eigenvalues --   -0.24873  -0.24576  -0.23372  -0.22861  -0.21612
 Alpha  occ. eigenvalues --   -0.17628
 Alpha virt. eigenvalues --   -0.11230  -0.06497  -0.04675  -0.01833  -0.00718
 Alpha virt. eigenvalues --    0.00335   0.01111   0.01808   0.02981   0.03033
 Alpha virt. eigenvalues --    0.03326   0.04024   0.04581   0.05228   0.05655

 Mulliken charges:
               1
     1  O   -0.304805
     2  O   -0.092748
     3  O   -0.285939
     4  O   -0.264017
     5  O   -0.212368
     6  O   -0.142315
     7  N   -0.055311
     8  N   -0.165303
     9  N   -0.022628
    10  N   -0.309171
    11  C   -0.154142
    12  C    0.070032
    13  C   -0.097637
    14  C    0.125573
    15  C   -0.054226
    16  C    0.085222
    17  C   -0.128129
    18  C   -0.087089
    19  C    0.279620
    20  C   -0.042936
    21  C    0.051101
    22  C    0.106819
    23  C   -0.005340
    24  C    0.067289
    25  C   -0.197943
    26  C   -0.114915
    27  C    0.074694
    28  C    0.035976
    29  C   -0.047761
    30  C    0.011349
    31  C   -0.122680
    32  C    0.042337
    33  C   -0.169915
    34  C    0.077155
    35  C   -0.131396
    36  C   -0.169233
    37  C    0.064435
    38  C    0.158275
    39  C    0.173976
    40  C   -0.056022
    41  C    0.147877
    42  C    0.079447
    43  C    0.038808
    44  H    0.147134
    45  H    0.070174
    46  H   -0.098677
    47  H    0.000259
    48  H    0.014845
    49  H    0.023006
    50  H    0.058161
    51  H    0.086201
    52  H    0.154435
    53  H    0.040681
    54  H    0.065720
    55  H    0.060217
    56  H    0.107872
    57  H    0.033948
    58  H    0.064906
    59  H    0.065489
    60  H    0.035195
    61  H    0.045964
    62  H    0.017891
    63  H    0.051665
    64  H    0.012630
    65  H    0.036894
    66  H    0.023968
    67  H    0.012874
    68  H   -0.002343
    69  H    0.053095
    70  H   -0.026380
    71  H    0.010991
    72  H    0.009723
    73  H    0.039909
    74  H    0.046140
    75  H    0.039296
    76  H    0.011886
    77  H    0.028460
    78  H    0.029828
    79  H    0.025368
    80  H    0.126272
    81  H    0.220286
 Sum of Mulliken charges =  -0.00000

 Dipole moment (field-independent basis, Debye):
    X=              4.0762    Y=              4.0831    Z=             -0.5194  Tot=              5.7928
 Quadrupole moment (field-independent basis, Debye-Ang):
   XX=           -246.4016   YY=           -247.1683   ZZ=           -259.6684
   XY=            -25.1725   XZ=             12.0305   YZ=             17.6017

 Normal termination of Gaussian 16 at Fri Jun 28 03:01:29 2019.
