 Gaussian 16, Revision A.03,
 Gaussian 16:  ES64L-G16RevA.03 25-Dec-2016

 --------------------------
 # td=(NStates=1) B3LYP/SVP
 --------------------------

 --
 TD
 --
 Symbolic Z-matrix:
 Charge =  0 Multiplicity = 1

                         Standard orientation:
 ---------------------------------------------------------------------
 Center     Atomic      Atomic             Coordinates (Angstroms)
 Number     Number       Type             X           Y           Z
 ---------------------------------------------------------------------
      1          8           0        3.756152   -4.977193   -1.943271
      2          8           0       -3.167406   -4.640633   -1.155506
      3          8           0       -6.958613   -1.156443   -1.923353
      4          8           0       -4.057767   -2.990600    0.072704
      5          8           0       -7.486862   -0.333677    0.131180
      6          8           0        3.235937    2.182370    0.503733
      7          7           0        0.212926   -0.523031    0.500652
      8          7           0       -1.351369    1.921538    0.396747
      9          7           0        3.054014   -3.278445   -0.654721
     10          7           0        0.903357    2.923945    0.162235
     11          6           0       -0.805662   -2.331567    1.409924
     12          6           0       -1.035375   -1.015854    0.966983
     13          6           0        0.522250   -2.564462    1.238358
     14          6           0        1.187904   -1.441651    0.710572
     15          6           0       -3.647707    1.791426    0.306677
     16          6           0       -2.425196    0.998421    0.522948
     17          6           0       -2.239434   -0.247066    0.895463
     18          6           0       -3.340386    2.992618   -0.199895
     19          6           0       -1.922367   -3.244710    2.055990
     20          6           0        5.218351   -3.111294   -1.391775
     21          6           0        3.415859   -2.069225   -0.218043
     22          6           0       -1.864478    3.152185   -0.040977
     23          6           0        4.880774   -1.891677   -0.531249
     24          6           0       -4.998297    1.132140    0.363931
     25          6           0        2.572290   -1.178788    0.470049
     26          6           0        1.219109   -3.793291    1.793707
     27          6           0        3.956796   -3.917767   -1.395594
     28          6           0       -2.325515   -4.313349    1.109756
     29          6           0       -5.285106    0.107386   -0.799078
     30          6           0       -4.237498    4.155929   -0.663319
     31          6           0       -1.006748    4.225577   -0.329638
     32          6           0        6.440776   -3.989437   -0.799371
     33          6           0        5.786706   -0.910641   -0.219881
     34          6           0        0.387943    4.046902   -0.217688
     35          6           0        1.469543    5.080588   -0.522311
     36          6           0        2.602422    4.524394   -0.179142
     37          6           0       -3.308238   -3.883073   -0.003351
     38          6           0        5.414022    0.295715    0.582975
     39          6           0       -6.659726   -0.487449   -0.722292
     40          6           0        4.026741    5.007026   -0.260354
     41          6           0        2.350286    3.024134    0.287617
     42          6           0        1.256056    6.469005   -1.011225
     43          6           0        4.578017    5.384158    1.181222
     44          1           0        0.474427    0.443537    0.373829
     45          1           0       -3.176855   -0.872829    1.184146
     46          1           0       -2.853342   -2.564322    2.314373
     47          1           0       -1.473821   -3.562156    2.961658
     48          1           0        5.365865   -2.694075   -2.443222
     49          1           0       -5.118482    0.541744    1.310037
     50          1           0       -5.775069    1.953521    0.276268
     51          1           0        3.082896   -0.161150    0.639510
     52          1           0       -0.397849    1.896991    0.619393
     53          1           0        1.010696   -4.668632    1.149090
     54          1           0        2.242883   -3.628210    1.996370
     55          1           0        0.713699   -4.102219    2.862489
     56          1           0        2.051337   -3.508052   -0.787411
     57          1           0       -1.544171   -4.803624    0.507977
     58          1           0       -2.881964   -5.133963    1.851288
     59          1           0       -4.489242   -0.496204   -0.805786
     60          1           0       -5.117875    0.514692   -1.870772
     61          1           0       -4.473356    5.043485    0.077454
     62          1           0       -5.248072    3.551109   -0.750260
     63          1           0       -3.848359    4.495460   -1.652662
     64          1           0       -1.525336    5.046523   -0.690729
     65          1           0        7.312203   -3.307342   -0.818560
     66          1           0        6.408883   -4.933837   -1.388321
     67          1           0        6.155117   -4.155051    0.362629
     68          1           0        6.801219   -1.035225   -0.505574
     69          1           0        4.921744    1.024401    0.084812
     70          1           0        6.350388    0.734253    1.085453
     71          1           0        4.840902   -0.214232    1.347519
     72          1           0        4.126454    5.825921   -0.947911
     73          1           0        4.520213    4.135936   -0.757839
     74          1           0        0.583367    6.551641   -1.920280
     75          1           0        2.280057    6.946995   -1.033145
     76          1           0        0.515763    7.054952   -0.223067
     77          1           0        3.940705    5.986515    1.811192
     78          1           0        5.702351    5.604932    1.058959
     79          1           0        4.858711    4.412493    1.653025
     80          1           0       -3.824736   -4.318423   -1.755370
     81          1           0       -7.920048   -1.562010   -1.840779
 ---------------------------------------------------------------------

 SCF Done:  E(RB3LYP) =  -1949.18690432     A.U. after   16 cycles

 Excitation energies and oscillator strengths:

 Excited State   1:      Singlet-A      1.9078 eV  649.88 nm  f=0.2870  <S**2>=0.000
     156 ->157         0.70605
 This state for optimization and/or second-order correction.
 Total Energy, E(TD-HF/TD-DFT) =  -1949.11679443
 Copying the excited state density for this state as the 1-particle RhoCI density.

 The electronic state is 1-A.
 Alpha  occ. eigenvalues --  -19.18607 -19.17476 -19.14769 -19.13393 -19.12870
 Alpha  occ. eigenvalues --  -19.10266 -14.37199 -14.37130 -14.35177 -14.29712
 Alpha  occ. eigenvalues --  -10.33276 -10.32358 -10.28892 -10.28170 -10.24428
 Alpha  occ. eigenvalues --  -10.24380 -10.23475 -10.22890 -10.22790 -10.22749
 Alpha  occ. eigenvalues --  -10.22631 -10.22103 -10.21723 -10.21245 -10.21218
 Alpha  occ. eigenvalues --  -10.21085 -10.20997 -10.20852 -10.20663 -10.20527
 Alpha  occ. eigenvalues --  -10.20491 -10.19985 -10.19812 -10.19486 -10.19333
 Alpha  occ. eigenvalues --  -10.19265 -10.19180 -10.18944 -10.18797 -10.18517
 Alpha  occ. eigenvalues --  -10.18462 -10.18396 -10.16688  -1.11559  -1.07905
 Alpha  occ. eigenvalues --   -1.04481  -1.03127  -1.01837  -0.99441  -0.98155
 Alpha  occ. eigenvalues --   -0.96981  -0.96520  -0.92595  -0.82792  -0.82276
 Alpha  occ. eigenvalues --   -0.81377  -0.81169  -0.80000  -0.78601  -0.77881
 Alpha  occ. eigenvalues --   -0.77354  -0.76224  -0.74889  -0.74188  -0.72172
 Alpha  occ. eigenvalues --   -0.70751  -0.68900  -0.68667  -0.68237  -0.67471
 Alpha  occ. eigenvalues --   -0.67236  -0.65003  -0.64454  -0.62808  -0.62105
 Alpha  occ. eigenvalues --   -0.60402  -0.58999  -0.58755  -0.58200  -0.57305
 Alpha  occ. eigenvalues --   -0.56470  -0.55442  -0.55112  -0.54005  -0.52997
 Alpha  occ. eigenvalues --   -0.52097  -0.51694  -0.51017  -0.50422  -0.49950
 Alpha  occ. eigenvalues --   -0.49415  -0.48616  -0.48591  -0.47756  -0.47468
 Alpha  occ. eigenvalues --   -0.47357  -0.46421  -0.46310  -0.45609  -0.45437
 Alpha  occ. eigenvalues --   -0.44953  -0.44432  -0.44264  -0.44111  -0.43690
 Alpha  occ. eigenvalues --   -0.43477  -0.42945  -0.42920  -0.42552  -0.42423
 Alpha  occ. eigenvalues --   -0.42047  -0.41910  -0.41401  -0.41295  -0.41131
 Alpha  occ. eigenvalues --   -0.40812  -0.40790  -0.40104  -0.39874  -0.39601
 Alpha  occ. eigenvalues --   -0.39283  -0.39163  -0.38639  -0.38555  -0.38341
 Alpha  occ. eigenvalues --   -0.37956  -0.37863  -0.37684  -0.37268  -0.36855
 Alpha  occ. eigenvalues --   -0.36222  -0.35903  -0.35410  -0.35074  -0.34757
 Alpha  occ. eigenvalues --   -0.34633  -0.34270  -0.34188  -0.34074  -0.33898
 Alpha  occ. eigenvalues --   -0.32505  -0.32315  -0.32120  -0.30426  -0.29801
 Alpha  occ. eigenvalues --   -0.28833  -0.28685  -0.26408  -0.26324  -0.25781
 Alpha  occ. eigenvalues --   -0.25472  -0.24862  -0.24389  -0.23857  -0.21861
 Alpha  occ. eigenvalues --   -0.17883
 Alpha virt. eigenvalues --   -0.09916  -0.05549  -0.03713  -0.01283  -0.00288
 Alpha virt. eigenvalues --    0.00393   0.02088   0.03303   0.03485   0.03940
 Alpha virt. eigenvalues --    0.04114   0.04835   0.04984   0.05782   0.06035

 Mulliken charges:
               1
     1  O   -0.208630
     2  O   -0.192422
     3  O   -0.278622
     4  O   -0.171765
     5  O   -0.202675
     6  O   -0.216406
     7  N   -0.074037
     8  N   -0.107263
     9  N   -0.011896
    10  N   -0.327949
    11  C   -0.104861
    12  C    0.019254
    13  C   -0.185754
    14  C    0.066824
    15  C   -0.051397
    16  C    0.111597
    17  C   -0.077603
    18  C   -0.125006
    19  C    0.142554
    20  C   -0.096705
    21  C    0.012277
    22  C    0.061768
    23  C   -0.034719
    24  C    0.059634
    25  C   -0.134199
    26  C    0.066890
    27  C    0.066178
    28  C   -0.023656
    29  C    0.035831
    30  C    0.027483
    31  C   -0.082888
    32  C    0.017748
    33  C   -0.147978
    34  C    0.127749
    35  C   -0.068816
    36  C   -0.227486
    37  C    0.112825
    38  C    0.110831
    39  C    0.192076
    40  C    0.069730
    41  C    0.236569
    42  C    0.048709
    43  C   -0.002021
    44  H    0.119730
    45  H    0.029558
    46  H    0.035731
    47  H   -0.001143
    48  H    0.055794
    49  H    0.034364
    50  H    0.020543
    51  H    0.038145
    52  H    0.104912
    53  H    0.023057
    54  H    0.020646
    55  H    0.020382
    56  H    0.147679
    57  H    0.042220
    58  H    0.066693
    59  H   -0.013707
    60  H    0.036584
    61  H    0.063234
    62  H    0.027836
    63  H    0.042202
    64  H   -0.070790
    65  H    0.032780
    66  H    0.057680
    67  H    0.036177
    68  H   -0.028179
    69  H    0.040206
    70  H    0.002337
    71  H    0.032200
    72  H   -0.011731
    73  H    0.019798
    74  H    0.029816
    75  H    0.036634
    76  H    0.032112
    77  H    0.036828
    78  H    0.010032
    79  H    0.018582
    80  H    0.168331
    81  H    0.210956
 Sum of Mulliken charges =  -0.00000

 Dipole moment (field-independent basis, Debye):
    X=             -1.8619    Y=              1.8460    Z=             -0.3703  Tot=              2.6479
 Quadrupole moment (field-independent basis, Debye-Ang):
   XX=           -248.5157   YY=           -248.4881   ZZ=           -254.8129
   XY=             14.7400   XZ=             11.9085   YZ=            -14.8839

 Normal termination of Gaussian 16 at Tue Jul  2 22:53:52 2019.
