 Gaussian 16, Revision A.03,
 Gaussian 16:  ES64L-G16RevA.03 25-Dec-2016

 --------------------------
 # td=(NStates=1) B3LYP/SVP
 --------------------------

 --
 TD
 --
 Symbolic Z-matrix:
 Charge =  0 Multiplicity = 1

                         Standard orientation:
 ---------------------------------------------------------------------
 Center     Atomic      Atomic             Coordinates (Angstroms)
 Number     Number       Type             X           Y           Z
 ---------------------------------------------------------------------
      1          8           0        4.221885   -4.969373   -1.965993
      2          8           0       -3.370345   -4.584470   -1.183338
      3          8           0       -6.995698   -1.514599   -1.777831
      4          8           0       -4.134946   -2.985394    0.164680
      5          8           0       -7.621298   -0.304162   -0.015185
      6          8           0        3.095756    2.344749    0.384727
      7          7           0        0.223505   -0.533075    0.651187
      8          7           0       -1.501264    1.875828    0.417831
      9          7           0        3.183111   -3.136622   -0.813146
     10          7           0        0.910150    2.918471    0.182618
     11          6           0       -0.692835   -2.412616    1.529774
     12          6           0       -1.010730   -0.973848    1.110294
     13          6           0        0.672531   -2.621000    1.268448
     14          6           0        1.266069   -1.485083    0.696537
     15          6           0       -3.728357    1.625431    0.280746
     16          6           0       -2.502104    0.917953    0.562101
     17          6           0       -2.249836   -0.418296    1.005776
     18          6           0       -3.420281    2.950553   -0.036158
     19          6           0       -1.682429   -3.464745    1.969859
     20          6           0        5.466363   -2.934010   -1.250527
     21          6           0        3.549919   -1.938739   -0.231336
     22          6           0       -1.967823    3.047933   -0.015137
     23          6           0        4.970322   -1.781141   -0.471939
     24          6           0       -5.119538    0.940357    0.270660
     25          6           0        2.628887   -1.037422    0.303802
     26          6           0        1.411662   -3.775699    1.786066
     27          6           0        4.238286   -3.857201   -1.485544
     28          6           0       -2.357955   -4.404965    0.910635
     29          6           0       -5.332520   -0.045242   -0.829685
     30          6           0       -4.334903    4.089818   -0.563716
     31          6           0       -1.186255    4.108849   -0.278082
     32          6           0        6.802643   -3.676720   -0.715207
     33          6           0        5.827569   -0.777430   -0.096575
     34          6           0        0.210824    4.052140   -0.196809
     35          6           0        1.207866    5.082336   -0.452659
     36          6           0        2.457527    4.575632   -0.241037
     37          6           0       -3.359074   -3.863255   -0.030476
     38          6           0        5.505720    0.461025    0.755539
     39          6           0       -6.769725   -0.618936   -0.834649
     40          6           0        3.873416    5.167462   -0.310396
     41          6           0        2.244691    3.178857    0.071246
     42          6           0        0.940809    6.529390   -0.863488
     43          6           0        4.531405    5.325177    0.967189
     44          1           0        0.348452    0.194014    0.198101
     45          1           0       -3.117038   -0.800323    1.318493
     46          1           0       -2.489468   -2.759538    2.421264
     47          1           0       -1.259652   -4.169987    2.718962
     48          1           0        5.608153   -2.648498   -2.296142
     49          1           0       -5.193177    0.538170    1.236151
     50          1           0       -5.713032    1.913156    0.243284
     51          1           0        2.833474    0.028738    0.311182
     52          1           0       -0.434776    1.869954    0.266022
     53          1           0        1.342886   -4.775391    1.289620
     54          1           0        2.620708   -3.621894    1.856501
     55          1           0        0.932299   -4.049298    2.744714
     56          1           0        2.088484   -3.441129   -0.786339
     57          1           0       -1.423106   -4.983976    0.230777
     58          1           0       -2.772155   -5.338747    1.457364
     59          1           0       -4.529017   -0.768171   -0.756998
     60          1           0       -5.169454    0.333521   -1.732167
     61          1           0       -4.214243    4.811295    0.162856
     62          1           0       -5.312749    3.554887   -0.670875
     63          1           0       -4.103434    4.624368   -1.672389
     64          1           0       -1.648790    4.916745   -0.693765
     65          1           0        7.811688   -3.107838   -0.793416
     66          1           0        6.953976   -4.692322   -1.305165
     67          1           0        6.614759   -3.902410    0.341092
     68          1           0        6.946723   -0.856551   -0.285385
     69          1           0        4.796040    1.261224    0.153928
     70          1           0        6.494956    0.841273    1.061453
     71          1           0        4.859451    0.283352    1.515977
     72          1           0        4.015661    6.061830   -0.932005
     73          1           0        4.488913    4.513474   -0.978869
     74          1           0        0.437433    6.441747   -1.735685
     75          1           0        1.898705    7.070865   -0.931958
     76          1           0        0.303793    7.127218   -0.017120
     77          1           0        4.044945    5.960426    1.707186
     78          1           0        5.733094    5.536360    0.765967
     79          1           0        4.597066    4.378644    1.516311
     80          1           0       -4.286485   -4.177453   -1.683359
     81          1           0       -7.929297   -1.733332   -1.682974
 ---------------------------------------------------------------------

 SCF Done:  E(RB3LYP) =  -1949.11639566     A.U. after   23 cycles

 Excitation energies and oscillator strengths:

 Excited State   1:      Singlet-A      1.6486 eV  752.04 nm  f=0.3317  <S**2>=0.000
     156 ->157         0.70981
     156 <-157        -0.14462
 This state for optimization and/or second-order correction.
 Total Energy, E(TD-HF/TD-DFT) =  -1949.05580921
 Copying the excited state density for this state as the 1-particle RhoCI density.

 The electronic state is 1-A.
 Alpha  occ. eigenvalues --  -19.19808 -19.19309 -19.14700 -19.12737 -19.12353
 Alpha  occ. eigenvalues --  -19.09317 -14.38505 -14.36955 -14.34967 -14.27811
 Alpha  occ. eigenvalues --  -10.33418 -10.32238 -10.30731 -10.25337 -10.25043
 Alpha  occ. eigenvalues --  -10.24812 -10.24497 -10.24261 -10.23186 -10.22726
 Alpha  occ. eigenvalues --  -10.22345 -10.22319 -10.21432 -10.21164 -10.21073
 Alpha  occ. eigenvalues --  -10.21029 -10.21010 -10.20848 -10.20816 -10.20335
 Alpha  occ. eigenvalues --  -10.20163 -10.20076 -10.19862 -10.19758 -10.19696
 Alpha  occ. eigenvalues --  -10.19498 -10.19452 -10.19213 -10.18523 -10.18009
 Alpha  occ. eigenvalues --  -10.17818 -10.17683 -10.17388  -1.11346  -1.10893
 Alpha  occ. eigenvalues --   -1.04107  -1.01527  -1.00474  -1.00309  -0.98837
 Alpha  occ. eigenvalues --   -0.97624  -0.95561  -0.91006  -0.82896  -0.82506
 Alpha  occ. eigenvalues --   -0.81358  -0.81121  -0.79436  -0.78867  -0.77892
 Alpha  occ. eigenvalues --   -0.77406  -0.76843  -0.75198  -0.73790  -0.72288
 Alpha  occ. eigenvalues --   -0.71016  -0.70044  -0.69092  -0.68774  -0.67773
 Alpha  occ. eigenvalues --   -0.67340  -0.65834  -0.64292  -0.62398  -0.61581
 Alpha  occ. eigenvalues --   -0.60489  -0.60080  -0.59736  -0.58099  -0.56952
 Alpha  occ. eigenvalues --   -0.56240  -0.55582  -0.54557  -0.53169  -0.52763
 Alpha  occ. eigenvalues --   -0.52344  -0.51928  -0.51348  -0.50398  -0.50222
 Alpha  occ. eigenvalues --   -0.49501  -0.49018  -0.48752  -0.48461  -0.47966
 Alpha  occ. eigenvalues --   -0.47489  -0.47101  -0.46239  -0.45900  -0.45531
 Alpha  occ. eigenvalues --   -0.44989  -0.44593  -0.44118  -0.43938  -0.43844
 Alpha  occ. eigenvalues --   -0.43686  -0.43109  -0.42982  -0.42783  -0.42465
 Alpha  occ. eigenvalues --   -0.42390  -0.41596  -0.41490  -0.41157  -0.41007
 Alpha  occ. eigenvalues --   -0.40581  -0.40308  -0.40066  -0.39707  -0.39413
 Alpha  occ. eigenvalues --   -0.39206  -0.38932  -0.38781  -0.38686  -0.38419
 Alpha  occ. eigenvalues --   -0.38269  -0.38127  -0.37658  -0.37084  -0.36882
 Alpha  occ. eigenvalues --   -0.36506  -0.36262  -0.35800  -0.35378  -0.34847
 Alpha  occ. eigenvalues --   -0.34365  -0.33948  -0.33900  -0.33327  -0.33072
 Alpha  occ. eigenvalues --   -0.32798  -0.32509  -0.31214  -0.30449  -0.30095
 Alpha  occ. eigenvalues --   -0.28154  -0.27246  -0.26524  -0.26343  -0.25476
 Alpha  occ. eigenvalues --   -0.25245  -0.24841  -0.23879  -0.22902  -0.21596
 Alpha  occ. eigenvalues --   -0.17482
 Alpha virt. eigenvalues --   -0.11037  -0.06452  -0.04860  -0.02008  -0.00666
 Alpha virt. eigenvalues --    0.00202   0.00880   0.01798   0.01966   0.03578
 Alpha virt. eigenvalues --    0.03705   0.05101   0.05254   0.05504   0.05872

 Mulliken charges:
               1
     1  O   -0.187421
     2  O   -0.255467
     3  O   -0.146963
     4  O   -0.203469
     5  O   -0.245649
     6  O   -0.239444
     7  N    0.009539
     8  N   -0.095696
     9  N   -0.223005
    10  N   -0.318132
    11  C   -0.115594
    12  C    0.149669
    13  C   -0.131238
    14  C    0.042900
    15  C   -0.149091
    16  C    0.006091
    17  C    0.027583
    18  C   -0.139227
    19  C    0.088437
    20  C   -0.046453
    21  C    0.125484
    22  C    0.055717
    23  C   -0.001072
    24  C    0.133636
    25  C   -0.076054
    26  C    0.011249
    27  C    0.159363
    28  C   -0.085180
    29  C    0.109266
    30  C    0.061525
    31  C   -0.070290
    32  C   -0.009896
    33  C   -0.171099
    34  C    0.112603
    35  C   -0.139296
    36  C   -0.144829
    37  C    0.163783
    38  C    0.038571
    39  C    0.129489
    40  C    0.109853
    41  C    0.134864
    42  C    0.117074
    43  C   -0.014111
    44  H    0.016239
    45  H   -0.060797
    46  H    0.041266
    47  H    0.009237
    48  H    0.040153
    49  H    0.004797
    50  H    0.011232
    51  H    0.017530
    52  H    0.165220
    53  H    0.016180
    54  H    0.058655
    55  H    0.019287
    56  H    0.183406
    57  H    0.060528
    58  H    0.071516
    59  H    0.025711
    60  H   -0.026710
    61  H    0.022427
    62  H    0.029073
    63  H    0.048891
    64  H   -0.079129
    65  H    0.042215
    66  H    0.050330
    67  H    0.026485
    68  H    0.013798
    69  H    0.108747
    70  H    0.011909
    71  H    0.003481
    72  H   -0.016983
    73  H   -0.000481
    74  H    0.002445
    75  H    0.016824
    76  H    0.036773
    77  H    0.008940
    78  H    0.014492
    79  H    0.016591
    80  H    0.238483
    81  H    0.173220
 Sum of Mulliken charges =  -0.00000

 Dipole moment (field-independent basis, Debye):
    X=             -1.9588    Y=             -1.1886    Z=             -1.5135  Tot=              2.7459
 Quadrupole moment (field-independent basis, Debye-Ang):
   XX=           -248.3855   YY=           -244.6605   ZZ=           -254.9203
   XY=             14.6565   XZ=             14.6617   YZ=            -17.1027

 Normal termination of Gaussian 16 at Sat Jun 29 06:30:03 2019.
