 Gaussian 16, Revision A.03,
 Gaussian 16:  ES64L-G16RevA.03 25-Dec-2016

 --------------------------
 # td=(NStates=1) B3LYP/SVP
 --------------------------

 --
 TD
 --
 Symbolic Z-matrix:
 Charge =  0 Multiplicity = 1

                         Standard orientation:
 ---------------------------------------------------------------------
 Center     Atomic      Atomic             Coordinates (Angstroms)
 Number     Number       Type             X           Y           Z
 ---------------------------------------------------------------------
      1          8           0        4.168564   -4.875284   -1.764062
      2          8           0       -3.008928   -5.033864   -1.083984
      3          8           0       -7.019743   -1.450422   -1.935933
      4          8           0       -3.653089   -3.097273   -0.054477
      5          8           0       -7.585288   -0.590082    0.002847
      6          8           0        2.972413    2.339910    0.433561
      7          7           0        0.196036   -0.459104    0.643847
      8          7           0       -1.538147    1.810422    0.431828
      9          7           0        3.363776   -3.052400   -0.667003
     10          7           0        0.791277    2.917196    0.150294
     11          6           0       -0.596920   -2.291842    1.570438
     12          6           0       -1.020830   -1.000031    1.040421
     13          6           0        0.742221   -2.545729    1.276525
     14          6           0        1.253943   -1.330833    0.680262
     15          6           0       -3.841015    1.510836    0.281701
     16          6           0       -2.552428    0.859721    0.631903
     17          6           0       -2.254044   -0.419817    1.057865
     18          6           0       -3.538293    2.778214   -0.133170
     19          6           0       -1.608343   -3.341167    2.004606
     20          6           0        5.514403   -2.745617   -1.364720
     21          6           0        3.626185   -1.746260   -0.340525
     22          6           0       -2.050978    2.997394    0.035825
     23          6           0        5.020966   -1.570940   -0.601711
     24          6           0       -5.099406    0.711286    0.407828
     25          6           0        2.509800   -1.034276    0.225850
     26          6           0        1.542845   -3.745247    1.781347
     27          6           0        4.280323   -3.758679   -1.319428
     28          6           0       -2.017819   -4.519949    1.056283
     29          6           0       -5.383957   -0.079679   -0.798618
     30          6           0       -4.540301    3.819897   -0.596887
     31          6           0       -1.296850    4.116472   -0.331823
     32          6           0        6.878463   -3.443482   -0.824642
     33          6           0        5.805321   -0.544998   -0.305489
     34          6           0        0.112464    4.065066   -0.234314
     35          6           0        1.090595    5.119421   -0.484230
     36          6           0        2.333447    4.576599   -0.122270
     37          6           0       -2.929033   -4.124773   -0.001038
     38          6           0        5.585535    0.651977    0.643282
     39          6           0       -6.780752   -0.701015   -0.883637
     40          6           0        3.681456    5.208938   -0.211480
     41          6           0        2.122354    3.254126    0.252495
     42          6           0        0.688414    6.474467   -0.984393
     43          6           0        4.275043    5.452407    1.138304
     44          1           0        0.208313    0.532502    0.156207
     45          1           0       -2.973306   -1.081130    1.339601
     46          1           0       -2.444176   -2.824766    2.365305
     47          1           0       -1.249193   -3.862445    2.621042
     48          1           0        5.545821   -2.482407   -2.368834
     49          1           0       -5.264519   -0.030058    1.291488
     50          1           0       -5.943047    1.463506    0.381097
     51          1           0        2.517329    0.089275    0.184823
     52          1           0       -0.530652    2.095266    0.706748
     53          1           0        1.798634   -4.494422    0.941546
     54          1           0        2.603232   -3.468125    1.928602
     55          1           0        1.144028   -4.348425    2.599118
     56          1           0        2.326538   -3.215652   -0.839435
     57          1           0       -1.046975   -5.258045    0.863466
     58          1           0       -2.503296   -5.416365    1.679634
     59          1           0       -4.757626   -0.972518   -0.788076
     60          1           0       -5.208976    0.482404   -1.693807
     61          1           0       -4.347609    4.850065   -0.041418
     62          1           0       -5.524349    3.567654   -0.395441
     63          1           0       -4.518408    3.806819   -1.595908
     64          1           0       -1.699969    5.167841   -0.561568
     65          1           0        8.035937   -3.083627   -0.897834
     66          1           0        7.108856   -4.343246   -1.435566
     67          1           0        6.506208   -3.650070    0.118333
     68          1           0        6.886409   -0.698586   -0.670995
     69          1           0        5.072038    1.538521    0.057337
     70          1           0        6.404223    0.997879    1.259976
     71          1           0        4.624327    0.152118    1.264740
     72          1           0        3.535806    6.282622   -0.781027
     73          1           0        4.338905    4.414345   -0.898702
     74          1           0        0.406695    6.642367   -2.285672
     75          1           0        1.416526    7.144935   -1.139732
     76          1           0       -0.207003    6.842530   -0.423381
     77          1           0        3.545453    6.034585    1.739983
     78          1           0        5.212759    6.142714    0.976195
     79          1           0        4.411960    4.643037    1.782622
     80          1           0       -3.634632   -4.589025   -1.636260
     81          1           0       -7.795128   -1.843655   -1.779930
 ---------------------------------------------------------------------

 SCF Done:  E(RB3LYP) =  -1949.03571421     A.U. after   23 cycles

 Excitation energies and oscillator strengths:

 Excited State   1:      Singlet-A      1.6126 eV  768.84 nm  f=0.3124  <S**2>=0.000
     156 ->157         0.71252
     156 <-157        -0.14496
 This state for optimization and/or second-order correction.
 Total Energy, E(TD-HF/TD-DFT) =  -1948.97645137
 Copying the excited state density for this state as the 1-particle RhoCI density.

 The electronic state is 1-A.
 Alpha  occ. eigenvalues --  -19.18526 -19.18291 -19.14994 -19.11970 -19.11491
 Alpha  occ. eigenvalues --  -19.09146 -14.37831 -14.37761 -14.35939 -14.28246
 Alpha  occ. eigenvalues --  -10.34461 -10.31560 -10.29418 -10.25562 -10.25047
 Alpha  occ. eigenvalues --  -10.24514 -10.24197 -10.24178 -10.23541 -10.22923
 Alpha  occ. eigenvalues --  -10.22287 -10.20934 -10.20842 -10.20840 -10.20695
 Alpha  occ. eigenvalues --  -10.20623 -10.20538 -10.20519 -10.20516 -10.20497
 Alpha  occ. eigenvalues --  -10.20302 -10.20184 -10.20145 -10.19997 -10.19983
 Alpha  occ. eigenvalues --  -10.19785 -10.19482 -10.19450 -10.19389 -10.19061
 Alpha  occ. eigenvalues --  -10.18975 -10.18613 -10.17844  -1.12794  -1.09073
 Alpha  occ. eigenvalues --   -1.04726  -1.01369  -1.00114  -0.99315  -0.98184
 Alpha  occ. eigenvalues --   -0.97582  -0.97002  -0.90794  -0.83200  -0.82759
 Alpha  occ. eigenvalues --   -0.82297  -0.81863  -0.79638  -0.78766  -0.78143
 Alpha  occ. eigenvalues --   -0.77817  -0.76647  -0.75205  -0.74067  -0.72542
 Alpha  occ. eigenvalues --   -0.71789  -0.70410  -0.69705  -0.69166  -0.68461
 Alpha  occ. eigenvalues --   -0.68125  -0.66484  -0.64017  -0.63235  -0.61967
 Alpha  occ. eigenvalues --   -0.60556  -0.59993  -0.59692  -0.59118  -0.57015
 Alpha  occ. eigenvalues --   -0.56151  -0.55979  -0.54915  -0.53354  -0.52718
 Alpha  occ. eigenvalues --   -0.52634  -0.52119  -0.51798  -0.50537  -0.49912
 Alpha  occ. eigenvalues --   -0.49791  -0.49014  -0.48545  -0.48371  -0.47782
 Alpha  occ. eigenvalues --   -0.47502  -0.46862  -0.46475  -0.45708  -0.45527
 Alpha  occ. eigenvalues --   -0.45007  -0.44664  -0.44121  -0.44010  -0.43718
 Alpha  occ. eigenvalues --   -0.43524  -0.43179  -0.42913  -0.42741  -0.42351
 Alpha  occ. eigenvalues --   -0.42120  -0.41727  -0.41541  -0.41409  -0.41104
 Alpha  occ. eigenvalues --   -0.40878  -0.40744  -0.40419  -0.40095  -0.39943
 Alpha  occ. eigenvalues --   -0.39630  -0.39335  -0.38554  -0.38368  -0.38151
 Alpha  occ. eigenvalues --   -0.37738  -0.37624  -0.37232  -0.36691  -0.36454
 Alpha  occ. eigenvalues --   -0.36246  -0.35791  -0.35691  -0.35169  -0.34151
 Alpha  occ. eigenvalues --   -0.33961  -0.33801  -0.33626  -0.33038  -0.32738
 Alpha  occ. eigenvalues --   -0.32469  -0.31965  -0.31818  -0.30452  -0.29876
 Alpha  occ. eigenvalues --   -0.27777  -0.27156  -0.26849  -0.26156  -0.25739
 Alpha  occ. eigenvalues --   -0.25406  -0.25124  -0.23967  -0.23005  -0.21477
 Alpha  occ. eigenvalues --   -0.17341
 Alpha virt. eigenvalues --   -0.11018  -0.07155  -0.04487  -0.04071   0.00024
 Alpha virt. eigenvalues --    0.01359   0.01766   0.02721   0.03231   0.04085
 Alpha virt. eigenvalues --    0.04371   0.04689   0.05683   0.06169   0.06429

 Mulliken charges:
               1
     1  O   -0.193727
     2  O   -0.203244
     3  O   -0.087390
     4  O   -0.263005
     5  O   -0.231859
     6  O   -0.259497
     7  N   -0.111874
     8  N   -0.131633
     9  N   -0.088375
    10  N   -0.340954
    11  C   -0.132293
    12  C    0.058771
    13  C   -0.158887
    14  C    0.077138
    15  C   -0.022366
    16  C    0.091724
    17  C    0.023848
    18  C   -0.188133
    19  C    0.350685
    20  C   -0.042229
    21  C    0.076708
    22  C    0.067490
    23  C    0.010234
    24  C    0.085449
    25  C   -0.129749
    26  C    0.086168
    27  C    0.084792
    28  C   -0.119197
    29  C    0.008244
    30  C    0.180976
    31  C   -0.098145
    32  C    0.014231
    33  C   -0.157777
    34  C    0.043711
    35  C   -0.051887
    36  C   -0.134057
    37  C    0.213904
    38  C   -0.008038
    39  C    0.083570
    40  C    0.002747
    41  C    0.143131
    42  C    0.059094
    43  C    0.021560
    44  H    0.179820
    45  H   -0.066308
    46  H   -0.009685
    47  H   -0.144178
    48  H    0.021465
    49  H    0.044725
    50  H    0.005109
    51  H    0.041607
    52  H    0.179188
    53  H    0.011548
    54  H    0.019240
    55  H    0.024826
    56  H    0.159404
    57  H    0.068116
    58  H    0.071264
    59  H    0.043887
    60  H    0.014266
    61  H    0.043136
    62  H   -0.023305
    63  H   -0.009756
    64  H    0.001952
    65  H    0.043010
    66  H    0.028889
    67  H    0.017722
    68  H    0.002647
    69  H    0.087487
    70  H    0.029964
    71  H    0.051806
    72  H    0.015129
    73  H    0.046730
    74  H    0.022088
    75  H   -0.029063
    76  H    0.044998
    77  H   -0.001096
    78  H    0.024350
    79  H    0.017858
    80  H    0.165962
    81  H    0.125342
 Sum of Mulliken charges =  -0.00000

 Dipole moment (field-independent basis, Debye):
    X=             -1.7036    Y=              0.3084    Z=             -0.3302  Tot=              1.7625
 Quadrupole moment (field-independent basis, Debye-Ang):
   XX=           -251.8454   YY=           -238.1404   ZZ=           -254.0290
   XY=             11.8957   XZ=             10.7492   YZ=            -16.3543

 Normal termination of Gaussian 16 at Mon Jul  1 17:08:05 2019.
