 Gaussian 16, Revision A.03,
 Gaussian 16:  ES64L-G16RevA.03 25-Dec-2016

 --------------------------
 # td=(NStates=1) B3LYP/SVP
 --------------------------

 --
 TD
 --
 Symbolic Z-matrix:
 Charge =  0 Multiplicity = 1

                         Standard orientation:
 ---------------------------------------------------------------------
 Center     Atomic      Atomic             Coordinates (Angstroms)
 Number     Number       Type             X           Y           Z
 ---------------------------------------------------------------------
      1          8           0        4.250455   -4.813387   -1.910363
      2          8           0       -2.866225   -4.892731   -1.233822
      3          8           0       -7.111124   -1.526504   -1.829535
      4          8           0       -3.788234   -3.235417    0.110530
      5          8           0       -7.661615   -0.274210    0.030074
      6          8           0        3.070525    2.471733    0.483628
      7          7           0        0.223226   -0.481800    0.596444
      8          7           0       -1.587532    1.739357    0.494080
      9          7           0        3.303166   -3.070464   -0.655542
     10          7           0        0.790512    2.855699    0.034616
     11          6           0       -0.700338   -2.432714    1.431312
     12          6           0       -0.940199   -1.078673    0.945360
     13          6           0        0.750929   -2.621041    1.324895
     14          6           0        1.269576   -1.426034    0.760332
     15          6           0       -3.779608    1.409953    0.341331
     16          6           0       -2.522918    0.742433    0.647366
     17          6           0       -2.238984   -0.596035    0.943988
     18          6           0       -3.526423    2.708072   -0.240849
     19          6           0       -1.487383   -3.547121    2.038923
     20          6           0        5.521620   -2.740323   -1.433571
     21          6           0        3.617737   -1.753877   -0.250031
     22          6           0       -2.134903    3.005891   -0.037120
     23          6           0        5.065889   -1.491188   -0.581244
     24          6           0       -5.067038    0.786947    0.293287
     25          6           0        2.655839   -0.980897    0.406818
     26          6           0        1.499007   -3.833376    1.772461
     27          6           0        4.311490   -3.682947   -1.404012
     28          6           0       -1.864404   -4.518266    0.975594
     29          6           0       -5.310873   -0.173364   -0.748919
     30          6           0       -4.526096    3.901362   -0.412377
     31          6           0       -1.342021    4.121912   -0.307606
     32          6           0        6.776468   -3.438860   -0.896038
     33          6           0        5.789374   -0.503910   -0.163883
     34          6           0        0.127237    3.939428   -0.283969
     35          6           0        1.104244    5.070568   -0.479005
     36          6           0        2.317365    4.656546   -0.267169
     37          6           0       -2.934609   -4.125870   -0.067366
     38          6           0        5.354800    0.621163    0.867685
     39          6           0       -6.864369   -0.610854   -0.801173
     40          6           0        3.655738    5.373059   -0.278033
     41          6           0        2.157746    3.159436    0.107583
     42          6           0        0.645921    6.445664   -1.045328
     43          6           0        4.320004    5.572699    1.181123
     44          1           0        0.290493    0.312998    0.048842
     45          1           0       -3.067698   -1.334337    0.933553
     46          1           0       -2.255609   -2.832437    2.677995
     47          1           0       -1.256175   -3.875163    3.062833
     48          1           0        5.606138   -2.556224   -2.616842
     49          1           0       -5.136533    0.374105    1.396809
     50          1           0       -5.855131    1.473722    0.424515
     51          1           0        2.991731   -0.049478    0.407698
     52          1           0       -0.619690    1.746020    0.514963
     53          1           0        1.445926   -4.505775    0.968842
     54          1           0        2.548134   -3.522142    1.706194
     55          1           0        1.336919   -3.917852    2.909619
     56          1           0        2.493226   -3.531396   -0.549720
     57          1           0       -0.997386   -4.757696    0.382057
     58          1           0       -2.351045   -5.527926    1.515954
     59          1           0       -4.711923   -1.141891   -0.644135
     60          1           0       -5.098714    0.473825   -1.692182
     61          1           0       -4.054092    5.009373   -0.148858
     62          1           0       -5.643789    3.671066   -0.015398
     63          1           0       -4.784159    4.143010   -1.503358
     64          1           0       -1.695956    5.182689   -0.555418
     65          1           0        7.604878   -2.706368   -1.105037
     66          1           0        7.121665   -4.248568   -1.369772
     67          1           0        6.646993   -3.473664    0.260923
     68          1           0        6.705136   -0.365512   -0.501067
     69          1           0        4.880163    1.364921    0.439027
     70          1           0        6.238343    1.280325    1.217401
     71          1           0        4.625052    0.241087    1.789909
     72          1           0        3.482187    6.242030   -0.842912
     73          1           0        4.267689    4.690787   -0.896480
     74          1           0        0.132462    6.350793   -2.161703
     75          1           0        1.343321    7.397994   -0.952544
     76          1           0       -0.099866    6.901397   -0.354392
     77          1           0        3.544419    6.108920    1.779249
     78          1           0        5.382521    5.961777    1.008104
     79          1           0        4.348848    4.725221    1.678070
     80          1           0       -3.609575   -4.504494   -1.852211
     81          1           0       -8.259657   -1.695275   -1.894005
 ---------------------------------------------------------------------

 SCF Done:  E(RB3LYP) =  -1949.02894010     A.U. after   16 cycles

 Excitation energies and oscillator strengths:

 Excited State   1:      Singlet-A      1.8380 eV  674.56 nm  f=0.3810  <S**2>=0.000
     156 ->157         0.70915
     156 <-157        -0.13066
 This state for optimization and/or second-order correction.
 Total Energy, E(TD-HF/TD-DFT) =  -1948.96139479
 Copying the excited state density for this state as the 1-particle RhoCI density.

 The electronic state is 1-A.
 Alpha  occ. eigenvalues --  -19.20495 -19.18925 -19.15147 -19.13541 -19.11517
 Alpha  occ. eigenvalues --  -19.10723 -14.37881 -14.36569 -14.34935 -14.29464
 Alpha  occ. eigenvalues --  -10.34787 -10.32426 -10.29009 -10.27263 -10.24860
 Alpha  occ. eigenvalues --  -10.24435 -10.24346 -10.24005 -10.23746 -10.23560
 Alpha  occ. eigenvalues --  -10.23444 -10.22282 -10.22236 -10.21977 -10.21469
 Alpha  occ. eigenvalues --  -10.21422 -10.20924 -10.20746 -10.20660 -10.20559
 Alpha  occ. eigenvalues --  -10.20386 -10.20082 -10.20066 -10.19866 -10.19305
 Alpha  occ. eigenvalues --  -10.19150 -10.19044 -10.18869 -10.18709 -10.18585
 Alpha  occ. eigenvalues --  -10.18175 -10.17987 -10.17973  -1.08813  -1.07336
 Alpha  occ. eigenvalues --   -1.03114  -1.02029  -1.00749  -0.99193  -0.98435
 Alpha  occ. eigenvalues --   -0.95631  -0.94646  -0.92731  -0.83170  -0.82581
 Alpha  occ. eigenvalues --   -0.81901  -0.81063  -0.79431  -0.78795  -0.77667
 Alpha  occ. eigenvalues --   -0.76700  -0.75663  -0.74506  -0.73776  -0.72331
 Alpha  occ. eigenvalues --   -0.70455  -0.69544  -0.69122  -0.68067  -0.67148
 Alpha  occ. eigenvalues --   -0.66241  -0.65948  -0.64502  -0.63031  -0.61549
 Alpha  occ. eigenvalues --   -0.60198  -0.59394  -0.57946  -0.57731  -0.57382
 Alpha  occ. eigenvalues --   -0.55971  -0.55803  -0.55033  -0.54565  -0.52728
 Alpha  occ. eigenvalues --   -0.52331  -0.51815  -0.50956  -0.49979  -0.49416
 Alpha  occ. eigenvalues --   -0.48996  -0.48699  -0.48400  -0.47664  -0.47377
 Alpha  occ. eigenvalues --   -0.47028  -0.46761  -0.46243  -0.45752  -0.45338
 Alpha  occ. eigenvalues --   -0.44917  -0.44532  -0.44356  -0.43687  -0.43608
 Alpha  occ. eigenvalues --   -0.43415  -0.43208  -0.42784  -0.42334  -0.42255
 Alpha  occ. eigenvalues --   -0.41896  -0.41678  -0.41360  -0.41162  -0.40860
 Alpha  occ. eigenvalues --   -0.40694  -0.40374  -0.40177  -0.40100  -0.39229
 Alpha  occ. eigenvalues --   -0.39128  -0.38604  -0.38280  -0.37876  -0.37540
 Alpha  occ. eigenvalues --   -0.37218  -0.37139  -0.36863  -0.36655  -0.36025
 Alpha  occ. eigenvalues --   -0.35991  -0.35849  -0.35677  -0.34833  -0.34591
 Alpha  occ. eigenvalues --   -0.34282  -0.34156  -0.33832  -0.33665  -0.33383
 Alpha  occ. eigenvalues --   -0.32516  -0.31863  -0.30665  -0.29911  -0.29616
 Alpha  occ. eigenvalues --   -0.28278  -0.28066  -0.26931  -0.26159  -0.25665
 Alpha  occ. eigenvalues --   -0.25476  -0.24603  -0.24314  -0.23695  -0.21958
 Alpha  occ. eigenvalues --   -0.17735
 Alpha virt. eigenvalues --   -0.10610  -0.05770  -0.04012  -0.03085  -0.00673
 Alpha virt. eigenvalues --    0.00116   0.00350   0.01648   0.02422   0.02885
 Alpha virt. eigenvalues --    0.03155   0.04192   0.04596   0.05119   0.05304

 Mulliken charges:
               1
     1  O   -0.241273
     2  O   -0.241067
     3  O   -0.305839
     4  O   -0.244164
     5  O   -0.202421
     6  O   -0.175914
     7  N   -0.027505
     8  N   -0.129555
     9  N   -0.088024
    10  N   -0.271220
    11  C   -0.154653
    12  C    0.079443
    13  C   -0.232273
    14  C    0.088218
    15  C   -0.124718
    16  C    0.128915
    17  C   -0.098931
    18  C   -0.069754
    19  C    0.033375
    20  C   -0.095314
    21  C    0.043373
    22  C    0.148963
    23  C    0.077318
    24  C    0.113805
    25  C    0.009833
    26  C    0.173847
    27  C    0.123311
    28  C    0.062042
    29  C   -0.018511
    30  C   -0.043894
    31  C   -0.107874
    32  C    0.094584
    33  C   -0.120723
    34  C    0.029146
    35  C   -0.082304
    36  C   -0.211361
    37  C    0.166693
    38  C    0.065019
    39  C    0.167415
    40  C    0.112697
    41  C    0.148404
    42  C   -0.008440
    43  C    0.056650
    44  H    0.112741
    45  H    0.034211
    46  H    0.027359
    47  H    0.019292
    48  H    0.059064
    49  H    0.010478
    50  H   -0.024214
    51  H   -0.084101
    52  H    0.075970
    53  H    0.020870
    54  H    0.002652
    55  H    0.053540
    56  H    0.074659
    57  H    0.035576
    58  H    0.075133
    59  H    0.075215
    60  H    0.044068
    61  H    0.052014
    62  H    0.050348
    63  H    0.019550
    64  H    0.007968
    65  H    0.007984
    66  H   -0.001194
    67  H    0.036348
    68  H   -0.064789
    69  H   -0.001326
    70  H   -0.000686
    71  H    0.058699
    72  H   -0.019355
    73  H    0.005401
    74  H    0.058872
    75  H    0.029053
    76  H    0.017841
    77  H    0.013196
    78  H    0.034923
    79  H   -0.019823
    80  H    0.226044
    81  H    0.249102
 Sum of Mulliken charges =  -0.00000

 Dipole moment (field-independent basis, Debye):
    X=             -2.0516    Y=              0.4674    Z=             -0.7090  Tot=              2.2204
 Quadrupole moment (field-independent basis, Debye-Ang):
   XX=           -245.4225   YY=           -245.5048   ZZ=           -252.9809
   XY=             17.7989   XZ=             15.4533   YZ=            -15.6680

 Normal termination of Gaussian 16 at Sun Jun 30 23:53:59 2019.
