 Gaussian 16, Revision A.03,
 Gaussian 16:  ES64L-G16RevA.03 25-Dec-2016

 --------------------------
 # td=(NStates=1) B3LYP/SVP
 --------------------------

 --
 TD
 --
 Symbolic Z-matrix:
 Charge =  0 Multiplicity = 1

                         Standard orientation:
 ---------------------------------------------------------------------
 Center     Atomic      Atomic             Coordinates (Angstroms)
 Number     Number       Type             X           Y           Z
 ---------------------------------------------------------------------
      1          8           0        4.028890   -4.919042   -1.795040
      2          8           0       -3.317838   -4.698855   -0.985915
      3          8           0       -7.008582   -1.409743   -1.850272
      4          8           0       -3.887205   -2.965404    0.153319
      5          8           0       -7.434516   -0.652995    0.241574
      6          8           0        3.063748    2.326120    0.498013
      7          7           0        0.229667   -0.501478    0.562735
      8          7           0       -1.492353    1.825868    0.337542
      9          7           0        3.171580   -3.138259   -0.647179
     10          7           0        0.827876    2.954407    0.047854
     11          6           0       -0.583648   -2.343479    1.433060
     12          6           0       -0.851370   -1.049690    0.931625
     13          6           0        0.674869   -2.587787    1.083902
     14          6           0        1.292657   -1.393919    0.705411
     15          6           0       -3.764637    1.599182    0.213254
     16          6           0       -2.491166    0.901370    0.554129
     17          6           0       -2.243398   -0.430642    0.836278
     18          6           0       -3.421524    2.862021   -0.183321
     19          6           0       -1.646259   -3.271252    2.086692
     20          6           0        5.493036   -2.951610   -1.261417
     21          6           0        3.557210   -1.893606   -0.248387
     22          6           0       -1.973719    3.033277   -0.054833
     23          6           0        4.924712   -1.686972   -0.521223
     24          6           0       -5.088301    0.845261    0.317732
     25          6           0        2.652076   -0.980700    0.272873
     26          6           0        1.394621   -3.830337    1.581055
     27          6           0        4.244952   -3.834104   -1.388514
     28          6           0       -2.161412   -4.376979    1.018549
     29          6           0       -5.400608   -0.120237   -0.910909
     30          6           0       -4.412400    3.979553   -0.570193
     31          6           0       -1.249468    4.122722   -0.387595
     32          6           0        6.740261   -3.623911   -0.794791
     33          6           0        5.852321   -0.674847   -0.133054
     34          6           0        0.189350    4.034635   -0.258582
     35          6           0        1.123924    5.135076   -0.476676
     36          6           0        2.389184    4.627711   -0.360035
     37          6           0       -3.185165   -3.906647    0.026075
     38          6           0        5.537925    0.470623    0.698858
     39          6           0       -6.672508   -0.686291   -0.776605
     40          6           0        3.788481    5.156387   -0.215552
     41          6           0        2.287286    3.194788   -0.046836
     42          6           0        0.794569    6.578255   -0.789040
     43          6           0        4.309988    5.407863    1.240283
     44          1           0        0.416887    0.577395    0.213537
     45          1           0       -2.858925   -1.042105    1.229346
     46          1           0       -2.433600   -2.766328    2.458741
     47          1           0       -1.327014   -3.914433    2.986132
     48          1           0        5.598049   -2.610891   -2.367628
     49          1           0       -5.129914    0.425021    1.348100
     50          1           0       -5.795562    1.801085    0.423945
     51          1           0        2.826459    0.144661    0.412747
     52          1           0       -0.494806    1.780992    0.463784
     53          1           0        1.365792   -4.695468    0.945076
     54          1           0        2.452312   -3.686512    1.902322
     55          1           0        0.932842   -4.095696    2.551054
     56          1           0        2.098750   -3.600312   -0.605710
     57          1           0       -1.411418   -4.787794    0.353275
     58          1           0       -2.617800   -5.119184    1.535795
     59          1           0       -4.687018   -1.009066   -0.659420
     60          1           0       -5.139643    0.359554   -1.861573
     61          1           0       -4.381654    5.016317    0.287944
     62          1           0       -5.327663    3.585344   -0.378876
     63          1           0       -4.423315    4.334411   -1.611386
     64          1           0       -1.739741    5.088911   -0.439490
     65          1           0        7.645959   -3.161424   -1.014479
     66          1           0        6.746145   -4.731082   -1.281917
     67          1           0        6.758868   -3.969621    0.170817
     68          1           0        7.013722   -0.871391   -0.460625
     69          1           0        4.788919    1.133162    0.083395
     70          1           0        6.543314    1.153185    0.710096
     71          1           0        5.124037    0.126302    1.612917
     72          1           0        3.826381    6.259895   -0.709495
     73          1           0        4.240890    4.361388   -0.882648
     74          1           0        0.191772    6.546179   -1.721055
     75          1           0        1.581774    7.256076   -1.153129
     76          1           0        0.192192    7.067155    0.027258
     77          1           0        3.734117    5.964644    1.969403
     78          1           0        5.392560    5.871397    1.151427
     79          1           0        4.607245    4.397343    1.822349
     80          1           0       -3.819224   -4.579035   -1.872243
     81          1           0       -7.816092   -1.868773   -1.573161
 ---------------------------------------------------------------------

 SCF Done:  E(RB3LYP) =  -1949.05083044     A.U. after   16 cycles

 Excitation energies and oscillator strengths:

 Excited State   1:      Singlet-A      1.3079 eV  947.97 nm  f=0.1597  <S**2>=0.000
     156 ->157         0.71069
     156 <-157        -0.12388
 This state for optimization and/or second-order correction.
 Total Energy, E(TD-HF/TD-DFT) =  -1949.00276627
 Copying the excited state density for this state as the 1-particle RhoCI density.

 The electronic state is 1-A.
 Alpha  occ. eigenvalues --  -19.18723 -19.18251 -19.12431 -19.12151 -19.11877
 Alpha  occ. eigenvalues --  -19.11373 -14.37548 -14.35915 -14.35789 -14.29042
 Alpha  occ. eigenvalues --  -10.32403 -10.31426 -10.29350 -10.27883 -10.23289
 Alpha  occ. eigenvalues --  -10.23185 -10.23001 -10.22656 -10.22014 -10.21986
 Alpha  occ. eigenvalues --  -10.21500 -10.21239 -10.21223 -10.20990 -10.20959
 Alpha  occ. eigenvalues --  -10.20943 -10.20820 -10.20661 -10.20555 -10.20459
 Alpha  occ. eigenvalues --  -10.20258 -10.20198 -10.19786 -10.19769 -10.19706
 Alpha  occ. eigenvalues --  -10.19324 -10.18786 -10.18669 -10.18592 -10.18427
 Alpha  occ. eigenvalues --  -10.18122 -10.18117 -10.17990  -1.11612  -1.09541
 Alpha  occ. eigenvalues --   -1.05265  -1.01711  -1.00125  -0.99562  -0.98069
 Alpha  occ. eigenvalues --   -0.97330  -0.93508  -0.92166  -0.81909  -0.81658
 Alpha  occ. eigenvalues --   -0.80683  -0.80210  -0.79506  -0.78432  -0.77888
 Alpha  occ. eigenvalues --   -0.77190  -0.76130  -0.74964  -0.73516  -0.71840
 Alpha  occ. eigenvalues --   -0.70813  -0.69637  -0.69505  -0.69015  -0.68044
 Alpha  occ. eigenvalues --   -0.67561  -0.65314  -0.63548  -0.62893  -0.62075
 Alpha  occ. eigenvalues --   -0.60786  -0.59577  -0.58936  -0.57733  -0.56655
 Alpha  occ. eigenvalues --   -0.55739  -0.55332  -0.54406  -0.53578  -0.51735
 Alpha  occ. eigenvalues --   -0.51316  -0.51174  -0.50563  -0.50455  -0.49956
 Alpha  occ. eigenvalues --   -0.49250  -0.48844  -0.47953  -0.47746  -0.47342
 Alpha  occ. eigenvalues --   -0.46706  -0.46422  -0.45964  -0.45259  -0.44960
 Alpha  occ. eigenvalues --   -0.44662  -0.44236  -0.43999  -0.43927  -0.43425
 Alpha  occ. eigenvalues --   -0.43351  -0.42961  -0.42425  -0.42005  -0.41721
 Alpha  occ. eigenvalues --   -0.41395  -0.41055  -0.40781  -0.40712  -0.40579
 Alpha  occ. eigenvalues --   -0.40444  -0.40297  -0.39938  -0.39672  -0.39561
 Alpha  occ. eigenvalues --   -0.39360  -0.38852  -0.38748  -0.38420  -0.37948
 Alpha  occ. eigenvalues --   -0.37731  -0.37615  -0.37182  -0.36990  -0.36789
 Alpha  occ. eigenvalues --   -0.36324  -0.36026  -0.35859  -0.35467  -0.34705
 Alpha  occ. eigenvalues --   -0.33671  -0.33537  -0.33297  -0.32574  -0.32543
 Alpha  occ. eigenvalues --   -0.32068  -0.31890  -0.30715  -0.29335  -0.28307
 Alpha  occ. eigenvalues --   -0.27774  -0.27079  -0.26550  -0.26074  -0.25670
 Alpha  occ. eigenvalues --   -0.25443  -0.24734  -0.24073  -0.23128  -0.20749
 Alpha  occ. eigenvalues --   -0.16368
 Alpha virt. eigenvalues --   -0.10747  -0.06228  -0.03835  -0.00575   0.00270
 Alpha virt. eigenvalues --    0.00697   0.02070   0.02975   0.03096   0.03484
 Alpha virt. eigenvalues --    0.04306   0.04836   0.05016   0.05515   0.06017

 Mulliken charges:
               1
     1  O   -0.154986
     2  O   -0.201859
     3  O   -0.169885
     4  O   -0.197879
     5  O   -0.297427
     6  O   -0.256094
     7  N   -0.050636
     8  N   -0.064563
     9  N   -0.241223
    10  N   -0.328506
    11  C   -0.079018
    12  C   -0.089130
    13  C   -0.213161
    14  C    0.045788
    15  C   -0.091493
    16  C    0.109609
    17  C    0.091189
    18  C   -0.146353
    19  C    0.143485
    20  C   -0.056716
    21  C    0.158936
    22  C    0.112766
    23  C   -0.065819
    24  C    0.045835
    25  C   -0.136391
    26  C    0.074794
    27  C    0.110366
    28  C    0.050681
    29  C    0.030832
    30  C    0.084776
    31  C   -0.117130
    32  C    0.100122
    33  C   -0.176596
    34  C    0.069453
    35  C   -0.093990
    36  C   -0.168502
    37  C    0.089370
    38  C    0.037070
    39  C    0.141878
    40  C    0.038917
    41  C    0.209944
    42  C    0.086981
    43  C   -0.042040
    44  H    0.190541
    45  H   -0.110727
    46  H   -0.022517
    47  H    0.014104
    48  H    0.049660
    49  H    0.038238
    50  H    0.024979
    51  H    0.037661
    52  H    0.114688
    53  H    0.009386
    54  H    0.028079
    55  H    0.007144
    56  H    0.195955
    57  H    0.023096
    58  H    0.007851
    59  H    0.100345
    60  H    0.043530
    61  H    0.037623
    62  H   -0.031095
    63  H    0.035163
    64  H   -0.018147
    65  H    0.010568
    66  H    0.025841
    67  H   -0.009148
    68  H    0.025042
    69  H    0.091657
    70  H    0.021451
    71  H    0.037739
    72  H    0.011634
    73  H    0.042339
    74  H    0.020894
    75  H    0.014393
    76  H    0.038116
    77  H    0.027183
    78  H    0.024179
    79  H    0.040926
    80  H    0.233034
    81  H    0.175200
 Sum of Mulliken charges =  -0.00000

 Dipole moment (field-independent basis, Debye):
    X=             -1.1617    Y=              0.4156    Z=             -1.8225  Tot=              2.2008
 Quadrupole moment (field-independent basis, Debye-Ang):
   XX=           -256.5249   YY=           -231.1286   ZZ=           -251.2847
   XY=             15.2051   XZ=             15.5548   YZ=             -8.3667

 Normal termination of Gaussian 16 at Sun Jun 30 10:07:10 2019.
