 Gaussian 16, Revision A.03,
 Gaussian 16:  ES64L-G16RevA.03 25-Dec-2016

 --------------------------
 # td=(NStates=1) B3LYP/SVP
 --------------------------

 --
 TD
 --
 Symbolic Z-matrix:
 Charge =  0 Multiplicity = 1

                         Standard orientation:
 ---------------------------------------------------------------------
 Center     Atomic      Atomic             Coordinates (Angstroms)
 Number     Number       Type             X           Y           Z
 ---------------------------------------------------------------------
      1          8           0        4.262930   -4.919227   -1.745278
      2          8           0       -2.681979   -4.876849   -1.102184
      3          8           0       -6.885103   -1.686020   -1.784418
      4          8           0       -3.712909   -3.202973   -0.009502
      5          8           0       -7.628099   -0.518987   -0.010455
      6          8           0        3.088649    2.332492    0.404174
      7          7           0        0.253752   -0.434194    0.795314
      8          7           0       -1.621450    1.862001    0.522436
      9          7           0        3.258123   -3.070580   -0.699541
     10          7           0        0.739277    2.917004    0.094699
     11          6           0       -0.648002   -2.357386    1.372411
     12          6           0       -1.001657   -1.076084    0.995143
     13          6           0        0.719818   -2.536820    1.107120
     14          6           0        1.277680   -1.359098    0.767000
     15          6           0       -3.790641    1.500253    0.243780
     16          6           0       -2.617181    0.931631    0.579238
     17          6           0       -2.257640   -0.428370    1.005191
     18          6           0       -3.563135    2.814013   -0.091291
     19          6           0       -1.568362   -3.437016    2.013712
     20          6           0        5.527850   -2.731911   -1.326070
     21          6           0        3.459186   -1.853764   -0.209387
     22          6           0       -2.122929    3.048842    0.038892
     23          6           0        4.924187   -1.609272   -0.442438
     24          6           0       -5.114564    0.794376    0.235296
     25          6           0        2.543463   -0.958350    0.343899
     26          6           0        1.531852   -3.745307    1.518548
     27          6           0        4.330774   -3.780992   -1.272558
     28          6           0       -2.052235   -4.457601    1.079958
     29          6           0       -5.331851   -0.274563   -0.897543
     30          6           0       -4.573981    3.916766   -0.521812
     31          6           0       -1.291592    4.068138   -0.273514
     32          6           0        6.827436   -3.347276   -0.832532
     33          6           0        5.764260   -0.572520   -0.075279
     34          6           0        0.182159    4.020874   -0.196094
     35          6           0        1.058644    5.148514   -0.523575
     36          6           0        2.290965    4.565928   -0.325677
     37          6           0       -2.853204   -4.080631   -0.034611
     38          6           0        5.506216    0.550467    0.722724
     39          6           0       -6.768876   -0.687477   -0.879051
     40          6           0        3.682670    5.366977   -0.386685
     41          6           0        2.183120    3.078206    0.103858
     42          6           0        0.649414    6.488638   -0.807892
     43          6           0        4.283038    5.568622    0.999502
     44          1           0        0.335919    0.604713    0.491049
     45          1           0       -3.194911   -1.098999    1.202106
     46          1           0       -2.579127   -2.925484    2.387686
     47          1           0       -1.234695   -3.909367    2.886981
     48          1           0        5.603315   -2.306883   -2.453802
     49          1           0       -5.350150    0.329847    1.303181
     50          1           0       -6.087593    1.451569    0.216304
     51          1           0        2.720129    0.177341    0.546711
     52          1           0       -0.609754    1.945051    0.653322
     53          1           0        1.621175   -4.536863    0.722348
     54          1           0        2.761567   -3.610904    1.661088
     55          1           0        1.011310   -4.456100    2.346929
     56          1           0        2.242391   -3.377437   -0.734719
     57          1           0       -0.981167   -4.976496    0.816251
     58          1           0       -2.756119   -5.238595    1.587352
     59          1           0       -4.850360   -1.152311   -0.686761
     60          1           0       -4.890632    0.244470   -1.786856
     61          1           0       -4.385340    4.894301   -0.080077
     62          1           0       -5.564920    3.581306   -0.456335
     63          1           0       -4.251947    4.194957   -1.618818
     64          1           0       -1.829025    5.033369   -0.365513
     65          1           0        7.620378   -2.918334   -0.925713
     66          1           0        6.929797   -4.420310   -1.099762
     67          1           0        6.602883   -3.431741    0.292969
     68          1           0        6.621627   -0.376201   -0.643019
     69          1           0        4.901155    1.323710    0.143354
     70          1           0        6.275775    1.476165    0.946306
     71          1           0        4.910793    0.521269    1.644785
     72          1           0        3.592497    6.312555   -1.005761
     73          1           0        4.157070    4.717165   -1.139577
     74          1           0       -0.280966    6.446493   -1.508702
     75          1           0        1.449592    7.145291   -1.044970
     76          1           0        0.101846    6.783057    0.132129
     77          1           0        3.493384    5.894529    1.546630
     78          1           0        5.123656    6.345974    0.845128
     79          1           0        4.673848    4.541138    1.433457
     80          1           0       -3.274199   -4.320437   -1.774625
     81          1           0       -7.706328   -2.261759   -1.671678
 ---------------------------------------------------------------------

 SCF Done:  E(RB3LYP) =  -1949.06517393     A.U. after   17 cycles

 Excitation energies and oscillator strengths:

 Excited State   1:      Singlet-A      1.5857 eV  781.87 nm  f=0.2844  <S**2>=0.000
     156 ->157         0.70916
     156 <-157        -0.13863
 This state for optimization and/or second-order correction.
 Total Energy, E(TD-HF/TD-DFT) =  -1949.00689904
 Copying the excited state density for this state as the 1-particle RhoCI density.

 The electronic state is 1-A.
 Alpha  occ. eigenvalues --  -19.20068 -19.17709 -19.14030 -19.13291 -19.12684
 Alpha  occ. eigenvalues --  -19.12521 -14.38415 -14.36873 -14.34724 -14.29790
 Alpha  occ. eigenvalues --  -10.33083 -10.32120 -10.30778 -10.29025 -10.25212
 Alpha  occ. eigenvalues --  -10.23270 -10.23262 -10.22973 -10.22663 -10.22621
 Alpha  occ. eigenvalues --  -10.22410 -10.22365 -10.22174 -10.22090 -10.21301
 Alpha  occ. eigenvalues --  -10.20809 -10.20364 -10.20315 -10.20268 -10.20115
 Alpha  occ. eigenvalues --  -10.20035 -10.19986 -10.19913 -10.19622 -10.19499
 Alpha  occ. eigenvalues --  -10.19332 -10.19314 -10.19164 -10.19105 -10.18734
 Alpha  occ. eigenvalues --  -10.18598 -10.18165 -10.17610  -1.10904  -1.08364
 Alpha  occ. eigenvalues --   -1.03900  -1.03433  -1.00989  -0.99097  -0.98516
 Alpha  occ. eigenvalues --   -0.97528  -0.96772  -0.93858  -0.82984  -0.82093
 Alpha  occ. eigenvalues --   -0.81520  -0.80896  -0.80045  -0.78729  -0.78439
 Alpha  occ. eigenvalues --   -0.77437  -0.76831  -0.75833  -0.74494  -0.72090
 Alpha  occ. eigenvalues --   -0.70967  -0.69815  -0.69362  -0.68594  -0.68216
 Alpha  occ. eigenvalues --   -0.67427  -0.65932  -0.64059  -0.62903  -0.61509
 Alpha  occ. eigenvalues --   -0.60190  -0.59915  -0.58739  -0.58123  -0.56466
 Alpha  occ. eigenvalues --   -0.56047  -0.55306  -0.54954  -0.54106  -0.52929
 Alpha  occ. eigenvalues --   -0.52756  -0.52070  -0.51138  -0.50425  -0.50047
 Alpha  occ. eigenvalues --   -0.49980  -0.49190  -0.48897  -0.48180  -0.47492
 Alpha  occ. eigenvalues --   -0.47178  -0.47049  -0.46256  -0.45922  -0.45140
 Alpha  occ. eigenvalues --   -0.44888  -0.44655  -0.44634  -0.44330  -0.43824
 Alpha  occ. eigenvalues --   -0.43521  -0.43384  -0.42737  -0.42710  -0.42605
 Alpha  occ. eigenvalues --   -0.41815  -0.41661  -0.41357  -0.40987  -0.40877
 Alpha  occ. eigenvalues --   -0.40712  -0.40632  -0.40422  -0.40095  -0.39973
 Alpha  occ. eigenvalues --   -0.39421  -0.39100  -0.38920  -0.38342  -0.38107
 Alpha  occ. eigenvalues --   -0.38045  -0.37976  -0.37593  -0.37316  -0.36856
 Alpha  occ. eigenvalues --   -0.36772  -0.36608  -0.36091  -0.35175  -0.34552
 Alpha  occ. eigenvalues --   -0.33884  -0.33552  -0.33294  -0.33084  -0.32789
 Alpha  occ. eigenvalues --   -0.32627  -0.31588  -0.31456  -0.30295  -0.30182
 Alpha  occ. eigenvalues --   -0.29649  -0.28184  -0.27005  -0.26904  -0.25431
 Alpha  occ. eigenvalues --   -0.25077  -0.24587  -0.24273  -0.23385  -0.21328
 Alpha  occ. eigenvalues --   -0.17060
 Alpha virt. eigenvalues --   -0.10728  -0.06532  -0.04572  -0.02034  -0.01913
 Alpha virt. eigenvalues --   -0.00920   0.02455   0.03026   0.03124   0.04113
 Alpha virt. eigenvalues --    0.04551   0.04670   0.05024   0.05462   0.05838

 Mulliken charges:
               1
     1  O   -0.214266
     2  O   -0.199649
     3  O   -0.220454
     4  O   -0.249946
     5  O   -0.247078
     6  O   -0.189424
     7  N   -0.165992
     8  N   -0.083408
     9  N   -0.102544
    10  N   -0.313392
    11  C   -0.072076
    12  C    0.081244
    13  C   -0.167217
    14  C    0.109852
    15  C   -0.018641
    16  C    0.059269
    17  C   -0.078291
    18  C   -0.134003
    19  C    0.124561
    20  C   -0.129007
    21  C    0.096666
    22  C    0.040246
    23  C   -0.073260
    24  C   -0.050723
    25  C   -0.109419
    26  C   -0.031385
    27  C    0.166230
    28  C   -0.037430
    29  C    0.047117
    30  C    0.127009
    31  C   -0.113595
    32  C    0.168333
    33  C   -0.031626
    34  C    0.047871
    35  C   -0.081604
    36  C   -0.264112
    37  C    0.137135
    38  C   -0.029328
    39  C    0.161003
    40  C    0.031691
    41  C    0.222059
    42  C    0.135637
    43  C    0.026116
    44  H    0.157265
    45  H    0.043432
    46  H    0.012966
    47  H   -0.003500
    48  H    0.066837
    49  H    0.032502
    50  H    0.032189
    51  H    0.052216
    52  H    0.127576
    53  H    0.013904
    54  H    0.067073
    55  H    0.035000
    56  H    0.157779
    57  H    0.046821
    58  H    0.067580
    59  H    0.026050
    60  H    0.049588
    61  H    0.014972
    62  H    0.007925
    63  H    0.022084
    64  H   -0.032713
    65  H   -0.066799
    66  H    0.029389
    67  H    0.005657
    68  H   -0.015408
    69  H    0.064674
    70  H    0.011887
    71  H    0.030157
    72  H   -0.004903
    73  H    0.008066
    74  H    0.032082
    75  H    0.014475
    76  H    0.026850
    77  H    0.000411
    78  H    0.029844
    79  H    0.049039
    80  H    0.213841
    81  H    0.199022
 Sum of Mulliken charges =  -0.00000

 Dipole moment (field-independent basis, Debye):
    X=             -0.8601    Y=              1.3259    Z=             -0.7996  Tot=              1.7712
 Quadrupole moment (field-independent basis, Debye-Ang):
   XX=           -259.0865   YY=           -238.7574   ZZ=           -255.6295
   XY=             19.8290   XZ=             10.1297   YZ=            -12.6419

 Normal termination of Gaussian 16 at Sat Jun 29 11:45:38 2019.
