 Gaussian 16, Revision A.03,
 Gaussian 16:  ES64L-G16RevA.03 25-Dec-2016

 --------------------------
 # td=(NStates=1) B3LYP/SVP
 --------------------------

 --
 TD
 --
 Symbolic Z-matrix:
 Charge =  0 Multiplicity = 1

                         Standard orientation:
 ---------------------------------------------------------------------
 Center     Atomic      Atomic             Coordinates (Angstroms)
 Number     Number       Type             X           Y           Z
 ---------------------------------------------------------------------
      1          8           0        4.514089   -4.630035   -1.938143
      2          8           0       -2.494145   -4.817263   -1.125204
      3          8           0       -7.132440   -1.976380   -1.852366
      4          8           0       -3.637761   -3.341484    0.125220
      5          8           0       -7.646837   -0.814870    0.072331
      6          8           0        2.795318    2.519453    0.349185
      7          7           0        0.317606   -0.521391    0.444803
      8          7           0       -1.677342    1.660530    0.355800
      9          7           0        3.549431   -2.918115   -0.747368
     10          7           0        0.544868    2.915345    0.138484
     11          6           0       -0.448487   -2.371258    1.501728
     12          6           0       -0.850172   -1.127029    0.950192
     13          6           0        0.948219   -2.526270    1.268970
     14          6           0        1.454000   -1.334683    0.641400
     15          6           0       -3.865312    1.237603    0.275400
     16          6           0       -2.560626    0.751967    0.429116
     17          6           0       -2.140455   -0.653048    0.799533
     18          6           0       -3.733763    2.612090   -0.020529
     19          6           0       -1.376638   -3.335426    2.027326
     20          6           0        5.750241   -2.502366   -1.350629
     21          6           0        3.744128   -1.689665   -0.256549
     22          6           0       -2.286430    2.844245   -0.088545
     23          6           0        5.203634   -1.388381   -0.520556
     24          6           0       -5.125272    0.404894    0.332175
     25          6           0        2.738661   -0.915095    0.312577
     26          6           0        1.762370   -3.611345    1.819749
     27          6           0        4.600911   -3.550620   -1.379229
     28          6           0       -1.829715   -4.561355    1.085927
     29          6           0       -5.417721   -0.370245   -0.841597
     30          6           0       -4.797248    3.666572   -0.346055
     31          6           0       -1.549212    4.005778   -0.308076
     32          6           0        7.131012   -3.087927   -0.864901
     33          6           0        5.917352   -0.324510    0.038978
     34          6           0       -0.164841    3.998291   -0.197667
     35          6           0        0.766436    5.198584   -0.532474
     36          6           0        1.989707    4.764354   -0.246997
     37          6           0       -2.765402   -4.081163   -0.006140
     38          6           0        5.513470    0.831633    0.789982
     39          6           0       -6.863585   -1.080942   -0.717906
     40          6           0        3.223598    5.480811   -0.190596
     41          6           0        1.898220    3.235824    0.124027
     42          6           0        0.282613    6.554818   -1.000338
     43          6           0        3.847393    5.742787    1.083853
     44          1           0        0.438290    0.471980   -0.071315
     45          1           0       -2.955212   -1.469850    0.866696
     46          1           0       -2.181067   -2.645024    2.284607
     47          1           0       -0.982272   -3.636692    3.083205
     48          1           0        5.967543   -2.200326   -2.506806
     49          1           0       -5.030166   -0.187051    1.118934
     50          1           0       -5.907053    1.258792    0.492563
     51          1           0        2.761166    0.242755    0.390613
     52          1           0       -0.687795    1.846000    0.477563
     53          1           0        1.696581   -4.552169    1.305164
     54          1           0        2.932733   -3.324939    1.915870
     55          1           0        1.716055   -3.795323    3.025540
     56          1           0        2.755683   -3.518062   -0.740635
     57          1           0       -0.906640   -4.966697    0.752568
     58          1           0       -2.347443   -5.318026    1.787218
     59          1           0       -4.870263   -1.278974   -0.688080
     60          1           0       -5.417351   -0.058619   -1.823896
     61          1           0       -4.389632    4.657395    0.034820
     62          1           0       -5.740648    3.420118   -0.059521
     63          1           0       -4.657980    3.986646   -1.524615
     64          1           0       -1.983407    4.950212   -0.740044
     65          1           0        7.773713   -2.345146   -0.852609
     66          1           0        7.307743   -3.935005   -1.429830
     67          1           0        7.069547   -3.588707    0.074227
     68          1           0        6.947258   -0.251158   -0.407724
     69          1           0        4.767118    1.566037    0.353666
     70          1           0        6.319207    1.187128    1.428573
     71          1           0        4.665627    0.443159    1.432527
     72          1           0        3.091840    6.388178   -0.725765
     73          1           0        3.913000    4.759476   -0.649123
     74          1           0       -0.141596    6.295827   -2.092257
     75          1           0        1.086264    7.317532   -1.191501
     76          1           0       -0.289666    7.238479   -0.427988
     77          1           0        3.423691    6.591947    1.850737
     78          1           0        4.889166    6.180233    1.104357
     79          1           0        3.974721    4.763618    1.649755
     80          1           0       -3.206193   -4.821409   -1.694208
     81          1           0       -8.112809   -2.055818   -1.866376
 ---------------------------------------------------------------------

 SCF Done:  E(RB3LYP) =  -1949.10157534     A.U. after   17 cycles

 Excitation energies and oscillator strengths:

 Excited State   1:      Singlet-A      1.7369 eV  713.81 nm  f=0.4286  <S**2>=0.000
     156 ->157         0.71567
     156 <-157        -0.15407
 This state for optimization and/or second-order correction.
 Total Energy, E(TD-HF/TD-DFT) =  -1949.03774395
 Copying the excited state density for this state as the 1-particle RhoCI density.

 The electronic state is 1-A.
 Alpha  occ. eigenvalues --  -19.18579 -19.16133 -19.15645 -19.14300 -19.12107
 Alpha  occ. eigenvalues --  -19.11253 -14.37815 -14.37733 -14.34810 -14.28655
 Alpha  occ. eigenvalues --  -10.33793 -10.31684 -10.29874 -10.26694 -10.25649
 Alpha  occ. eigenvalues --  -10.23793 -10.23006 -10.22872 -10.22795 -10.22277
 Alpha  occ. eigenvalues --  -10.22187 -10.22156 -10.21697 -10.21066 -10.20993
 Alpha  occ. eigenvalues --  -10.20906 -10.20698 -10.20490 -10.20239 -10.19917
 Alpha  occ. eigenvalues --  -10.19553 -10.19526 -10.19477 -10.19410 -10.19395
 Alpha  occ. eigenvalues --  -10.19340 -10.19110 -10.18614 -10.18331 -10.18156
 Alpha  occ. eigenvalues --  -10.17637 -10.17578 -10.17443  -1.13018  -1.09905
 Alpha  occ. eigenvalues --   -1.05082  -1.04773  -1.04601  -0.99653  -0.99615
 Alpha  occ. eigenvalues --   -0.97323  -0.95969  -0.91503  -0.82633  -0.82325
 Alpha  occ. eigenvalues --   -0.81788  -0.81095  -0.80630  -0.78828  -0.77387
 Alpha  occ. eigenvalues --   -0.77263  -0.76695  -0.75437  -0.74951  -0.72182
 Alpha  occ. eigenvalues --   -0.71062  -0.70966  -0.68797  -0.68178  -0.67793
 Alpha  occ. eigenvalues --   -0.67037  -0.66159  -0.64831  -0.62753  -0.61970
 Alpha  occ. eigenvalues --   -0.60832  -0.59613  -0.58042  -0.57550  -0.56274
 Alpha  occ. eigenvalues --   -0.55596  -0.55105  -0.54317  -0.54083  -0.53448
 Alpha  occ. eigenvalues --   -0.52571  -0.52275  -0.51703  -0.50631  -0.50436
 Alpha  occ. eigenvalues --   -0.49518  -0.49384  -0.49054  -0.48426  -0.47720
 Alpha  occ. eigenvalues --   -0.47215  -0.47035  -0.46437  -0.46093  -0.45989
 Alpha  occ. eigenvalues --   -0.45276  -0.45048  -0.44788  -0.44283  -0.44233
 Alpha  occ. eigenvalues --   -0.43876  -0.43629  -0.43217  -0.42978  -0.42708
 Alpha  occ. eigenvalues --   -0.42413  -0.42034  -0.41875  -0.41682  -0.41237
 Alpha  occ. eigenvalues --   -0.40868  -0.40481  -0.40411  -0.40241  -0.39971
 Alpha  occ. eigenvalues --   -0.39796  -0.39594  -0.39279  -0.38468  -0.38217
 Alpha  occ. eigenvalues --   -0.38079  -0.37925  -0.37396  -0.37249  -0.36640
 Alpha  occ. eigenvalues --   -0.36310  -0.36005  -0.35455  -0.35420  -0.35165
 Alpha  occ. eigenvalues --   -0.34972  -0.34125  -0.33985  -0.33581  -0.33348
 Alpha  occ. eigenvalues --   -0.32273  -0.31989  -0.31188  -0.31057  -0.29167
 Alpha  occ. eigenvalues --   -0.28270  -0.27948  -0.27140  -0.26254  -0.24913
 Alpha  occ. eigenvalues --   -0.24760  -0.24571  -0.24297  -0.23201  -0.21695
 Alpha  occ. eigenvalues --   -0.16905
 Alpha virt. eigenvalues --   -0.10387  -0.05295  -0.03966  -0.01623  -0.01419
 Alpha virt. eigenvalues --    0.01229   0.03010   0.03398   0.03827   0.04036
 Alpha virt. eigenvalues --    0.04977   0.05229   0.05980   0.06346   0.06592

 Mulliken charges:
               1
     1  O   -0.210372
     2  O   -0.163739
     3  O   -0.292872
     4  O   -0.141441
     5  O   -0.130811
     6  O   -0.161220
     7  N   -0.183161
     8  N    0.008336
     9  N   -0.055576
    10  N   -0.323330
    11  C   -0.117200
    12  C    0.127889
    13  C   -0.109414
    14  C    0.089395
    15  C   -0.155361
    16  C    0.041807
    17  C   -0.143822
    18  C   -0.135114
    19  C    0.034717
    20  C   -0.147211
    21  C    0.128691
    22  C    0.072464
    23  C   -0.031527
    24  C    0.196459
    25  C   -0.178015
    26  C   -0.041789
    27  C    0.116526
    28  C    0.071745
    29  C    0.070965
    30  C    0.106039
    31  C   -0.126461
    32  C    0.168812
    33  C   -0.138482
    34  C    0.039129
    35  C   -0.062488
    36  C   -0.205460
    37  C    0.115752
    38  C    0.067286
    39  C    0.104288
    40  C    0.176514
    41  C    0.150543
    42  C    0.049674
    43  C   -0.069197
    44  H    0.185586
    45  H    0.055788
    46  H    0.001019
    47  H    0.019296
    48  H    0.068046
    49  H   -0.035403
    50  H    0.016707
    51  H    0.056233
    52  H    0.116059
    53  H    0.029547
    54  H    0.035690
    55  H    0.042054
    56  H    0.116799
    57  H    0.015925
    58  H    0.064399
    59  H    0.021506
    60  H    0.012457
    61  H    0.022062
    62  H    0.004194
    63  H    0.032354
    64  H   -0.013108
    65  H   -0.013312
    66  H    0.002633
    67  H   -0.010943
    68  H    0.004633
    69  H    0.083438
    70  H    0.020565
    71  H    0.016925
    72  H   -0.024188
    73  H    0.002270
    74  H    0.043613
    75  H   -0.000844
    76  H    0.025253
    77  H    0.007455
    78  H    0.006970
    79  H    0.027202
    80  H    0.150425
    81  H    0.177730
 Sum of Mulliken charges =  -0.00000

 Dipole moment (field-independent basis, Debye):
    X=             -0.9723    Y=             -0.2589    Z=             -0.4413  Tot=              1.0987
 Quadrupole moment (field-independent basis, Debye-Ang):
   XX=           -245.5299   YY=           -237.7866   ZZ=           -256.3472
   XY=             11.3460   XZ=             14.6427   YZ=            -14.8623

 Normal termination of Gaussian 16 at Fri Jun 28 08:05:23 2019.
