 Gaussian 16, Revision A.03,
 Gaussian 16:  ES64L-G16RevA.03 25-Dec-2016

 --------------------------
 # td=(NStates=1) B3LYP/SVP
 --------------------------

 --
 TD
 --
 Symbolic Z-matrix:
 Charge =  0 Multiplicity = 1

                         Standard orientation:
 ---------------------------------------------------------------------
 Center     Atomic      Atomic             Coordinates (Angstroms)
 Number     Number       Type             X           Y           Z
 ---------------------------------------------------------------------
      1          8           0        4.120637   -4.938233   -1.902250
      2          8           0       -3.081549   -5.006828   -0.896144
      3          8           0       -6.945901   -1.541719   -1.766548
      4          8           0       -3.910555   -3.307540    0.272652
      5          8           0       -7.578943   -0.396305    0.030882
      6          8           0        3.086889    2.347874    0.379567
      7          7           0        0.181999   -0.578524    0.573866
      8          7           0       -1.489268    1.843979    0.234347
      9          7           0        3.225330   -3.150260   -0.778862
     10          7           0        0.841441    2.900544    0.140270
     11          6           0       -0.675803   -2.293122    1.458493
     12          6           0       -0.986617   -1.025658    0.912074
     13          6           0        0.722183   -2.492896    1.264819
     14          6           0        1.258980   -1.308455    0.582222
     15          6           0       -3.690414    1.621808    0.372421
     16          6           0       -2.506021    0.884666    0.452538
     17          6           0       -2.267038   -0.487342    0.716186
     18          6           0       -3.503700    2.853819   -0.176971
     19          6           0       -1.636181   -3.336728    1.961498
     20          6           0        5.506519   -2.890670   -1.348220
     21          6           0        3.556647   -1.890662   -0.349440
     22          6           0       -2.030727    2.968582   -0.163657
     23          6           0        5.007579   -1.790923   -0.476067
     24          6           0       -5.088062    0.875609    0.300733
     25          6           0        2.652505   -0.989372    0.293613
     26          6           0        1.542130   -3.618143    1.904112
     27          6           0        4.241414   -3.718989   -1.505197
     28          6           0       -2.054278   -4.483724    1.095770
     29          6           0       -5.290526   -0.044864   -0.800773
     30          6           0       -4.484137    3.951188   -0.691222
     31          6           0       -1.262662    4.154583   -0.438811
     32          6           0        6.725520   -3.731457   -0.777710
     33          6           0        5.808893   -0.704686   -0.210850
     34          6           0        0.111523    4.038653   -0.236563
     35          6           0        1.039811    5.157407   -0.463000
     36          6           0        2.348914    4.663693   -0.161762
     37          6           0       -3.057026   -4.167602    0.071130
     38          6           0        5.509814    0.538615    0.704153
     39          6           0       -6.724815   -0.625144   -0.816149
     40          6           0        3.727818    5.381323   -0.155575
     41          6           0        2.178673    3.241476    0.204646
     42          6           0        0.732908    6.557483   -0.855562
     43          6           0        4.344406    5.736748    1.215499
     44          1           0        0.186933    0.277177   -0.219985
     45          1           0       -3.203998   -1.114210    0.705571
     46          1           0       -2.523794   -2.654437    2.327612
     47          1           0       -1.091293   -3.720556    2.807484
     48          1           0        5.858747   -2.645468   -2.369233
     49          1           0       -5.180385    0.384186    1.321060
     50          1           0       -5.883526    1.717404    0.439009
     51          1           0        2.818770    0.097720    0.475378
     52          1           0       -0.405942    1.897226    0.580561
     53          1           0        1.647195   -4.677684    1.116544
     54          1           0        2.508619   -3.337999    2.153654
     55          1           0        0.950873   -4.068246    2.932606
     56          1           0        2.456047   -3.608828   -0.344149
     57          1           0       -1.201698   -4.920994    0.470835
     58          1           0       -2.559229   -5.228496    1.797833
     59          1           0       -4.656898   -1.066594   -0.605723
     60          1           0       -5.138028    0.267268   -1.794410
     61          1           0       -4.880962    4.730155    0.198106
     62          1           0       -5.534159    3.467024   -0.614313
     63          1           0       -4.348629    4.403845   -1.618563
     64          1           0       -1.625473    4.973559   -0.951107
     65          1           0        7.513461   -3.221196   -0.972049
     66          1           0        6.926256   -4.672597   -1.539120
     67          1           0        6.430368   -3.903253    0.329208
     68          1           0        6.994665   -0.838360   -0.222019
     69          1           0        5.228895    1.475405    0.029314
     70          1           0        6.404399    0.736289    1.250385
     71          1           0        4.609608    0.269015    1.411336
     72          1           0        3.741271    6.261328   -0.780174
     73          1           0        4.576420    4.699223   -0.804359
     74          1           0        0.467123    6.579465   -1.881766
     75          1           0        1.720897    7.136384   -0.581085
     76          1           0        0.203924    6.973877   -0.100779
     77          1           0        3.477087    6.341051    1.675724
     78          1           0        5.244542    6.133878    1.237509
     79          1           0        4.608896    4.958137    1.761271
     80          1           0       -3.868339   -4.761664   -1.348506
     81          1           0       -7.863166   -1.858498   -1.700553
 ---------------------------------------------------------------------

 SCF Done:  E(RB3LYP) =  -1949.02324481     A.U. after   19 cycles

 Excitation energies and oscillator strengths:

 Excited State   1:      Singlet-A      1.7746 eV  698.67 nm  f=0.3040  <S**2>=0.000
     156 ->157         0.70540
     156 <-157        -0.10788
 This state for optimization and/or second-order correction.
 Total Energy, E(TD-HF/TD-DFT) =  -1948.95803043
 Copying the excited state density for this state as the 1-particle RhoCI density.

 The electronic state is 1-A.
 Alpha  occ. eigenvalues --  -19.21464 -19.18483 -19.13712 -19.12042 -19.10061
 Alpha  occ. eigenvalues --  -19.09024 -14.39026 -14.37248 -14.35944 -14.28663
 Alpha  occ. eigenvalues --  -10.33262 -10.31990 -10.29145 -10.25759 -10.25150
 Alpha  occ. eigenvalues --  -10.24099 -10.23910 -10.23294 -10.22912 -10.22846
 Alpha  occ. eigenvalues --  -10.22744 -10.22495 -10.22067 -10.21909 -10.21530
 Alpha  occ. eigenvalues --  -10.21342 -10.21101 -10.20885 -10.20755 -10.20686
 Alpha  occ. eigenvalues --  -10.20403 -10.20395 -10.20146 -10.20075 -10.19847
 Alpha  occ. eigenvalues --  -10.19811 -10.19715 -10.19530 -10.19397 -10.18907
 Alpha  occ. eigenvalues --  -10.18870 -10.18631 -10.16117  -1.15344  -1.09869
 Alpha  occ. eigenvalues --   -1.02342  -1.02032  -1.01391  -0.99593  -0.98769
 Alpha  occ. eigenvalues --   -0.97309  -0.94357  -0.89603  -0.82781  -0.82202
 Alpha  occ. eigenvalues --   -0.81892  -0.81346  -0.78578  -0.78417  -0.77849
 Alpha  occ. eigenvalues --   -0.77655  -0.76426  -0.75259  -0.73910  -0.72120
 Alpha  occ. eigenvalues --   -0.71035  -0.70041  -0.69338  -0.68999  -0.68203
 Alpha  occ. eigenvalues --   -0.67413  -0.66062  -0.64530  -0.62729  -0.62384
 Alpha  occ. eigenvalues --   -0.61661  -0.60224  -0.59699  -0.58848  -0.56660
 Alpha  occ. eigenvalues --   -0.56122  -0.55207  -0.54506  -0.53287  -0.52564
 Alpha  occ. eigenvalues --   -0.51869  -0.51741  -0.51601  -0.50772  -0.50475
 Alpha  occ. eigenvalues --   -0.49492  -0.49386  -0.48926  -0.48783  -0.47795
 Alpha  occ. eigenvalues --   -0.47071  -0.46911  -0.46729  -0.46040  -0.45463
 Alpha  occ. eigenvalues --   -0.45367  -0.44907  -0.44442  -0.44265  -0.44024
 Alpha  occ. eigenvalues --   -0.43619  -0.43124  -0.42990  -0.42493  -0.42317
 Alpha  occ. eigenvalues --   -0.42054  -0.41557  -0.41110  -0.41040  -0.40970
 Alpha  occ. eigenvalues --   -0.40867  -0.40031  -0.39847  -0.39400  -0.39306
 Alpha  occ. eigenvalues --   -0.39210  -0.38981  -0.38858  -0.38124  -0.37681
 Alpha  occ. eigenvalues --   -0.37532  -0.37164  -0.36631  -0.36168  -0.35910
 Alpha  occ. eigenvalues --   -0.35518  -0.35419  -0.34868  -0.34315  -0.34197
 Alpha  occ. eigenvalues --   -0.34015  -0.33275  -0.33256  -0.32933  -0.32461
 Alpha  occ. eigenvalues --   -0.32029  -0.31877  -0.31432  -0.29683  -0.29423
 Alpha  occ. eigenvalues --   -0.27644  -0.26591  -0.26237  -0.25692  -0.24961
 Alpha  occ. eigenvalues --   -0.24891  -0.24641  -0.23450  -0.22636  -0.21483
 Alpha  occ. eigenvalues --   -0.18285
 Alpha virt. eigenvalues --   -0.10994  -0.06602  -0.05080  -0.01933  -0.01793
 Alpha virt. eigenvalues --    0.00422   0.01816   0.02448   0.03020   0.03444
 Alpha virt. eigenvalues --    0.04178   0.04294   0.04861   0.05086   0.05440

 Mulliken charges:
               1
     1  O   -0.284788
     2  O   -0.068942
     3  O   -0.177295
     4  O   -0.267819
     5  O   -0.244443
     6  O   -0.281944
     7  N    0.008472
     8  N   -0.137755
     9  N   -0.053576
    10  N   -0.337656
    11  C   -0.151363
    12  C    0.059240
    13  C   -0.146977
    14  C   -0.007910
    15  C   -0.083879
    16  C    0.047995
    17  C   -0.089168
    18  C   -0.100764
    19  C    0.105734
    20  C   -0.087964
    21  C    0.097585
    22  C    0.064956
    23  C   -0.008152
    24  C    0.040775
    25  C   -0.122666
    26  C   -0.047381
    27  C    0.148320
    28  C    0.050725
    29  C    0.017484
    30  C    0.061418
    31  C   -0.089299
    32  C    0.090223
    33  C   -0.156967
    34  C    0.119627
    35  C   -0.181625
    36  C   -0.134393
    37  C    0.075772
    38  C    0.006902
    39  C    0.111693
    40  C   -0.001883
    41  C    0.183255
    42  C    0.183904
    43  C    0.120761
    44  H    0.188787
    45  H    0.048695
    46  H    0.033545
    47  H   -0.014637
    48  H    0.038925
    49  H    0.020767
    50  H    0.026394
    51  H    0.056809
    52  H    0.207302
    53  H    0.044602
    54  H    0.030079
    55  H    0.051944
    56  H    0.116782
    57  H    0.042042
    58  H    0.064152
    59  H    0.079286
    60  H    0.017896
    61  H    0.040119
    62  H    0.008499
    63  H    0.032473
    64  H   -0.047393
    65  H   -0.034458
    66  H    0.044459
    67  H    0.045204
    68  H    0.028565
    69  H    0.085964
    70  H    0.001946
    71  H    0.053748
    72  H   -0.005071
    73  H    0.019367
    74  H    0.037607
    75  H    0.008317
    76  H   -0.008105
    77  H    0.017374
    78  H   -0.035869
    79  H   -0.023108
    80  H    0.162759
    81  H    0.184002
 Sum of Mulliken charges =  -0.00000

 Dipole moment (field-independent basis, Debye):
    X=             -2.5823    Y=              0.6776    Z=             -0.9386  Tot=              2.8299
 Quadrupole moment (field-independent basis, Debye-Ang):
   XX=           -245.8369   YY=           -243.3736   ZZ=           -254.4391
   XY=             17.1755   XZ=             18.7920   YZ=            -14.8696

 Normal termination of Gaussian 16 at Tue Jul  2 13:08:52 2019.
