 Gaussian 16, Revision A.03,
 Gaussian 16:  ES64L-G16RevA.03 25-Dec-2016

 --------------------------
 # td=(NStates=1) B3LYP/SVP
 --------------------------

 --
 TD
 --
 Symbolic Z-matrix:
 Charge =  0 Multiplicity = 1

                         Standard orientation:
 ---------------------------------------------------------------------
 Center     Atomic      Atomic             Coordinates (Angstroms)
 Number     Number       Type             X           Y           Z
 ---------------------------------------------------------------------
      1          8           0        4.394442   -4.919105   -1.615847
      2          8           0       -2.686214   -4.928526   -1.237777
      3          8           0       -6.974229   -1.621096   -1.880349
      4          8           0       -3.514184   -3.207775   -0.134934
      5          8           0       -7.661935   -0.729645    0.041222
      6          8           0        2.956214    2.493340    0.393726
      7          7           0        0.226613   -0.457195    0.402243
      8          7           0       -1.651273    1.810890    0.486793
      9          7           0        3.406158   -3.098565   -0.630882
     10          7           0        0.730623    2.979663    0.078511
     11          6           0       -0.517605   -2.452958    1.398694
     12          6           0       -0.940840   -1.107201    0.915881
     13          6           0        0.788167   -2.556147    1.187754
     14          6           0        1.326016   -1.339207    0.664355
     15          6           0       -3.835605    1.387266    0.352037
     16          6           0       -2.520984    0.866417    0.639292
     17          6           0       -2.149874   -0.476862    0.861711
     18          6           0       -3.634246    2.723844   -0.012953
     19          6           0       -1.530468   -3.300807    2.042834
     20          6           0        5.610079   -2.693001   -1.251112
     21          6           0        3.635560   -1.798094   -0.253022
     22          6           0       -2.231779    2.998463    0.033444
     23          6           0        4.960383   -1.399296   -0.524092
     24          6           0       -5.076780    0.672078    0.471064
     25          6           0        2.621641   -1.010728    0.298268
     26          6           0        1.542392   -3.745407    1.841392
     27          6           0        4.416870   -3.747713   -1.222046
     28          6           0       -2.025794   -4.530446    1.084019
     29          6           0       -5.433007   -0.220637   -0.785252
     30          6           0       -4.627960    3.667969   -0.414880
     31          6           0       -1.402700    4.093355   -0.264726
     32          6           0        6.928051   -3.323349   -0.795642
     33          6           0        5.825501   -0.367024   -0.106464
     34          6           0        0.073002    4.092875   -0.267568
     35          6           0        0.958183    5.238712   -0.540372
     36          6           0        2.161193    4.800128   -0.265365
     37          6           0       -2.805389   -4.130813   -0.153330
     38          6           0        5.328052    0.715593    0.585679
     39          6           0       -6.822327   -0.879011   -0.751858
     40          6           0        3.603850    5.295630   -0.258087
     41          6           0        2.020468    3.231996    0.098244
     42          6           0        0.520402    6.532018   -1.032359
     43          6           0        4.217431    5.564520    1.133051
     44          1           0        0.513671    0.439935   -0.117034
     45          1           0       -2.902651   -1.195105    0.879047
     46          1           0       -2.387376   -2.774495    2.395864
     47          1           0       -1.256283   -3.742406    2.923935
     48          1           0        5.669629   -2.390216   -2.311692
     49          1           0       -5.055284    0.059266    1.278467
     50          1           0       -5.872646    1.365083    0.595467
     51          1           0        2.833839   -0.053933    0.381560
     52          1           0       -0.579581    1.980978    0.491670
     53          1           0        1.625755   -4.576855    0.937151
     54          1           0        2.652693   -3.383546    1.969979
     55          1           0        1.073841   -4.243573    2.757405
     56          1           0        2.430281   -3.532860   -0.913221
     57          1           0       -1.039708   -4.933169    0.788598
     58          1           0       -2.704839   -5.208835    1.761691
     59          1           0       -4.635683   -1.098307   -0.661961
     60          1           0       -5.342482    0.328436   -1.744943
     61          1           0       -4.310029    4.965673   -0.209604
     62          1           0       -5.656845    3.338841    0.156965
     63          1           0       -4.927010    3.823893   -1.578354
     64          1           0       -1.922206    4.968966   -0.382389
     65          1           0        7.823335   -2.572491   -0.860417
     66          1           0        7.039425   -4.063419   -1.616702
     67          1           0        6.902021   -3.636396    0.137700
     68          1           0        6.714339   -0.286435   -0.388791
     69          1           0        4.960000    1.507693   -0.081118
     70          1           0        6.014903    1.216245    1.279287
     71          1           0        4.380927    0.434072    1.317203
     72          1           0        3.798610    5.968679   -1.073035
     73          1           0        4.052305    4.354560   -0.666698
     74          1           0        0.128117    6.368981   -1.908564
     75          1           0        1.339596    7.204403   -1.291131
     76          1           0        0.022560    6.908613   -0.150794
     77          1           0        3.606446    6.633218    1.436933
     78          1           0        5.407704    5.490866    1.132977
     79          1           0        3.820977    4.668159    1.905994
     80          1           0       -3.336960   -4.661544   -1.700193
     81          1           0       -7.870315   -1.827039   -2.007762
 ---------------------------------------------------------------------

 SCF Done:  E(RB3LYP) =  -1949.02151904     A.U. after   17 cycles

 Excitation energies and oscillator strengths:

 Excited State   1:      Singlet-A      1.6091 eV  770.54 nm  f=0.3705  <S**2>=0.000
     156 ->157         0.71888
     156 <-157        -0.15994
 This state for optimization and/or second-order correction.
 Total Energy, E(TD-HF/TD-DFT) =  -1948.96238750
 Copying the excited state density for this state as the 1-particle RhoCI density.

 The electronic state is 1-A.
 Alpha  occ. eigenvalues --  -19.18874 -19.17158 -19.14822 -19.13079 -19.11250
 Alpha  occ. eigenvalues --  -19.09627 -14.38398 -14.38362 -14.34708 -14.28999
 Alpha  occ. eigenvalues --  -10.33563 -10.31727 -10.29238 -10.25622 -10.25279
 Alpha  occ. eigenvalues --  -10.24145 -10.23869 -10.23416 -10.23052 -10.22895
 Alpha  occ. eigenvalues --  -10.22729 -10.22690 -10.22458 -10.21236 -10.21046
 Alpha  occ. eigenvalues --  -10.20966 -10.20806 -10.20731 -10.20621 -10.20236
 Alpha  occ. eigenvalues --  -10.19902 -10.19684 -10.19356 -10.19352 -10.18691
 Alpha  occ. eigenvalues --  -10.18652 -10.18440 -10.18242 -10.18231 -10.18207
 Alpha  occ. eigenvalues --  -10.17844 -10.17447 -10.17438  -1.14791  -1.10716
 Alpha  occ. eigenvalues --   -1.05525  -1.03304  -1.02377  -1.00770  -0.98678
 Alpha  occ. eigenvalues --   -0.96469  -0.95857  -0.92901  -0.83127  -0.82300
 Alpha  occ. eigenvalues --   -0.82191  -0.81503  -0.80308  -0.79269  -0.77807
 Alpha  occ. eigenvalues --   -0.77010  -0.76571  -0.76031  -0.74858  -0.72274
 Alpha  occ. eigenvalues --   -0.70895  -0.70810  -0.68996  -0.68848  -0.67816
 Alpha  occ. eigenvalues --   -0.67106  -0.66139  -0.63520  -0.62781  -0.62375
 Alpha  occ. eigenvalues --   -0.60662  -0.60372  -0.59449  -0.58902  -0.58047
 Alpha  occ. eigenvalues --   -0.56055  -0.55406  -0.55143  -0.54769  -0.52608
 Alpha  occ. eigenvalues --   -0.51961  -0.51812  -0.51236  -0.51110  -0.50168
 Alpha  occ. eigenvalues --   -0.49792  -0.49259  -0.49236  -0.48537  -0.48046
 Alpha  occ. eigenvalues --   -0.47685  -0.47397  -0.46773  -0.46312  -0.46003
 Alpha  occ. eigenvalues --   -0.45540  -0.44984  -0.44846  -0.44407  -0.44175
 Alpha  occ. eigenvalues --   -0.43694  -0.43330  -0.43060  -0.42821  -0.42712
 Alpha  occ. eigenvalues --   -0.42679  -0.42082  -0.41617  -0.41278  -0.41119
 Alpha  occ. eigenvalues --   -0.40918  -0.40696  -0.40345  -0.39743  -0.39338
 Alpha  occ. eigenvalues --   -0.39073  -0.38762  -0.38614  -0.38241  -0.38082
 Alpha  occ. eigenvalues --   -0.37998  -0.37762  -0.37226  -0.37140  -0.36536
 Alpha  occ. eigenvalues --   -0.36395  -0.36073  -0.35404  -0.35208  -0.35018
 Alpha  occ. eigenvalues --   -0.34698  -0.34058  -0.33446  -0.33143  -0.33058
 Alpha  occ. eigenvalues --   -0.32781  -0.32712  -0.31197  -0.30225  -0.29620
 Alpha  occ. eigenvalues --   -0.28421  -0.27984  -0.26806  -0.26614  -0.25851
 Alpha  occ. eigenvalues --   -0.25079  -0.24306  -0.23719  -0.23215  -0.21818
 Alpha  occ. eigenvalues --   -0.17009
 Alpha virt. eigenvalues --   -0.10869  -0.05985  -0.04300  -0.01354  -0.00179
 Alpha virt. eigenvalues --    0.01100   0.01982   0.02244   0.03122   0.04188
 Alpha virt. eigenvalues --    0.04425   0.04942   0.05402   0.06123   0.06272

 Mulliken charges:
               1
     1  O   -0.233048
     2  O   -0.085984
     3  O   -0.178962
     4  O   -0.174031
     5  O   -0.168666
     6  O   -0.238356
     7  N   -0.177728
     8  N   -0.060938
     9  N   -0.096247
    10  N   -0.238662
    11  C   -0.022757
    12  C    0.078481
    13  C   -0.173048
    14  C    0.115946
    15  C   -0.096238
    16  C    0.082375
    17  C   -0.057929
    18  C   -0.005798
    19  C    0.163912
    20  C   -0.136714
    21  C    0.077035
    22  C    0.039188
    23  C   -0.011580
    24  C    0.210672
    25  C   -0.039787
    26  C    0.002102
    27  C    0.098545
    28  C   -0.041672
    29  C   -0.102491
    30  C   -0.124324
    31  C   -0.054485
    32  C    0.103979
    33  C    0.023236
    34  C    0.051949
    35  C   -0.154257
    36  C   -0.210589
    37  C    0.104307
    38  C    0.024529
    39  C    0.123314
    40  C    0.111064
    41  C    0.113429
    42  C    0.236714
    43  C   -0.087767
    44  H    0.180210
    45  H   -0.037468
    46  H   -0.005674
    47  H   -0.033260
    48  H    0.037365
    49  H   -0.024912
    50  H   -0.020152
    51  H   -0.080952
    52  H    0.154985
    53  H    0.032875
    54  H    0.051387
    55  H    0.052775
    56  H    0.177893
    57  H    0.032435
    58  H    0.070713
    59  H    0.083042
    60  H    0.043177
    61  H    0.037716
    62  H    0.048750
    63  H    0.053738
    64  H   -0.080032
    65  H    0.019597
    66  H    0.042409
    67  H   -0.014770
    68  H   -0.100689
    69  H    0.071469
    70  H    0.000628
    71  H    0.049696
    72  H   -0.016210
    73  H    0.002974
    74  H   -0.023710
    75  H   -0.013140
    76  H    0.030711
    77  H    0.034769
    78  H    0.048319
    79  H    0.054078
    80  H    0.098900
    81  H    0.151637
 Sum of Mulliken charges =  -0.00000

 Dipole moment (field-independent basis, Debye):
    X=             -1.8326    Y=             -0.4548    Z=             -0.9755  Tot=              2.1253
 Quadrupole moment (field-independent basis, Debye-Ang):
   XX=           -249.8475   YY=           -253.5442   ZZ=           -250.5372
   XY=             19.0667   XZ=             11.6897   YZ=            -17.3160

 Normal termination of Gaussian 16 at Sat Jun 29 16:52:48 2019.
