 Gaussian 16, Revision A.03,
 Gaussian 16:  ES64L-G16RevA.03 25-Dec-2016

 --------------------------
 # td=(NStates=1) B3LYP/SVP
 --------------------------

 --
 TD
 --
 Symbolic Z-matrix:
 Charge =  0 Multiplicity = 1

                         Standard orientation:
 ---------------------------------------------------------------------
 Center     Atomic      Atomic             Coordinates (Angstroms)
 Number     Number       Type             X           Y           Z
 ---------------------------------------------------------------------
      1          8           0        4.059966   -5.058385   -1.731003
      2          8           0       -3.277190   -4.709157   -1.044611
      3          8           0       -7.151136   -1.356789   -1.836452
      4          8           0       -3.936194   -3.014702    0.158711
      5          8           0       -7.597124   -0.203468   -0.070514
      6          8           0        3.078490    2.236560    0.338813
      7          7           0        0.202809   -0.498012    0.685116
      8          7           0       -1.437309    1.879484    0.332708
      9          7           0        3.204171   -3.259734   -0.685434
     10          7           0        0.918820    2.846252    0.254534
     11          6           0       -0.761078   -2.373955    1.378016
     12          6           0       -0.990847   -0.998008    1.030910
     13          6           0        0.613942   -2.573337    1.266789
     14          6           0        1.289216   -1.428383    0.799618
     15          6           0       -3.708816    1.626118    0.277030
     16          6           0       -2.437188    0.942153    0.593531
     17          6           0       -2.255863   -0.349704    0.912136
     18          6           0       -3.417797    2.841203   -0.105485
     19          6           0       -1.709245   -3.294458    2.014293
     20          6           0        5.372172   -2.964423   -1.380247
     21          6           0        3.474690   -1.898778   -0.215613
     22          6           0       -1.995854    3.034272   -0.058809
     23          6           0        4.898834   -1.780511   -0.594252
     24          6           0       -5.021057    1.052832    0.301822
     25          6           0        2.559240   -1.126654    0.400589
     26          6           0        1.310843   -3.768397    1.838264
     27          6           0        4.202239   -3.897705   -1.287270
     28          6           0       -2.280826   -4.441893    1.027512
     29          6           0       -5.331673    0.091429   -0.930872
     30          6           0       -4.337855    4.008397   -0.541936
     31          6           0       -1.097055    4.102945   -0.305145
     32          6           0        6.644640   -3.605924   -0.944940
     33          6           0        5.755071   -0.800105   -0.283428
     34          6           0        0.301982    3.975512   -0.198527
     35          6           0        1.341194    5.065790   -0.367646
     36          6           0        2.543313    4.515878   -0.241309
     37          6           0       -3.233716   -3.977731   -0.051880
     38          6           0        5.593893    0.512594    0.666726
     39          6           0       -6.786227   -0.499876   -0.876626
     40          6           0        3.959212    5.130926   -0.349553
     41          6           0        2.336587    3.019179    0.124362
     42          6           0        0.881896    6.471446   -0.832139
     43          6           0        4.532800    5.492825    1.103048
     44          1           0        0.495819    0.530296    0.293206
     45          1           0       -3.026264   -1.173734    1.156865
     46          1           0       -2.662913   -2.809511    2.464767
     47          1           0       -1.197246   -3.847681    2.844919
     48          1           0        5.304049   -2.852394   -2.431748
     49          1           0       -5.645093    0.370555    1.016039
     50          1           0       -5.709314    1.830153    0.128075
     51          1           0        3.026287   -0.167191    0.393906
     52          1           0       -0.350742    1.947785    0.792530
     53          1           0        1.302866   -4.702971    1.081311
     54          1           0        2.429917   -3.592599    1.951156
     55          1           0        1.002098   -4.208764    2.885346
     56          1           0        2.452329   -3.577848   -0.887060
     57          1           0       -1.590838   -5.239724    0.774661
     58          1           0       -3.032237   -5.225346    1.607644
     59          1           0       -4.643250   -0.621826   -0.937717
     60          1           0       -5.168296    0.615701   -1.807236
     61          1           0       -4.491410    4.962836    0.132937
     62          1           0       -5.443640    3.897433   -0.476271
     63          1           0       -4.119433    4.407853   -1.449447
     64          1           0       -1.459554    5.068582   -0.545612
     65          1           0        7.550965   -3.030810   -1.272245
     66          1           0        6.794424   -4.611798   -1.319424
     67          1           0        6.695429   -3.517581    0.199033
     68          1           0        6.786672   -0.991176   -0.703302
     69          1           0        5.109069    1.172078   -0.060252
     70          1           0        6.597128    1.008929    0.807540
     71          1           0        4.987763    0.218129    1.379629
     72          1           0        4.065924    6.033604   -1.018965
     73          1           0        4.604869    4.329841   -0.801165
     74          1           0        0.439732    6.472871   -1.807560
     75          1           0        1.843185    7.136536   -0.989162
     76          1           0        0.181422    6.959793    0.031355
     77          1           0        3.867874    6.150370    1.761532
     78          1           0        5.443514    6.125129    0.944670
     79          1           0        4.549459    4.606394    1.607169
     80          1           0       -4.056523   -4.586638   -1.682719
     81          1           0       -8.047965   -1.637624   -1.706242
 ---------------------------------------------------------------------

 SCF Done:  E(RB3LYP) =  -1949.06551065     A.U. after   16 cycles

 Excitation energies and oscillator strengths:

 Excited State   1:      Singlet-A      1.9750 eV  627.78 nm  f=0.3691  <S**2>=0.000
     156 ->157         0.70748
 This state for optimization and/or second-order correction.
 Total Energy, E(TD-HF/TD-DFT) =  -1948.99293182
 Copying the excited state density for this state as the 1-particle RhoCI density.

 The electronic state is 1-A.
 Alpha  occ. eigenvalues --  -19.21001 -19.17675 -19.12439 -19.12359 -19.11909
 Alpha  occ. eigenvalues --  -19.08993 -14.37362 -14.35227 -14.34333 -14.29148
 Alpha  occ. eigenvalues --  -10.32454 -10.32010 -10.27297 -10.27200 -10.24346
 Alpha  occ. eigenvalues --  -10.23839 -10.23022 -10.22625 -10.22623 -10.22377
 Alpha  occ. eigenvalues --  -10.21772 -10.21366 -10.21253 -10.20730 -10.20518
 Alpha  occ. eigenvalues --  -10.20254 -10.20247 -10.20243 -10.20159 -10.20084
 Alpha  occ. eigenvalues --  -10.19910 -10.19804 -10.19474 -10.19323 -10.19185
 Alpha  occ. eigenvalues --  -10.19143 -10.18811 -10.18713 -10.18688 -10.18670
 Alpha  occ. eigenvalues --  -10.18527 -10.18347 -10.18334  -1.14530  -1.11162
 Alpha  occ. eigenvalues --   -1.09904  -1.02186  -1.01596  -1.01163  -0.98138
 Alpha  occ. eigenvalues --   -0.96672  -0.93978  -0.91034  -0.82998  -0.82925
 Alpha  occ. eigenvalues --   -0.81655  -0.80752  -0.79460  -0.78799  -0.77089
 Alpha  occ. eigenvalues --   -0.76498  -0.75810  -0.74807  -0.73953  -0.72162
 Alpha  occ. eigenvalues --   -0.71022  -0.70114  -0.68921  -0.68053  -0.67732
 Alpha  occ. eigenvalues --   -0.67252  -0.66552  -0.65073  -0.63308  -0.62438
 Alpha  occ. eigenvalues --   -0.62008  -0.60909  -0.59302  -0.58428  -0.56478
 Alpha  occ. eigenvalues --   -0.56126  -0.55923  -0.54789  -0.53607  -0.53093
 Alpha  occ. eigenvalues --   -0.52218  -0.51218  -0.50972  -0.50877  -0.50038
 Alpha  occ. eigenvalues --   -0.49517  -0.49212  -0.48755  -0.47838  -0.47795
 Alpha  occ. eigenvalues --   -0.47500  -0.47409  -0.46935  -0.46303  -0.45393
 Alpha  occ. eigenvalues --   -0.45149  -0.44901  -0.44640  -0.44313  -0.43707
 Alpha  occ. eigenvalues --   -0.43213  -0.43091  -0.42544  -0.42278  -0.42212
 Alpha  occ. eigenvalues --   -0.42037  -0.41498  -0.41348  -0.40575  -0.40392
 Alpha  occ. eigenvalues --   -0.40336  -0.40109  -0.39548  -0.39532  -0.39382
 Alpha  occ. eigenvalues --   -0.38957  -0.38588  -0.38236  -0.38092  -0.37898
 Alpha  occ. eigenvalues --   -0.37618  -0.37297  -0.36980  -0.36747  -0.36427
 Alpha  occ. eigenvalues --   -0.35926  -0.35784  -0.35647  -0.35336  -0.34764
 Alpha  occ. eigenvalues --   -0.34716  -0.34066  -0.33651  -0.33433  -0.32962
 Alpha  occ. eigenvalues --   -0.32821  -0.32515  -0.32504  -0.30074  -0.28647
 Alpha  occ. eigenvalues --   -0.28363  -0.28296  -0.26313  -0.25940  -0.25719
 Alpha  occ. eigenvalues --   -0.24954  -0.24285  -0.24203  -0.23760  -0.21697
 Alpha  occ. eigenvalues --   -0.17754
 Alpha virt. eigenvalues --   -0.09748  -0.05149  -0.03455   0.00269   0.01361
 Alpha virt. eigenvalues --    0.01564   0.02244   0.02529   0.04155   0.04489
 Alpha virt. eigenvalues --    0.04614   0.05065   0.05572   0.06391   0.06527

 Mulliken charges:
               1
     1  O   -0.267561
     2  O   -0.089769
     3  O   -0.166151
     4  O   -0.253213
     5  O   -0.211058
     6  O   -0.055360
     7  N   -0.152409
     8  N   -0.178036
     9  N    0.010715
    10  N   -0.389992
    11  C   -0.054752
    12  C   -0.025925
    13  C   -0.117202
    14  C    0.178199
    15  C   -0.006669
    16  C    0.150428
    17  C   -0.082895
    18  C   -0.050692
    19  C    0.081579
    20  C    0.047943
    21  C    0.051346
    22  C    0.102901
    23  C   -0.013284
    24  C    0.034018
    25  C   -0.066397
    26  C   -0.022333
    27  C    0.017453
    28  C   -0.056027
    29  C    0.062194
    30  C    0.070565
    31  C   -0.111509
    32  C    0.041203
    33  C   -0.234054
    34  C    0.092379
    35  C   -0.071024
    36  C   -0.214425
    37  C    0.088802
    38  C    0.149665
    39  C    0.118415
    40  C    0.039561
    41  C    0.136051
    42  C    0.037679
    43  C    0.010723
    44  H    0.185260
    45  H    0.045773
    46  H    0.036107
    47  H    0.008647
    48  H    0.021710
    49  H    0.052821
    50  H   -0.023683
    51  H   -0.038644
    52  H    0.227270
    53  H    0.031451
    54  H    0.027102
    55  H    0.039472
    56  H    0.018949
    57  H    0.010576
    58  H    0.043229
    59  H   -0.009090
    60  H   -0.001537
    61  H    0.021911
    62  H    0.006671
    63  H    0.000982
    64  H   -0.052859
    65  H    0.011514
    66  H    0.032456
    67  H    0.023777
    68  H   -0.001666
    69  H    0.050617
    70  H    0.022850
    71  H    0.005420
    72  H    0.010174
    73  H    0.017875
    74  H    0.033358
    75  H    0.024195
    76  H    0.052710
    77  H    0.014129
    78  H    0.026517
    79  H    0.006284
    80  H    0.217553
    81  H    0.169029
 Sum of Mulliken charges =  -0.00000

 Dipole moment (field-independent basis, Debye):
    X=             -2.3573    Y=              2.0385    Z=             -1.4632  Tot=              3.4428
 Quadrupole moment (field-independent basis, Debye-Ang):
   XX=           -241.9413   YY=           -241.7735   ZZ=           -252.6912
   XY=             29.7975   XZ=             15.7256   YZ=            -10.8482

 Normal termination of Gaussian 16 at Mon Jul  1 09:01:42 2019.
