 Gaussian 16, Revision A.03,
 Gaussian 16:  ES64L-G16RevA.03 25-Dec-2016

 --------------------------
 # td=(NStates=1) B3LYP/SVP
 --------------------------

 --
 TD
 --
 Symbolic Z-matrix:
 Charge =  0 Multiplicity = 1

                         Standard orientation:
 ---------------------------------------------------------------------
 Center     Atomic      Atomic             Coordinates (Angstroms)
 Number     Number       Type             X           Y           Z
 ---------------------------------------------------------------------
      1          8           0        4.263027   -4.861261   -1.859149
      2          8           0       -2.966922   -4.951538   -1.123207
      3          8           0       -6.944341   -1.713169   -1.637393
      4          8           0       -3.635510   -3.070370   -0.071641
      5          8           0       -7.639318   -0.392002    0.104700
      6          8           0        2.986335    2.438665    0.369036
      7          7           0        0.207544   -0.515543    0.611307
      8          7           0       -1.469329    1.819684    0.312997
      9          7           0        3.195444   -3.069719   -0.689200
     10          7           0        0.783304    2.982089   -0.021405
     11          6           0       -0.618155   -2.341350    1.548825
     12          6           0       -0.987680   -1.106918    1.096826
     13          6           0        0.751770   -2.680299    1.288146
     14          6           0        1.207525   -1.467268    0.687239
     15          6           0       -3.726654    1.427540    0.237621
     16          6           0       -2.492638    0.917444    0.597224
     17          6           0       -2.297864   -0.456226    1.023020
     18          6           0       -3.485647    2.711778   -0.251256
     19          6           0       -1.539449   -3.369466    2.068266
     20          6           0        5.486331   -2.798800   -1.330251
     21          6           0        3.591045   -1.745127   -0.287625
     22          6           0       -2.063861    2.995989   -0.069266
     23          6           0        5.001523   -1.594339   -0.536677
     24          6           0       -5.152059    0.891339    0.344264
     25          6           0        2.599669   -1.025239    0.390429
     26          6           0        1.521032   -3.931530    1.735540
     27          6           0        4.273795   -3.687012   -1.320815
     28          6           0       -2.034669   -4.573507    1.041737
     29          6           0       -5.440136   -0.026664   -0.845557
     30          6           0       -4.428737    3.788482   -0.764148
     31          6           0       -1.299442    4.129611   -0.434232
     32          6           0        6.848116   -3.502770   -1.009143
     33          6           0        5.818510   -0.560535   -0.106641
     34          6           0        0.099551    4.097039   -0.354641
     35          6           0        1.117699    5.155984   -0.520418
     36          6           0        2.350812    4.685006   -0.217857
     37          6           0       -3.018681   -4.099977   -0.109491
     38          6           0        5.526118    0.567959    0.777232
     39          6           0       -6.751122   -0.705088   -0.714544
     40          6           0        3.718001    5.347916   -0.121351
     41          6           0        2.141878    3.252122    0.107679
     42          6           0        0.676772    6.495897   -0.890800
     43          6           0        4.078403    5.690221    1.363501
     44          1           0        0.286024    0.481239    0.212637
     45          1           0       -3.151412   -1.143427    1.341133
     46          1           0       -2.351656   -2.779737    2.644980
     47          1           0       -1.121833   -3.875408    2.976151
     48          1           0        5.839333   -2.585411   -2.428136
     49          1           0       -5.504218    0.286484    1.300511
     50          1           0       -5.840586    1.753199    0.403368
     51          1           0        2.940412    0.064261    0.715998
     52          1           0       -0.477135    2.043163    0.415378
     53          1           0        1.607717   -4.715764    0.920533
     54          1           0        2.571389   -3.742636    1.953527
     55          1           0        0.974151   -4.355862    2.688165
     56          1           0        2.115945   -3.323601   -0.750113
     57          1           0       -1.136173   -5.051042    0.710948
     58          1           0       -2.787744   -5.334917    1.609002
     59          1           0       -4.631606   -1.014472   -0.734501
     60          1           0       -5.212711    0.411110   -1.845699
     61          1           0       -4.345738    4.756435   -0.375522
     62          1           0       -5.542896    3.441824   -0.534640
     63          1           0       -4.306715    3.800207   -1.947520
     64          1           0       -1.844230    5.128829   -0.405176
     65          1           0        7.853394   -2.879434   -1.131858
     66          1           0        6.978359   -4.342674   -1.724359
     67          1           0        6.710718   -4.003385   -0.003737
     68          1           0        6.749288   -0.723837   -0.560655
     69          1           0        4.952557    1.367461    0.320187
     70          1           0        6.501028    1.022354    1.183622
     71          1           0        4.930718    0.358130    1.690818
     72          1           0        3.920370    6.015056   -1.053265
     73          1           0        4.424944    4.401529   -0.320407
     74          1           0       -0.010178    6.449434   -1.791581
     75          1           0        1.525695    7.269471   -1.051970
     76          1           0       -0.014993    7.033361   -0.271002
     77          1           0        3.366757    6.521828    1.663933
     78          1           0        5.177910    5.944667    1.435988
     79          1           0        3.918194    4.668695    1.891642
     80          1           0       -3.612226   -4.436359   -1.828046
     81          1           0       -7.808298   -1.922222   -1.611989
 ---------------------------------------------------------------------

 SCF Done:  E(RB3LYP) =  -1949.16053812     A.U. after   17 cycles

 Excitation energies and oscillator strengths:

 Excited State   1:      Singlet-A      1.8104 eV  684.83 nm  f=0.3073  <S**2>=0.000
     156 ->157         0.70149
     156 <-157        -0.10410
 This state for optimization and/or second-order correction.
 Total Energy, E(TD-HF/TD-DFT) =  -1949.09400567
 Copying the excited state density for this state as the 1-particle RhoCI density.

 The electronic state is 1-A.
 Alpha  occ. eigenvalues --  -19.21278 -19.17863 -19.14892 -19.13101 -19.10891
 Alpha  occ. eigenvalues --  -19.09520 -14.38010 -14.37435 -14.35781 -14.28556
 Alpha  occ. eigenvalues --  -10.33984 -10.32776 -10.28993 -10.26466 -10.24653
 Alpha  occ. eigenvalues --  -10.24476 -10.24140 -10.23970 -10.23567 -10.23565
 Alpha  occ. eigenvalues --  -10.23336 -10.22902 -10.22251 -10.21762 -10.21507
 Alpha  occ. eigenvalues --  -10.21504 -10.21337 -10.21068 -10.20785 -10.20485
 Alpha  occ. eigenvalues --  -10.20355 -10.20337 -10.20291 -10.20222 -10.19897
 Alpha  occ. eigenvalues --  -10.19882 -10.19772 -10.19754 -10.19745 -10.19593
 Alpha  occ. eigenvalues --  -10.19496 -10.18581 -10.18229  -1.11817  -1.09697
 Alpha  occ. eigenvalues --   -1.02925  -1.02873  -0.99950  -0.99194  -0.98582
 Alpha  occ. eigenvalues --   -0.97105  -0.92710  -0.92220  -0.82840  -0.81596
 Alpha  occ. eigenvalues --   -0.81162  -0.80289  -0.79270  -0.77992  -0.77658
 Alpha  occ. eigenvalues --   -0.76293  -0.75699  -0.75029  -0.73736  -0.72406
 Alpha  occ. eigenvalues --   -0.71009  -0.69609  -0.69148  -0.68449  -0.67947
 Alpha  occ. eigenvalues --   -0.67055  -0.64913  -0.64348  -0.61875  -0.61298
 Alpha  occ. eigenvalues --   -0.59898  -0.59631  -0.58554  -0.57248  -0.56661
 Alpha  occ. eigenvalues --   -0.56590  -0.55288  -0.53983  -0.53385  -0.52714
 Alpha  occ. eigenvalues --   -0.52238  -0.51447  -0.50932  -0.50725  -0.50497
 Alpha  occ. eigenvalues --   -0.49438  -0.48747  -0.48488  -0.48109  -0.47313
 Alpha  occ. eigenvalues --   -0.46914  -0.46346  -0.46125  -0.45529  -0.44791
 Alpha  occ. eigenvalues --   -0.44338  -0.44298  -0.44084  -0.43861  -0.43305
 Alpha  occ. eigenvalues --   -0.42990  -0.42674  -0.42524  -0.42279  -0.41848
 Alpha  occ. eigenvalues --   -0.41702  -0.41268  -0.41044  -0.40840  -0.40610
 Alpha  occ. eigenvalues --   -0.40492  -0.40117  -0.39840  -0.39616  -0.39492
 Alpha  occ. eigenvalues --   -0.39276  -0.39019  -0.38875  -0.38793  -0.38665
 Alpha  occ. eigenvalues --   -0.38300  -0.38052  -0.37587  -0.37444  -0.36665
 Alpha  occ. eigenvalues --   -0.36546  -0.35741  -0.35260  -0.34745  -0.34677
 Alpha  occ. eigenvalues --   -0.34372  -0.33844  -0.33455  -0.33298  -0.33133
 Alpha  occ. eigenvalues --   -0.32616  -0.32406  -0.32058  -0.30149  -0.29582
 Alpha  occ. eigenvalues --   -0.28330  -0.27414  -0.26074  -0.25708  -0.25262
 Alpha  occ. eigenvalues --   -0.25002  -0.24655  -0.24284  -0.23296  -0.21280
 Alpha  occ. eigenvalues --   -0.18377
 Alpha virt. eigenvalues --   -0.10966  -0.06284  -0.04822  -0.01639  -0.01504
 Alpha virt. eigenvalues --   -0.00733   0.00940   0.01889   0.03026   0.03487
 Alpha virt. eigenvalues --    0.03919   0.04617   0.05000   0.05641   0.06284

 Mulliken charges:
               1
     1  O   -0.296790
     2  O   -0.199622
     3  O   -0.153841
     4  O   -0.214232
     5  O   -0.261694
     6  O   -0.187852
     7  N   -0.133735
     8  N   -0.097954
     9  N   -0.196966
    10  N   -0.340972
    11  C   -0.109324
    12  C    0.061862
    13  C   -0.137749
    14  C    0.041135
    15  C   -0.054040
    16  C    0.124827
    17  C   -0.050760
    18  C   -0.135504
    19  C    0.042616
    20  C   -0.071225
    21  C    0.085664
    22  C    0.028331
    23  C   -0.017859
    24  C    0.074777
    25  C   -0.157808
    26  C    0.076476
    27  C    0.173580
    28  C   -0.004653
    29  C   -0.104470
    30  C    0.059444
    31  C   -0.103038
    32  C   -0.016284
    33  C   -0.065031
    34  C    0.090678
    35  C   -0.054322
    36  C   -0.188532
    37  C    0.136691
    38  C    0.065569
    39  C    0.175092
    40  C   -0.008380
    41  C    0.149702
    42  C    0.064970
    43  C   -0.013543
    44  H    0.167666
    45  H    0.042500
    46  H    0.009540
    47  H    0.006756
    48  H    0.063089
    49  H    0.040041
    50  H    0.020101
    51  H    0.061540
    52  H    0.134718
    53  H    0.035258
    54  H    0.030084
    55  H    0.037252
    56  H    0.186318
    57  H    0.036035
    58  H    0.064511
    59  H    0.102097
    60  H    0.054067
    61  H    0.021911
    62  H    0.023009
    63  H    0.044217
    64  H    0.003352
    65  H    0.043069
    66  H    0.036252
    67  H    0.022908
    68  H   -0.038895
    69  H    0.065428
    70  H    0.013163
    71  H    0.032710
    72  H    0.028772
    73  H    0.021874
    74  H    0.014552
    75  H    0.024458
    76  H    0.007257
    77  H    0.031884
    78  H    0.031372
    79  H    0.044717
    80  H    0.226529
    81  H    0.134654
 Sum of Mulliken charges =  -0.00000

 Dipole moment (field-independent basis, Debye):
    X=             -2.6799    Y=              1.4029    Z=             -0.1686  Tot=              3.0296
 Quadrupole moment (field-independent basis, Debye-Ang):
   XX=           -251.7858   YY=           -247.2946   ZZ=           -254.3577
   XY=             19.0176   XZ=             15.3638   YZ=            -12.8117

 Normal termination of Gaussian 16 at Fri Jun 28 17:14:19 2019.
