 Gaussian 16, Revision A.03,
 Gaussian 16:  ES64L-G16RevA.03 25-Dec-2016

 --------------------------
 # td=(NStates=1) B3LYP/SVP
 --------------------------

 --
 TD
 --
 Symbolic Z-matrix:
 Charge =  0 Multiplicity = 1

                         Standard orientation:
 ---------------------------------------------------------------------
 Center     Atomic      Atomic             Coordinates (Angstroms)
 Number     Number       Type             X           Y           Z
 ---------------------------------------------------------------------
      1          8           0        4.338229   -4.735047   -2.041433
      2          8           0       -2.637685   -4.707497   -1.343190
      3          8           0       -7.093937   -1.545731   -1.747927
      4          8           0       -3.864681   -3.261769    0.030098
      5          8           0       -7.550913   -0.672836    0.186582
      6          8           0        3.006573    2.191515    0.405059
      7          7           0        0.221215   -0.474547    0.552966
      8          7           0       -1.607745    1.877140    0.390518
      9          7           0        3.257506   -3.053635   -0.809447
     10          7           0        0.782166    2.849054    0.081858
     11          6           0       -0.580613   -2.428414    1.479264
     12          6           0       -0.924499   -1.056895    1.001064
     13          6           0        0.811287   -2.558192    1.318593
     14          6           0        1.268140   -1.330278    0.735418
     15          6           0       -3.849735    1.525871    0.303902
     16          6           0       -2.539120    0.912601    0.576326
     17          6           0       -2.323027   -0.389681    0.802690
     18          6           0       -3.504224    2.871598   -0.060637
     19          6           0       -1.540459   -3.437491    1.931081
     20          6           0        5.443046   -2.710337   -1.318733
     21          6           0        3.597708   -1.795742   -0.207806
     22          6           0       -2.114507    3.064623    0.031248
     23          6           0        5.014225   -1.532327   -0.431953
     24          6           0       -5.162015    0.794419    0.386180
     25          6           0        2.603980   -0.969874    0.380185
     26          6           0        1.607385   -3.702162    1.759658
     27          6           0        4.301920   -3.648551   -1.398036
     28          6           0       -1.967386   -4.544577    0.955376
     29          6           0       -5.515545   -0.135564   -0.727135
     30          6           0       -4.561967    3.937806   -0.530232
     31          6           0       -1.301878    4.086127   -0.326949
     32          6           0        6.772604   -3.297418   -0.826789
     33          6           0        5.723461   -0.570967   -0.017469
     34          6           0        0.109566    3.961540   -0.352152
     35          6           0        1.111998    4.995575   -0.550822
     36          6           0        2.299446    4.443438   -0.275113
     37          6           0       -2.908986   -4.112200   -0.087995
     38          6           0        5.394905    0.586519    1.051982
     39          6           0       -6.855224   -0.770598   -0.697730
     40          6           0        3.643395    5.241420   -0.311577
     41          6           0        2.138173    3.033678    0.133332
     42          6           0        0.683074    6.363775   -1.006409
     43          6           0        4.285434    5.540928    1.057076
     44          1           0        0.286651    0.476244    0.078843
     45          1           0       -3.294985   -1.047719    0.900436
     46          1           0       -2.437575   -3.220159    2.506334
     47          1           0       -0.968690   -4.104501    2.797199
     48          1           0        5.728146   -2.296540   -2.304522
     49          1           0       -5.068816    0.358016    1.352019
     50          1           0       -5.880831    1.639754    0.482497
     51          1           0        2.841316    0.191901    0.713855
     52          1           0       -0.624430    1.736760    0.401243
     53          1           0        1.717107   -4.555123    1.035740
     54          1           0        2.559256   -3.447757    1.969035
     55          1           0        1.291700   -4.087165    2.658684
     56          1           0        2.300973   -3.237082   -0.872243
     57          1           0       -1.196627   -4.927059    0.416467
     58          1           0       -2.468828   -5.342474    1.660725
     59          1           0       -4.645323   -0.770027   -0.883458
     60          1           0       -5.415140    0.402112   -1.659022
     61          1           0       -4.524889    4.620601    0.255454
     62          1           0       -5.572757    3.283264   -0.664296
     63          1           0       -4.067518    4.417026   -1.621829
     64          1           0       -1.975392    5.133118   -0.366803
     65          1           0        7.703679   -2.470511   -0.833422
     66          1           0        7.155108   -4.114939   -1.425506
     67          1           0        6.876689   -3.728066    0.284266
     68          1           0        6.808296   -0.438104   -0.400462
     69          1           0        4.743443    1.286529    0.581847
     70          1           0        6.354628    1.197077    1.394266
     71          1           0        4.969887    0.328714    1.912055
     72          1           0        3.596022    6.190144   -0.852678
     73          1           0        4.452408    4.677307   -0.790859
     74          1           0        0.131344    6.243088   -1.959311
     75          1           0        1.736435    7.063498   -1.416335
     76          1           0       -0.089856    7.013675   -0.272744
     77          1           0        3.534993    6.179907    1.705377
     78          1           0        5.174200    6.281359    0.913174
     79          1           0        4.649691    4.704260    1.569440
     80          1           0       -3.484215   -4.496854   -1.673008
     81          1           0       -8.012184   -1.887337   -1.672253
 ---------------------------------------------------------------------

 SCF Done:  E(RB3LYP) =  -1949.07406006     A.U. after   17 cycles

 Excitation energies and oscillator strengths:

 Excited State   1:      Singlet-A      1.6358 eV  757.93 nm  f=0.2450  <S**2>=0.000
     156 ->157         0.70813
     156 <-157        -0.10588
 This state for optimization and/or second-order correction.
 Total Energy, E(TD-HF/TD-DFT) =  -1949.01394463
 Copying the excited state density for this state as the 1-particle RhoCI density.

 The electronic state is 1-A.
 Alpha  occ. eigenvalues --  -19.19657 -19.18055 -19.15157 -19.12671 -19.11357
 Alpha  occ. eigenvalues --  -19.09671 -14.39109 -14.37432 -14.36227 -14.29030
 Alpha  occ. eigenvalues --  -10.34487 -10.31347 -10.28726 -10.27262 -10.24822
 Alpha  occ. eigenvalues --  -10.24608 -10.24172 -10.23924 -10.23619 -10.23494
 Alpha  occ. eigenvalues --  -10.23315 -10.22834 -10.22696 -10.22337 -10.22269
 Alpha  occ. eigenvalues --  -10.21864 -10.21198 -10.21060 -10.20882 -10.20688
 Alpha  occ. eigenvalues --  -10.20311 -10.20012 -10.19991 -10.19955 -10.19844
 Alpha  occ. eigenvalues --  -10.19585 -10.19419 -10.19164 -10.18939 -10.18830
 Alpha  occ. eigenvalues --  -10.18401 -10.18133 -10.16651  -1.12737  -1.09890
 Alpha  occ. eigenvalues --   -1.03428  -1.01520  -1.01425  -1.00476  -0.99835
 Alpha  occ. eigenvalues --   -0.98774  -0.94602  -0.92669  -0.83403  -0.83324
 Alpha  occ. eigenvalues --   -0.82145  -0.81968  -0.80063  -0.79069  -0.78218
 Alpha  occ. eigenvalues --   -0.77921  -0.76330  -0.74839  -0.73889  -0.72787
 Alpha  occ. eigenvalues --   -0.71563  -0.69977  -0.69593  -0.68839  -0.68356
 Alpha  occ. eigenvalues --   -0.67500  -0.66045  -0.65557  -0.62205  -0.61546
 Alpha  occ. eigenvalues --   -0.60365  -0.60162  -0.59224  -0.58711  -0.58035
 Alpha  occ. eigenvalues --   -0.56620  -0.55797  -0.54762  -0.54689  -0.52910
 Alpha  occ. eigenvalues --   -0.52614  -0.52369  -0.52016  -0.51772  -0.50739
 Alpha  occ. eigenvalues --   -0.49881  -0.49215  -0.48722  -0.48655  -0.48369
 Alpha  occ. eigenvalues --   -0.47646  -0.47289  -0.46569  -0.45983  -0.45776
 Alpha  occ. eigenvalues --   -0.45179  -0.44769  -0.44485  -0.44285  -0.44257
 Alpha  occ. eigenvalues --   -0.43740  -0.43211  -0.42851  -0.42699  -0.42595
 Alpha  occ. eigenvalues --   -0.42133  -0.41731  -0.41320  -0.41045  -0.40952
 Alpha  occ. eigenvalues --   -0.40848  -0.40684  -0.40487  -0.40185  -0.39895
 Alpha  occ. eigenvalues --   -0.39269  -0.39090  -0.38902  -0.38409  -0.38144
 Alpha  occ. eigenvalues --   -0.38004  -0.37361  -0.36719  -0.36439  -0.36398
 Alpha  occ. eigenvalues --   -0.36240  -0.35938  -0.34911  -0.34801  -0.34315
 Alpha  occ. eigenvalues --   -0.33912  -0.33818  -0.33709  -0.33588  -0.33252
 Alpha  occ. eigenvalues --   -0.33107  -0.32427  -0.31607  -0.30455  -0.29927
 Alpha  occ. eigenvalues --   -0.28967  -0.27614  -0.26472  -0.26114  -0.25825
 Alpha  occ. eigenvalues --   -0.25553  -0.24904  -0.24532  -0.23748  -0.21955
 Alpha  occ. eigenvalues --   -0.18377
 Alpha virt. eigenvalues --   -0.11574  -0.06578  -0.04836  -0.04068   0.00069
 Alpha virt. eigenvalues --    0.01013   0.01738   0.02339   0.03145   0.03685
 Alpha virt. eigenvalues --    0.04396   0.04697   0.05359   0.05923   0.06029

 Mulliken charges:
               1
     1  O   -0.266627
     2  O   -0.175594
     3  O   -0.179279
     4  O   -0.288475
     5  O   -0.138536
     6  O   -0.224801
     7  N   -0.056138
     8  N   -0.004319
     9  N   -0.062594
    10  N   -0.340669
    11  C   -0.053215
    12  C    0.012159
    13  C   -0.163546
    14  C    0.018749
    15  C   -0.135913
    16  C    0.072096
    17  C   -0.088957
    18  C   -0.170317
    19  C    0.000292
    20  C   -0.026820
    21  C    0.045802
    22  C    0.089150
    23  C    0.130753
    24  C    0.136491
    25  C   -0.165587
    26  C    0.193882
    27  C    0.166853
    28  C    0.092606
    29  C    0.035592
    30  C    0.025920
    31  C   -0.157291
    32  C   -0.044894
    33  C   -0.250322
    34  C    0.107135
    35  C   -0.045808
    36  C   -0.165612
    37  C    0.155152
    38  C    0.067611
    39  C    0.103191
    40  C    0.094036
    41  C    0.188931
    42  C   -0.018071
    43  C   -0.045237
    44  H    0.153755
    45  H    0.065141
    46  H    0.018150
    47  H    0.014044
    48  H    0.048172
    49  H    0.013243
    50  H    0.001535
    51  H    0.102325
    52  H    0.090951
    53  H    0.022042
    54  H   -0.024292
    55  H   -0.017774
    56  H    0.113297
    57  H   -0.006426
    58  H    0.072481
    59  H    0.026725
    60  H    0.003405
    61  H    0.034619
    62  H    0.058377
    63  H    0.059305
    64  H    0.030958
    65  H    0.025125
    66  H    0.026544
    67  H    0.025777
    68  H    0.010924
    69  H    0.056882
    70  H    0.002013
    71  H   -0.009308
    72  H   -0.010562
    73  H    0.002647
    74  H    0.030944
    75  H    0.040369
    76  H    0.060232
    77  H    0.016595
    78  H    0.013569
    79  H    0.024538
    80  H    0.154877
    81  H    0.181023
 Sum of Mulliken charges =  -0.00000

 Dipole moment (field-independent basis, Debye):
    X=             -4.6485    Y=              1.6230    Z=              0.2428  Tot=              4.9296
 Quadrupole moment (field-independent basis, Debye-Ang):
   XX=           -251.6098   YY=           -246.0261   ZZ=           -257.6813
   XY=             17.6722   XZ=             15.5737   YZ=            -18.8379

 Normal termination of Gaussian 16 at Tue Jul  2 11:02:10 2019.
