 Gaussian 16, Revision A.03,
 Gaussian 16:  ES64L-G16RevA.03 25-Dec-2016

 --------------------------
 # td=(NStates=1) B3LYP/SVP
 --------------------------

 --
 TD
 --
 Symbolic Z-matrix:
 Charge =  0 Multiplicity = 1

                         Standard orientation:
 ---------------------------------------------------------------------
 Center     Atomic      Atomic             Coordinates (Angstroms)
 Number     Number       Type             X           Y           Z
 ---------------------------------------------------------------------
      1          8           0        4.402283   -4.822423   -1.804837
      2          8           0       -2.775155   -4.752491   -1.152191
      3          8           0       -6.807417   -1.708463   -1.922453
      4          8           0       -3.691411   -3.039393   -0.013107
      5          8           0       -7.649130   -0.577445   -0.164452
      6          8           0        2.941657    2.437302    0.296336
      7          7           0        0.234978   -0.489568    0.596001
      8          7           0       -1.652430    1.809022    0.441734
      9          7           0        3.356682   -3.073695   -0.680038
     10          7           0        0.695296    2.945244    0.230045
     11          6           0       -0.650832   -2.399076    1.335892
     12          6           0       -0.943635   -1.080731    1.053017
     13          6           0        0.764647   -2.592189    1.149787
     14          6           0        1.255731   -1.395470    0.623709
     15          6           0       -3.852752    1.387090    0.405982
     16          6           0       -2.515474    0.797439    0.581846
     17          6           0       -2.212437   -0.538056    0.910731
     18          6           0       -3.566765    2.654505   -0.020441
     19          6           0       -1.554269   -3.398984    2.054402
     20          6           0        5.546746   -2.724094   -1.230059
     21          6           0        3.641842   -1.753424   -0.226093
     22          6           0       -2.175164    2.934550    0.009175
     23          6           0        4.989979   -1.535015   -0.489368
     24          6           0       -5.089602    0.614949    0.415971
     25          6           0        2.588521   -0.964597    0.301804
     26          6           0        1.513152   -3.761801    1.792511
     27          6           0        4.447799   -3.749253   -1.254742
     28          6           0       -2.072390   -4.465351    1.121980
     29          6           0       -5.303450   -0.238916   -0.856131
     30          6           0       -4.559476    3.775843   -0.332983
     31          6           0       -1.397316    4.064958   -0.326780
     32          6           0        6.924804   -3.392504   -0.879431
     33          6           0        5.816705   -0.529266   -0.100430
     34          6           0        0.084189    4.054273   -0.163960
     35          6           0        0.990264    5.216515   -0.530831
     36          6           0        2.212623    4.671894   -0.315283
     37          6           0       -2.915917   -3.958794   -0.040981
     38          6           0        5.481082    0.702403    0.750177
     39          6           0       -6.743403   -0.822234   -0.865148
     40          6           0        3.664032    5.317134   -0.427954
     41          6           0        2.082780    3.228918    0.122768
     42          6           0        0.474167    6.453508   -0.929097
     43          6           0        4.078165    5.891873    1.045506
     44          1           0        0.304359    0.392450   -0.110017
     45          1           0       -3.070631   -1.197894    1.138683
     46          1           0       -2.399429   -3.048341    2.334586
     47          1           0       -1.086750   -3.764315    2.885076
     48          1           0        5.699512   -2.648707   -2.194749
     49          1           0       -5.081910   -0.133639    1.275021
     50          1           0       -6.042267    1.396896    0.559904
     51          1           0        2.886164    0.022983    0.700260
     52          1           0       -0.540121    1.743812    0.504497
     53          1           0        1.589193   -4.802331    1.253260
     54          1           0        2.403381   -3.148918    2.063089
     55          1           0        1.240945   -4.158810    2.767142
     56          1           0        2.362759   -3.320660   -0.820532
     57          1           0       -1.064772   -5.029351    0.724316
     58          1           0       -2.829623   -5.112747    1.732596
     59          1           0       -4.507730   -1.095128   -0.806480
     60          1           0       -5.213925    0.293439   -1.719937
     61          1           0       -4.659455    4.499653    0.571176
     62          1           0       -5.539047    3.067222   -0.616540
     63          1           0       -4.285251    4.228428   -1.202944
     64          1           0       -1.996564    4.899923   -0.779690
     65          1           0        7.764968   -2.701290   -0.730646
     66          1           0        7.264844   -4.198036   -1.405089
     67          1           0        6.893992   -3.773631    0.173514
     68          1           0        6.797102   -0.603607   -0.595781
     69          1           0        5.170666    1.521986    0.241893
     70          1           0        6.477959    1.023448    1.131237
     71          1           0        4.717170    0.406285    1.487616
     72          1           0        3.675533    6.161485   -1.269002
     73          1           0        4.431347    4.307492   -0.642637
     74          1           0        0.003100    6.315478   -1.882839
     75          1           0        1.248347    7.249310   -1.101824
     76          1           0       -0.238706    6.756156   -0.244868
     77          1           0        3.490505    6.432735    1.580321
     78          1           0        5.168723    6.335521    0.991714
     79          1           0        4.201937    4.848903    1.746890
     80          1           0       -3.390799   -4.438417   -1.862233
     81          1           0       -7.679887   -2.158071   -2.018813
 ---------------------------------------------------------------------

 SCF Done:  E(RB3LYP) =  -1949.10060588     A.U. after   16 cycles

 Excitation energies and oscillator strengths:

 Excited State   1:      Singlet-A      1.8683 eV  663.62 nm  f=0.3473  <S**2>=0.000
     156 ->157         0.70661
     156 <-157        -0.11319
 This state for optimization and/or second-order correction.
 Total Energy, E(TD-HF/TD-DFT) =  -1949.03194710
 Copying the excited state density for this state as the 1-particle RhoCI density.

 The electronic state is 1-A.
 Alpha  occ. eigenvalues --  -19.19214 -19.17018 -19.14872 -19.13231 -19.11469
 Alpha  occ. eigenvalues --  -19.10747 -14.37890 -14.36003 -14.35277 -14.29383
 Alpha  occ. eigenvalues --  -10.33921 -10.31763 -10.28709 -10.27020 -10.24199
 Alpha  occ. eigenvalues --  -10.23753 -10.23281 -10.23182 -10.22745 -10.22584
 Alpha  occ. eigenvalues --  -10.22525 -10.22272 -10.21039 -10.20678 -10.20277
 Alpha  occ. eigenvalues --  -10.20067 -10.20049 -10.19998 -10.19996 -10.19798
 Alpha  occ. eigenvalues --  -10.19619 -10.19617 -10.19474 -10.19440 -10.19404
 Alpha  occ. eigenvalues --  -10.19349 -10.19344 -10.19046 -10.18952 -10.18894
 Alpha  occ. eigenvalues --  -10.18754 -10.18345 -10.17766  -1.10518  -1.09196
 Alpha  occ. eigenvalues --   -1.04324  -1.03271  -1.02067  -1.00985  -0.99603
 Alpha  occ. eigenvalues --   -0.97798  -0.94512  -0.92231  -0.82938  -0.81838
 Alpha  occ. eigenvalues --   -0.81753  -0.80943  -0.80429  -0.78396  -0.77576
 Alpha  occ. eigenvalues --   -0.76773  -0.76302  -0.74677  -0.73613  -0.71605
 Alpha  occ. eigenvalues --   -0.70366  -0.70275  -0.69380  -0.68722  -0.67624
 Alpha  occ. eigenvalues --   -0.66832  -0.65789  -0.64792  -0.62426  -0.61137
 Alpha  occ. eigenvalues --   -0.60191  -0.59590  -0.59219  -0.58363  -0.56327
 Alpha  occ. eigenvalues --   -0.56130  -0.55374  -0.54472  -0.53549  -0.52569
 Alpha  occ. eigenvalues --   -0.52065  -0.51512  -0.51169  -0.50419  -0.49553
 Alpha  occ. eigenvalues --   -0.49382  -0.48978  -0.48066  -0.47488  -0.47307
 Alpha  occ. eigenvalues --   -0.46806  -0.46631  -0.46247  -0.45910  -0.45534
 Alpha  occ. eigenvalues --   -0.44921  -0.44781  -0.44329  -0.44197  -0.44008
 Alpha  occ. eigenvalues --   -0.43643  -0.43158  -0.42633  -0.42381  -0.42239
 Alpha  occ. eigenvalues --   -0.41933  -0.41755  -0.41650  -0.41338  -0.41135
 Alpha  occ. eigenvalues --   -0.41026  -0.40796  -0.40362  -0.40096  -0.39945
 Alpha  occ. eigenvalues --   -0.39574  -0.39348  -0.38874  -0.38532  -0.38443
 Alpha  occ. eigenvalues --   -0.37585  -0.37191  -0.37130  -0.36872  -0.36413
 Alpha  occ. eigenvalues --   -0.36221  -0.35781  -0.35403  -0.34915  -0.34703
 Alpha  occ. eigenvalues --   -0.34148  -0.34032  -0.33721  -0.33290  -0.32827
 Alpha  occ. eigenvalues --   -0.32659  -0.32461  -0.32279  -0.30259  -0.29887
 Alpha  occ. eigenvalues --   -0.28757  -0.28535  -0.26641  -0.25745  -0.25494
 Alpha  occ. eigenvalues --   -0.25133  -0.24901  -0.24676  -0.23738  -0.21249
 Alpha  occ. eigenvalues --   -0.17422
 Alpha virt. eigenvalues --   -0.09965  -0.05987  -0.04509  -0.01707   0.00944
 Alpha virt. eigenvalues --    0.01435   0.02286   0.03022   0.03748   0.03916
 Alpha virt. eigenvalues --    0.04194   0.04658   0.05060   0.05535   0.05747

 Mulliken charges:
               1
     1  O   -0.200972
     2  O   -0.204715
     3  O   -0.237222
     4  O   -0.210178
     5  O   -0.168736
     6  O   -0.150731
     7  N   -0.144510
     8  N   -0.052685
     9  N   -0.170083
    10  N   -0.309936
    11  C   -0.148500
    12  C    0.096528
    13  C   -0.130188
    14  C    0.052732
    15  C   -0.026329
    16  C    0.020179
    17  C   -0.071888
    18  C   -0.184082
    19  C    0.308145
    20  C    0.021415
    21  C    0.068916
    22  C    0.065760
    23  C    0.034254
    24  C   -0.000991
    25  C   -0.124919
    26  C    0.030187
    27  C    0.120449
    28  C   -0.076012
    29  C    0.000789
    30  C    0.081115
    31  C   -0.133677
    32  C    0.057095
    33  C   -0.172846
    34  C    0.055645
    35  C   -0.083197
    36  C   -0.205427
    37  C    0.144386
    38  C    0.135907
    39  C    0.137877
    40  C   -0.036782
    41  C    0.161687
    42  C    0.181694
    43  C   -0.010122
    44  H    0.186868
    45  H    0.013784
    46  H   -0.077423
    47  H   -0.023258
    48  H   -0.008675
    49  H    0.026536
    50  H    0.048372
    51  H    0.028347
    52  H    0.174114
    53  H    0.043336
    54  H    0.037786
    55  H    0.004126
    56  H    0.137214
    57  H    0.060298
    58  H    0.061357
    59  H    0.076690
    60  H    0.001563
    61  H    0.058278
    62  H    0.025624
    63  H   -0.003810
    64  H   -0.022096
    65  H    0.001496
    66  H    0.009676
    67  H   -0.003134
    68  H   -0.002828
    69  H    0.021776
    70  H    0.004269
    71  H    0.041151
    72  H    0.035424
    73  H    0.060272
    74  H    0.015242
    75  H    0.014585
    76  H    0.008617
    77  H   -0.016523
    78  H    0.032921
    79  H    0.029862
    80  H    0.196053
    81  H    0.182080
 Sum of Mulliken charges =  -0.00000

 Dipole moment (field-independent basis, Debye):
    X=             -1.5623    Y=              1.0284    Z=             -0.7541  Tot=              2.0167
 Quadrupole moment (field-independent basis, Debye-Ang):
   XX=           -253.9202   YY=           -241.3824   ZZ=           -250.5551
   XY=             22.0131   XZ=             13.5421   YZ=            -14.6769

 Normal termination of Gaussian 16 at Mon Jul  1 08:14:09 2019.
