 Gaussian 16, Revision A.03,
 Gaussian 16:  ES64L-G16RevA.03 25-Dec-2016

 --------------------------
 # td=(NStates=1) B3LYP/SVP
 --------------------------

 --
 TD
 --
 Symbolic Z-matrix:
 Charge =  0 Multiplicity = 1

                         Standard orientation:
 ---------------------------------------------------------------------
 Center     Atomic      Atomic             Coordinates (Angstroms)
 Number     Number       Type             X           Y           Z
 ---------------------------------------------------------------------
      1          8           0        4.381720   -4.839343   -1.771162
      2          8           0       -2.900349   -4.647956   -1.282263
      3          8           0       -6.882180   -1.597440   -1.932809
      4          8           0       -3.852008   -3.100645    0.117474
      5          8           0       -7.494090   -0.610549    0.001148
      6          8           0        3.035735    2.358713    0.413719
      7          7           0        0.196299   -0.461608    0.650571
      8          7           0       -1.553026    1.866972    0.451713
      9          7           0        3.324811   -3.192376   -0.585126
     10          7           0        0.755122    2.813921    0.197126
     11          6           0       -0.655396   -2.387025    1.504681
     12          6           0       -0.980845   -1.026665    0.987004
     13          6           0        0.715115   -2.648125    1.207902
     14          6           0        1.302176   -1.322045    0.728666
     15          6           0       -3.806523    1.594672    0.323089
     16          6           0       -2.492064    0.852984    0.493359
     17          6           0       -2.276288   -0.458145    0.862359
     18          6           0       -3.579488    2.892601   -0.172138
     19          6           0       -1.628957   -3.481784    1.992552
     20          6           0        5.525019   -2.754497   -1.304412
     21          6           0        3.526963   -1.856754   -0.225275
     22          6           0       -2.125532    3.043521    0.061268
     23          6           0        4.938661   -1.539621   -0.567822
     24          6           0       -5.130869    0.847529    0.285484
     25          6           0        2.600764   -1.065560    0.443156
     26          6           0        1.436672   -3.846866    1.706321
     27          6           0        4.323165   -3.751673   -1.262186
     28          6           0       -1.994128   -4.535533    0.977547
     29          6           0       -5.205779   -0.380241   -0.800555
     30          6           0       -4.585277    3.892755   -0.439402
     31          6           0       -1.264132    4.154961   -0.273905
     32          6           0        6.846011   -3.397806   -0.852287
     33          6           0        5.722483   -0.433458   -0.099519
     34          6           0        0.114294    3.946068   -0.221529
     35          6           0        1.116705    5.025871   -0.534022
     36          6           0        2.291560    4.646134   -0.271381
     37          6           0       -2.998075   -3.915146   -0.097460
     38          6           0        5.413480    0.600460    0.813693
     39          6           0       -6.674000   -0.837239   -0.783923
     40          6           0        3.644814    5.256258   -0.421957
     41          6           0        2.128312    3.135571    0.155141
     42          6           0        0.680894    6.461334   -0.859465
     43          6           0        4.278302    5.594593    0.852821
     44          1           0        0.524057    0.527857    0.373889
     45          1           0       -3.187919   -0.959389    1.072431
     46          1           0       -2.639913   -2.991173    2.303032
     47          1           0       -1.089781   -3.736867    2.826373
     48          1           0        5.439225   -2.449567   -2.472706
     49          1           0       -5.351819    0.624183    1.409517
     50          1           0       -6.093083    1.644212    0.088275
     51          1           0        2.881794    0.003822    0.410144
     52          1           0       -0.654050    1.813525    0.656809
     53          1           0        1.248177   -4.824961    1.055265
     54          1           0        2.461740   -3.475934    1.799259
     55          1           0        0.989376   -4.070755    2.661136
     56          1           0        2.539608   -3.752800   -0.456536
     57          1           0       -1.040763   -4.886141    0.463939
     58          1           0       -2.520631   -5.338484    1.383468
     59          1           0       -4.631727   -1.199211   -0.525054
     60          1           0       -4.893594    0.095380   -1.787591
     61          1           0       -4.452939    4.681118    0.215388
     62          1           0       -5.554333    3.553858    0.084871
     63          1           0       -4.658586    4.081337   -1.400516
     64          1           0       -1.747709    5.286236   -0.160654
     65          1           0        7.636609   -2.628742   -1.173541
     66          1           0        6.915470   -4.347146   -1.440444
     67          1           0        7.082848   -3.581033    0.366536
     68          1           0        6.814627   -0.594432   -0.335869
     69          1           0        4.525023    1.344694    0.258363
     70          1           0        6.336296    1.284566    0.969664
     71          1           0        5.109077    0.196591    1.800716
     72          1           0        3.377976    6.391189   -0.920153
     73          1           0        4.199347    4.620429   -1.183106
     74          1           0       -0.106331    6.450900   -1.649267
     75          1           0        1.577847    7.039912   -0.922448
     76          1           0        0.421626    7.088529    0.044732
     77          1           0        3.545307    6.116708    1.458176
     78          1           0        5.341496    6.030539    0.758030
     79          1           0        4.417266    4.564403    1.275663
     80          1           0       -3.629220   -4.207814   -1.924923
     81          1           0       -7.753689   -1.928919   -1.998539
 ---------------------------------------------------------------------

 SCF Done:  E(RB3LYP) =  -1949.08249120     A.U. after   16 cycles

 Excitation energies and oscillator strengths:

 Excited State   1:      Singlet-A      1.7195 eV  721.06 nm  f=0.3456  <S**2>=0.000
     156 ->157         0.70961
     156 <-157        -0.12526
 This state for optimization and/or second-order correction.
 Total Energy, E(TD-HF/TD-DFT) =  -1949.01930211
 Copying the excited state density for this state as the 1-particle RhoCI density.

 The electronic state is 1-A.
 Alpha  occ. eigenvalues --  -19.20080 -19.16713 -19.16015 -19.13630 -19.10986
 Alpha  occ. eigenvalues --  -19.10430 -14.38622 -14.37415 -14.35805 -14.29265
 Alpha  occ. eigenvalues --  -10.34513 -10.31961 -10.28240 -10.27077 -10.25486
 Alpha  occ. eigenvalues --  -10.24480 -10.24193 -10.23975 -10.23149 -10.22629
 Alpha  occ. eigenvalues --  -10.22448 -10.22099 -10.21215 -10.21102 -10.20983
 Alpha  occ. eigenvalues --  -10.20952 -10.20942 -10.20849 -10.20790 -10.20560
 Alpha  occ. eigenvalues --  -10.20554 -10.20507 -10.20182 -10.20141 -10.20132
 Alpha  occ. eigenvalues --  -10.19612 -10.19045 -10.18823 -10.18502 -10.18428
 Alpha  occ. eigenvalues --  -10.18256 -10.18029 -10.17669  -1.10168  -1.10127
 Alpha  occ. eigenvalues --   -1.04313  -1.02020  -1.01916  -1.01860  -0.98690
 Alpha  occ. eigenvalues --   -0.97345  -0.96470  -0.91106  -0.82354  -0.81950
 Alpha  occ. eigenvalues --   -0.81766  -0.80879  -0.80526  -0.79140  -0.77466
 Alpha  occ. eigenvalues --   -0.76577  -0.75889  -0.75394  -0.74788  -0.72761
 Alpha  occ. eigenvalues --   -0.71926  -0.70145  -0.69259  -0.67880  -0.67427
 Alpha  occ. eigenvalues --   -0.67389  -0.65136  -0.63391  -0.62230  -0.60968
 Alpha  occ. eigenvalues --   -0.60021  -0.59751  -0.58543  -0.57763  -0.57114
 Alpha  occ. eigenvalues --   -0.56057  -0.54903  -0.54244  -0.53532  -0.52695
 Alpha  occ. eigenvalues --   -0.51759  -0.51596  -0.51378  -0.50421  -0.49818
 Alpha  occ. eigenvalues --   -0.49402  -0.49283  -0.48478  -0.48112  -0.47704
 Alpha  occ. eigenvalues --   -0.47594  -0.47129  -0.46790  -0.46047  -0.45725
 Alpha  occ. eigenvalues --   -0.45194  -0.45017  -0.44610  -0.44292  -0.43928
 Alpha  occ. eigenvalues --   -0.43429  -0.43113  -0.43036  -0.42733  -0.42486
 Alpha  occ. eigenvalues --   -0.42200  -0.41882  -0.41832  -0.41587  -0.40998
 Alpha  occ. eigenvalues --   -0.40827  -0.40757  -0.40398  -0.39996  -0.39851
 Alpha  occ. eigenvalues --   -0.39404  -0.38914  -0.38793  -0.38212  -0.38179
 Alpha  occ. eigenvalues --   -0.37527  -0.37346  -0.37277  -0.36896  -0.36569
 Alpha  occ. eigenvalues --   -0.36260  -0.35644  -0.35092  -0.34880  -0.34606
 Alpha  occ. eigenvalues --   -0.33984  -0.33802  -0.33483  -0.32991  -0.32772
 Alpha  occ. eigenvalues --   -0.32634  -0.31066  -0.30763  -0.30408  -0.30080
 Alpha  occ. eigenvalues --   -0.29054  -0.28057  -0.26681  -0.25549  -0.25421
 Alpha  occ. eigenvalues --   -0.25214  -0.24774  -0.24223  -0.23654  -0.21529
 Alpha  occ. eigenvalues --   -0.17098
 Alpha virt. eigenvalues --   -0.10226  -0.05573  -0.04019  -0.02138   0.00543
 Alpha virt. eigenvalues --    0.01289   0.01771   0.02268   0.03231   0.03520
 Alpha virt. eigenvalues --    0.03745   0.04218   0.05189   0.05989   0.06401

 Mulliken charges:
               1
     1  O   -0.208502
     2  O   -0.251799
     3  O   -0.221019
     4  O   -0.199153
     5  O   -0.153931
     6  O   -0.229130
     7  N   -0.103530
     8  N    0.015622
     9  N   -0.041935
    10  N   -0.341722
    11  C   -0.157636
    12  C    0.108677
    13  C   -0.191205
    14  C    0.101312
    15  C   -0.071778
    16  C    0.022658
    17  C   -0.021282
    18  C   -0.161579
    19  C    0.108395
    20  C   -0.085428
    21  C    0.081369
    22  C    0.065635
    23  C   -0.065032
    24  C   -0.047576
    25  C   -0.112060
    26  C    0.056624
    27  C    0.052944
    28  C    0.063673
    29  C    0.035290
    30  C    0.201982
    31  C   -0.176272
    32  C   -0.000541
    33  C   -0.121956
    34  C    0.107809
    35  C   -0.106358
    36  C   -0.170736
    37  C    0.153559
    38  C   -0.027267
    39  C    0.126757
    40  C   -0.000616
    41  C    0.175181
    42  C    0.118763
    43  C    0.023717
    44  H    0.179568
    45  H   -0.007867
    46  H    0.028802
    47  H   -0.014460
    48  H    0.062711
    49  H    0.041620
    50  H    0.033866
    51  H    0.003961
    52  H    0.054526
    53  H    0.047604
    54  H    0.041471
    55  H    0.016016
    56  H    0.103794
    57  H    0.040411
    58  H    0.031876
    59  H    0.029376
    60  H    0.054980
    61  H   -0.005394
    62  H    0.010320
    63  H   -0.001144
    64  H    0.043669
    65  H    0.032457
    66  H    0.050501
    67  H    0.048200
    68  H    0.004086
    69  H    0.149599
    70  H    0.014709
    71  H    0.041835
    72  H    0.003279
    73  H    0.037234
    74  H    0.043223
    75  H   -0.029997
    76  H    0.016048
    77  H    0.011562
    78  H    0.029782
    79  H    0.020958
    80  H    0.224303
    81  H    0.154598
 Sum of Mulliken charges =  -0.00000

 Dipole moment (field-independent basis, Debye):
    X=             -3.0022    Y=              0.4851    Z=              0.3165  Tot=              3.0576
 Quadrupole moment (field-independent basis, Debye-Ang):
   XX=           -251.6979   YY=           -245.2251   ZZ=           -255.2391
   XY=             14.8643   XZ=             15.6310   YZ=            -10.7771

 Normal termination of Gaussian 16 at Tue Jul  2 22:44:31 2019.
