 Gaussian 16, Revision A.03,
 Gaussian 16:  ES64L-G16RevA.03 25-Dec-2016

 --------------------------
 # td=(NStates=1) B3LYP/SVP
 --------------------------

 --
 TD
 --
 Symbolic Z-matrix:
 Charge =  0 Multiplicity = 1

                         Standard orientation:
 ---------------------------------------------------------------------
 Center     Atomic      Atomic             Coordinates (Angstroms)
 Number     Number       Type             X           Y           Z
 ---------------------------------------------------------------------
      1          8           0        4.547354   -4.849944   -1.737630
      2          8           0       -2.798938   -4.927291   -1.069693
      3          8           0       -6.939160   -1.767557   -1.769943
      4          8           0       -3.883432   -3.226910    0.015170
      5          8           0       -7.538340   -0.553735    0.002016
      6          8           0        3.038452    2.443672    0.363437
      7          7           0        0.247347   -0.576960    0.489836
      8          7           0       -1.534190    1.865648    0.457591
      9          7           0        3.398521   -3.171732   -0.660533
     10          7           0        0.811868    2.870424    0.045385
     11          6           0       -0.670867   -2.347352    1.391333
     12          6           0       -0.949716   -1.019642    0.960676
     13          6           0        0.716855   -2.648744    1.199519
     14          6           0        1.346075   -1.460161    0.622357
     15          6           0       -3.818753    1.524355    0.327065
     16          6           0       -2.542870    0.872012    0.602165
     17          6           0       -2.271300   -0.400015    0.773921
     18          6           0       -3.598530    2.825286   -0.051272
     19          6           0       -1.649264   -3.300468    1.964124
     20          6           0        5.601755   -2.619831   -1.276699
     21          6           0        3.495400   -1.777696   -0.297877
     22          6           0       -2.137701    3.015810   -0.042853
     23          6           0        4.978109   -1.561565   -0.598848
     24          6           0       -5.160077    0.765515    0.298803
     25          6           0        2.578566   -0.993651    0.284485
     26          6           0        1.473552   -3.795046    1.786329
     27          6           0        4.527595   -3.820646   -1.276532
     28          6           0       -2.010990   -4.481182    1.083244
     29          6           0       -5.314088   -0.245386   -0.836739
     30          6           0       -4.674222    3.820159   -0.479500
     31          6           0       -1.393276    4.098098   -0.304793
     32          6           0        6.881506   -3.364115   -0.661705
     33          6           0        5.767684   -0.540154   -0.051190
     34          6           0        0.049494    4.052557   -0.251469
     35          6           0        1.001144    5.212933   -0.453848
     36          6           0        2.237985    4.684540   -0.246600
     37          6           0       -3.028179   -4.051326   -0.050727
     38          6           0        5.398305    0.657973    0.817862
     39          6           0       -6.631936   -0.900206   -0.843653
     40          6           0        3.621515    5.354321   -0.395065
     41          6           0        2.188878    3.260169    0.088299
     42          6           0        0.502082    6.474782   -0.835525
     43          6           0        4.210454    5.751251    1.033940
     44          1           0        0.304035    0.432197    0.322148
     45          1           0       -3.122312   -1.037680    0.876146
     46          1           0       -2.511877   -2.708445    2.294161
     47          1           0       -1.158119   -3.805814    2.779998
     48          1           0        5.701873   -2.594595   -2.357645
     49          1           0       -5.159659    0.259350    1.286601
     50          1           0       -6.004400    1.424922    0.333636
     51          1           0        2.751915    0.072842    0.332203
     52          1           0       -0.533865    1.903842    0.491867
     53          1           0        1.927012   -4.609968    0.812694
     54          1           0        2.558570   -3.456381    2.083028
     55          1           0        0.769318   -4.389489    2.671469
     56          1           0        2.525512   -3.598826   -0.876569
     57          1           0       -1.051196   -4.975637    0.864534
     58          1           0       -2.551214   -5.099751    1.673845
     59          1           0       -4.634738   -1.141473   -0.937047
     60          1           0       -5.103861    0.275595   -1.777039
     61          1           0       -4.285261    4.825801   -0.088200
     62          1           0       -5.579852    3.240657   -0.004072
     63          1           0       -4.572247    3.980022   -1.617891
     64          1           0       -1.597745    5.257369   -0.463195
     65          1           0        7.864530   -2.638996   -0.686696
     66          1           0        7.058449   -4.428581   -1.496729
     67          1           0        6.838581   -3.628585    0.253817
     68          1           0        6.743275   -0.802067   -0.560077
     69          1           0        5.007638    1.521940    0.050757
     70          1           0        6.361717    1.021516    1.446192
     71          1           0        4.535535    0.255551    1.472882
     72          1           0        3.408348    6.289330   -0.863472
     73          1           0        4.269092    4.569914   -0.822175
     74          1           0       -0.018249    6.245754   -1.891197
     75          1           0        1.510781    7.181819   -0.791461
     76          1           0       -0.167744    7.078203   -0.071433
     77          1           0        3.591730    6.520225    1.591926
     78          1           0        5.213526    6.167055    0.948992
     79          1           0        4.399814    4.866647    1.598008
     80          1           0       -3.619253   -4.668040   -1.729009
     81          1           0       -7.893084   -1.919222   -1.579172
 ---------------------------------------------------------------------

 SCF Done:  E(RB3LYP) =  -1949.03347649     A.U. after   16 cycles

 Excitation energies and oscillator strengths:

 Excited State   1:      Singlet-A      1.6580 eV  747.78 nm  f=0.2297  <S**2>=0.000
     156 ->157         0.70755
 This state for optimization and/or second-order correction.
 Total Energy, E(TD-HF/TD-DFT) =  -1948.97254487
 Copying the excited state density for this state as the 1-particle RhoCI density.

 The electronic state is 1-A.
 Alpha  occ. eigenvalues --  -19.20239 -19.19987 -19.15699 -19.13048 -19.11474
 Alpha  occ. eigenvalues --  -19.11427 -14.36445 -14.35508 -14.35482 -14.29027
 Alpha  occ. eigenvalues --  -10.33766 -10.32356 -10.29244 -10.26897 -10.24604
 Alpha  occ. eigenvalues --  -10.24089 -10.23689 -10.23124 -10.22884 -10.22849
 Alpha  occ. eigenvalues --  -10.22770 -10.22316 -10.22017 -10.21447 -10.21048
 Alpha  occ. eigenvalues --  -10.20861 -10.20757 -10.20742 -10.20614 -10.20599
 Alpha  occ. eigenvalues --  -10.20317 -10.20176 -10.20106 -10.20012 -10.19870
 Alpha  occ. eigenvalues --  -10.19672 -10.19569 -10.19312 -10.19259 -10.19133
 Alpha  occ. eigenvalues --  -10.18609 -10.18194 -10.17976  -1.11663  -1.10757
 Alpha  occ. eigenvalues --   -1.08956  -1.02708  -1.02673  -0.97464  -0.97182
 Alpha  occ. eigenvalues --   -0.96357  -0.93457  -0.89664  -0.82921  -0.81890
 Alpha  occ. eigenvalues --   -0.81562  -0.81137  -0.79854  -0.79522  -0.78361
 Alpha  occ. eigenvalues --   -0.76795  -0.76498  -0.75077  -0.73574  -0.71902
 Alpha  occ. eigenvalues --   -0.70520  -0.69634  -0.68525  -0.68259  -0.66701
 Alpha  occ. eigenvalues --   -0.66373  -0.65014  -0.63418  -0.62267  -0.61699
 Alpha  occ. eigenvalues --   -0.60480  -0.59417  -0.58658  -0.57198  -0.56686
 Alpha  occ. eigenvalues --   -0.56484  -0.55320  -0.53596  -0.52901  -0.52005
 Alpha  occ. eigenvalues --   -0.51449  -0.51267  -0.50931  -0.50690  -0.50370
 Alpha  occ. eigenvalues --   -0.50116  -0.49189  -0.48956  -0.48744  -0.47572
 Alpha  occ. eigenvalues --   -0.47368  -0.46731  -0.46205  -0.46111  -0.45787
 Alpha  occ. eigenvalues --   -0.45321  -0.44960  -0.44774  -0.44385  -0.43966
 Alpha  occ. eigenvalues --   -0.43703  -0.43222  -0.42897  -0.42484  -0.42431
 Alpha  occ. eigenvalues --   -0.41841  -0.41538  -0.41203  -0.41134  -0.40567
 Alpha  occ. eigenvalues --   -0.40485  -0.40136  -0.39900  -0.39685  -0.39244
 Alpha  occ. eigenvalues --   -0.38876  -0.38506  -0.37947  -0.37828  -0.37723
 Alpha  occ. eigenvalues --   -0.37574  -0.37540  -0.37124  -0.36533  -0.36283
 Alpha  occ. eigenvalues --   -0.36255  -0.36214  -0.35957  -0.35510  -0.35240
 Alpha  occ. eigenvalues --   -0.34900  -0.34429  -0.34258  -0.33731  -0.33251
 Alpha  occ. eigenvalues --   -0.32703  -0.32239  -0.30991  -0.30475  -0.29762
 Alpha  occ. eigenvalues --   -0.27782  -0.27214  -0.26861  -0.26258  -0.25833
 Alpha  occ. eigenvalues --   -0.24768  -0.24197  -0.23407  -0.23229  -0.21604
 Alpha  occ. eigenvalues --   -0.17686
 Alpha virt. eigenvalues --   -0.10731  -0.05952  -0.03688  -0.01132  -0.00486
 Alpha virt. eigenvalues --    0.00993   0.01549   0.01958   0.02719   0.02889
 Alpha virt. eigenvalues --    0.03348   0.04290   0.04461   0.05086   0.05386

 Mulliken charges:
               1
     1  O   -0.095677
     2  O   -0.226156
     3  O   -0.134483
     4  O   -0.197046
     5  O   -0.327927
     6  O   -0.187707
     7  N   -0.083133
     8  N   -0.125019
     9  N   -0.209166
    10  N   -0.389388
    11  C   -0.133553
    12  C    0.040957
    13  C   -0.102752
    14  C    0.131806
    15  C   -0.098765
    16  C    0.138509
    17  C   -0.060599
    18  C   -0.146000
    19  C    0.096332
    20  C   -0.075064
    21  C    0.141156
    22  C    0.192183
    23  C   -0.069971
    24  C    0.136987
    25  C   -0.129441
    26  C   -0.061375
    27  C    0.093015
    28  C    0.082041
    29  C    0.008547
    30  C    0.067502
    31  C   -0.151872
    32  C    0.020105
    33  C   -0.107113
    34  C   -0.015247
    35  C   -0.021606
    36  C   -0.203280
    37  C    0.147105
    38  C    0.003621
    39  C    0.136522
    40  C    0.117709
    41  C    0.187714
    42  C   -0.048855
    43  C   -0.011985
    44  H    0.113814
    45  H   -0.014411
    46  H    0.002021
    47  H   -0.018774
    48  H    0.031004
    49  H    0.023101
    50  H    0.002596
    51  H    0.016265
    52  H    0.119267
    53  H    0.017955
    54  H    0.052118
    55  H    0.054213
    56  H    0.123236
    57  H    0.033504
    58  H    0.000500
    59  H    0.054131
    60  H    0.034658
    61  H    0.034004
    62  H    0.063872
    63  H    0.043493
    64  H    0.006340
    65  H    0.032330
    66  H    0.055754
    67  H   -0.028825
    68  H   -0.005377
    69  H    0.100605
    70  H    0.038911
    71  H    0.056738
    72  H   -0.014343
    73  H    0.024376
    74  H    0.073637
    75  H    0.037155
    76  H    0.065704
    77  H    0.018880
    78  H    0.004072
    79  H    0.017539
    80  H    0.211093
    81  H    0.190220
 Sum of Mulliken charges =  -0.00000

 Dipole moment (field-independent basis, Debye):
    X=             -2.6445    Y=              2.1351    Z=             -1.6875  Tot=              3.7947
 Quadrupole moment (field-independent basis, Debye-Ang):
   XX=           -259.8952   YY=           -235.5445   ZZ=           -254.0418
   XY=             17.6149   XZ=             16.2991   YZ=             -8.2475

 Normal termination of Gaussian 16 at Wed Jul  3 03:45:17 2019.
