 Gaussian 16, Revision A.03,
 Gaussian 16:  ES64L-G16RevA.03 25-Dec-2016

 --------------------------
 # td=(NStates=1) B3LYP/SVP
 --------------------------

 --
 TD
 --
 Symbolic Z-matrix:
 Charge =  0 Multiplicity = 1

                         Standard orientation:
 ---------------------------------------------------------------------
 Center     Atomic      Atomic             Coordinates (Angstroms)
 Number     Number       Type             X           Y           Z
 ---------------------------------------------------------------------
      1          8           0        4.304753   -4.896284   -1.924805
      2          8           0       -2.908603   -4.971517   -0.948241
      3          8           0       -6.987272   -1.419698   -1.892547
      4          8           0       -3.842053   -3.279820    0.075546
      5          8           0       -7.603936   -0.659677    0.025794
      6          8           0        3.030406    2.424968    0.396574
      7          7           0        0.296342   -0.442236    0.529820
      8          7           0       -1.605837    1.888278    0.452209
      9          7           0        3.209018   -3.183883   -0.705773
     10          7           0        0.742269    2.925171    0.019584
     11          6           0       -0.650846   -2.443484    1.353770
     12          6           0       -0.962416   -1.081359    0.930177
     13          6           0        0.721499   -2.582499    1.225099
     14          6           0        1.254891   -1.379519    0.693255
     15          6           0       -3.787459    1.539873    0.227599
     16          6           0       -2.525868    0.956960    0.564800
     17          6           0       -2.282215   -0.445242    0.868734
     18          6           0       -3.526281    2.846337   -0.269886
     19          6           0       -1.498471   -3.385406    2.159253
     20          6           0        5.481120   -2.751373   -1.425184
     21          6           0        3.576289   -1.910762   -0.260228
     22          6           0       -2.064230    2.985977    0.035815
     23          6           0        4.960357   -1.673809   -0.487738
     24          6           0       -5.114343    0.854800    0.278443
     25          6           0        2.566732   -1.022987    0.324630
     26          6           0        1.569562   -3.795075    1.642395
     27          6           0        4.355475   -3.709121   -1.465157
     28          6           0       -2.011392   -4.470414    1.259407
     29          6           0       -5.351109   -0.088150   -0.820391
     30          6           0       -4.455304    3.911789   -0.654866
     31          6           0       -1.295877    4.097567   -0.372751
     32          6           0        6.834145   -3.283261   -1.171695
     33          6           0        5.761534   -0.664040    0.094360
     34          6           0        0.133198    4.061662   -0.316669
     35          6           0        1.127391    5.276763   -0.425920
     36          6           0        2.309619    4.706744   -0.190866
     37          6           0       -2.935732   -4.171202    0.136009
     38          6           0        5.277419    0.528062    0.865446
     39          6           0       -6.684799   -0.761746   -0.835546
     40          6           0        3.694218    5.260387   -0.189307
     41          6           0        2.062592    3.233382    0.176776
     42          6           0        0.652449    6.706008   -0.834678
     43          6           0        4.303091    5.365898    1.256125
     44          1           0        0.424139    0.444318    0.305665
     45          1           0       -3.097358   -1.016967    1.099390
     46          1           0       -2.277319   -2.830740    2.311481
     47          1           0       -1.041357   -3.647725    2.948514
     48          1           0        5.374743   -2.403563   -2.434073
     49          1           0       -5.221280    0.194770    1.359506
     50          1           0       -6.043759    1.499710    0.221229
     51          1           0        2.745421    0.000245    0.405073
     52          1           0       -0.484195    1.981451    0.524814
     53          1           0        1.849891   -4.647415    0.872002
     54          1           0        2.647560   -3.544640    1.792621
     55          1           0        1.140178   -4.311651    2.667401
     56          1           0        2.173472   -3.568890   -0.655296
     57          1           0       -1.295108   -5.079293    0.679621
     58          1           0       -2.766371   -5.094096    1.937804
     59          1           0       -4.716741   -0.948399   -0.876761
     60          1           0       -5.068017    0.288619   -1.920815
     61          1           0       -4.409854    4.664411    0.093149
     62          1           0       -5.330006    3.367788   -0.544711
     63          1           0       -4.469649    4.112465   -1.716214
     64          1           0       -1.602668    5.089085   -0.630451
     65          1           0        7.662553   -2.563979   -1.126494
     66          1           0        7.161841   -4.261577   -1.698406
     67          1           0        6.850175   -3.870141   -0.027740
     68          1           0        6.708673   -0.660006   -0.154447
     69          1           0        5.099390    1.657849    0.388592
     70          1           0        6.303208    0.961959    1.478521
     71          1           0        4.348137    0.264991    1.475068
     72          1           0        3.809032    6.066978   -0.807906
     73          1           0        4.316149    4.691987   -0.912717
     74          1           0        0.284619    6.632759   -1.684384
     75          1           0        1.596927    7.193456   -1.118234
     76          1           0        0.048326    7.160722   -0.192987
     77          1           0        3.734764    6.252277    1.803083
     78          1           0        5.450303    5.789076    1.197776
     79          1           0        4.233228    4.477318    1.720915
     80          1           0       -3.738372   -4.628615   -1.318677
     81          1           0       -7.811018   -1.886205   -1.618635
 ---------------------------------------------------------------------

 SCF Done:  E(RB3LYP) =  -1948.99179911     A.U. after   19 cycles

 Excitation energies and oscillator strengths:

 Excited State   1:      Singlet-A      1.7105 eV  724.86 nm  f=0.3670  <S**2>=0.000
     156 ->157         0.71176
     156 <-157        -0.13127
 This state for optimization and/or second-order correction.
 Total Energy, E(TD-HF/TD-DFT) =  -1948.92894074
 Copying the excited state density for this state as the 1-particle RhoCI density.

 The electronic state is 1-A.
 Alpha  occ. eigenvalues --  -19.19880 -19.18574 -19.13668 -19.11864 -19.10676
 Alpha  occ. eigenvalues --  -19.09598 -14.38251 -14.37747 -14.35971 -14.29979
 Alpha  occ. eigenvalues --  -10.34147 -10.31299 -10.30909 -10.26560 -10.25446
 Alpha  occ. eigenvalues --  -10.24811 -10.23889 -10.23833 -10.23247 -10.22948
 Alpha  occ. eigenvalues --  -10.22804 -10.22393 -10.22141 -10.22031 -10.21614
 Alpha  occ. eigenvalues --  -10.21485 -10.21205 -10.21136 -10.20739 -10.20595
 Alpha  occ. eigenvalues --  -10.20356 -10.20342 -10.20252 -10.20153 -10.19856
 Alpha  occ. eigenvalues --  -10.19620 -10.18956 -10.18706 -10.18662 -10.18260
 Alpha  occ. eigenvalues --  -10.18253 -10.18057 -10.17627  -1.11989  -1.11967
 Alpha  occ. eigenvalues --   -1.01673  -1.01207  -0.98867  -0.98528  -0.98296
 Alpha  occ. eigenvalues --   -0.96884  -0.94170  -0.91884  -0.85323  -0.82912
 Alpha  occ. eigenvalues --   -0.82663  -0.80606  -0.80044  -0.79758  -0.78593
 Alpha  occ. eigenvalues --   -0.78083  -0.76705  -0.75457  -0.73804  -0.72816
 Alpha  occ. eigenvalues --   -0.72160  -0.71038  -0.70073  -0.69758  -0.68114
 Alpha  occ. eigenvalues --   -0.67854  -0.66301  -0.63880  -0.62580  -0.61259
 Alpha  occ. eigenvalues --   -0.61048  -0.60563  -0.59068  -0.58733  -0.57855
 Alpha  occ. eigenvalues --   -0.56465  -0.55527  -0.54819  -0.54736  -0.53860
 Alpha  occ. eigenvalues --   -0.53339  -0.52914  -0.51494  -0.50912  -0.49892
 Alpha  occ. eigenvalues --   -0.49757  -0.49387  -0.48994  -0.48802  -0.48203
 Alpha  occ. eigenvalues --   -0.47447  -0.47406  -0.46656  -0.46335  -0.46100
 Alpha  occ. eigenvalues --   -0.45641  -0.45490  -0.45284  -0.44756  -0.44530
 Alpha  occ. eigenvalues --   -0.44009  -0.43710  -0.43423  -0.42925  -0.42610
 Alpha  occ. eigenvalues --   -0.42325  -0.42012  -0.41686  -0.41378  -0.41190
 Alpha  occ. eigenvalues --   -0.41104  -0.40804  -0.40485  -0.40197  -0.39951
 Alpha  occ. eigenvalues --   -0.39741  -0.39578  -0.38955  -0.38660  -0.38424
 Alpha  occ. eigenvalues --   -0.38245  -0.37665  -0.37375  -0.37106  -0.37003
 Alpha  occ. eigenvalues --   -0.36975  -0.36603  -0.35789  -0.34876  -0.34420
 Alpha  occ. eigenvalues --   -0.33851  -0.33260  -0.32636  -0.32328  -0.32213
 Alpha  occ. eigenvalues --   -0.32127  -0.31754  -0.30357  -0.29773  -0.29088
 Alpha  occ. eigenvalues --   -0.28160  -0.26960  -0.26830  -0.26649  -0.25646
 Alpha  occ. eigenvalues --   -0.25129  -0.24813  -0.24325  -0.23895  -0.21233
 Alpha  occ. eigenvalues --   -0.17262
 Alpha virt. eigenvalues --   -0.10498  -0.06278  -0.04622  -0.03160  -0.01975
 Alpha virt. eigenvalues --    0.00372   0.01774   0.02742   0.03726   0.04223
 Alpha virt. eigenvalues --    0.04578   0.05316   0.05673   0.05749   0.06004

 Mulliken charges:
               1
     1  O   -0.253720
     2  O   -0.154589
     3  O   -0.118818
     4  O   -0.311682
     5  O   -0.311380
     6  O   -0.291157
     7  N   -0.027122
     8  N    0.033059
     9  N   -0.210451
    10  N   -0.289029
    11  C   -0.195735
    12  C    0.062092
    13  C   -0.141350
    14  C    0.095439
    15  C   -0.034825
    16  C    0.016593
    17  C    0.021493
    18  C   -0.227420
    19  C    0.435251
    20  C    0.111431
    21  C    0.079677
    22  C    0.030597
    23  C   -0.066740
    24  C    0.021195
    25  C   -0.089583
    26  C   -0.019228
    27  C    0.113486
    28  C   -0.007131
    29  C   -0.003154
    30  C    0.244624
    31  C   -0.071072
    32  C   -0.033859
    33  C    0.002502
    34  C   -0.014589
    35  C   -0.142738
    36  C   -0.187455
    37  C    0.106652
    38  C   -0.058204
    39  C    0.104830
    40  C    0.138541
    41  C    0.177676
    42  C    0.309932
    43  C   -0.004367
    44  H    0.057291
    45  H   -0.044822
    46  H   -0.068253
    47  H   -0.057354
    48  H    0.041646
    49  H    0.051841
    50  H    0.036519
    51  H   -0.014113
    52  H    0.195576
    53  H    0.038457
    54  H    0.033315
    55  H    0.043771
    56  H    0.190643
    57  H    0.041847
    58  H    0.072825
    59  H    0.026341
    60  H    0.043801
    61  H    0.027095
    62  H   -0.047156
    63  H    0.013911
    64  H   -0.047734
    65  H    0.041885
    66  H    0.053401
    67  H    0.023795
    68  H   -0.070032
    69  H    0.112879
    70  H    0.009293
    71  H    0.061569
    72  H   -0.058263
    73  H   -0.008147
    74  H   -0.061380
    75  H   -0.006254
    76  H    0.001377
    77  H    0.024456
    78  H    0.021402
    79  H    0.017219
    80  H    0.177079
    81  H    0.184606
 Sum of Mulliken charges =  -0.00000

 Dipole moment (field-independent basis, Debye):
    X=             -0.2037    Y=              0.2198    Z=             -0.2395  Tot=              0.3836
 Quadrupole moment (field-independent basis, Debye-Ang):
   XX=           -260.1536   YY=           -239.9394   ZZ=           -254.0052
   XY=             14.1020   XZ=              7.9541   YZ=            -18.4898

 Normal termination of Gaussian 16 at Sat Jun 29 04:07:26 2019.
