 Gaussian 16, Revision A.03,
 Gaussian 16:  ES64L-G16RevA.03 25-Dec-2016

 --------------------------
 # td=(NStates=1) B3LYP/SVP
 --------------------------

 --
 TD
 --
 Symbolic Z-matrix:
 Charge =  0 Multiplicity = 1

                         Standard orientation:
 ---------------------------------------------------------------------
 Center     Atomic      Atomic             Coordinates (Angstroms)
 Number     Number       Type             X           Y           Z
 ---------------------------------------------------------------------
      1          8           0        4.397070   -4.776955   -1.757129
      2          8           0       -2.937363   -4.818688   -1.264806
      3          8           0       -7.022166   -1.562567   -1.843410
      4          8           0       -3.726868   -3.234585    0.064198
      5          8           0       -7.624934   -0.533196    0.074712
      6          8           0        2.970692    2.422620    0.398368
      7          7           0        0.288689   -0.518871    0.505833
      8          7           0       -1.513533    1.710845    0.219348
      9          7           0        3.434000   -3.000064   -0.586941
     10          7           0        0.709214    2.861222   -0.123554
     11          6           0       -0.644844   -2.413447    1.318194
     12          6           0       -0.916372   -1.114079    0.934250
     13          6           0        0.833423   -2.602768    1.307846
     14          6           0        1.381883   -1.370185    0.702425
     15          6           0       -3.793441    1.444146    0.328093
     16          6           0       -2.568930    0.771645    0.542969
     17          6           0       -2.280395   -0.479275    0.831734
     18          6           0       -3.616992    2.694294   -0.014338
     19          6           0       -1.630990   -3.358397    1.872590
     20          6           0        5.605052   -2.705537   -1.358138
     21          6           0        3.686640   -1.724010   -0.158508
     22          6           0       -2.165981    2.950570   -0.013961
     23          6           0        5.112440   -1.458446   -0.493985
     24          6           0       -5.117761    0.707064    0.473661
     25          6           0        2.685696   -0.891238    0.390381
     26          6           0        1.590897   -3.818754    1.774694
     27          6           0        4.426501   -3.623566   -1.319399
     28          6           0       -2.052118   -4.539866    0.977003
     29          6           0       -5.365969   -0.231279   -0.819689
     30          6           0       -4.525802    3.878193   -0.209202
     31          6           0       -1.386973    4.047461   -0.296978
     32          6           0        6.931490   -3.329598   -0.842281
     33          6           0        5.853782   -0.384370   -0.148891
     34          6           0        0.050566    3.932267   -0.409999
     35          6           0        0.987270    5.120780   -0.500909
     36          6           0        2.153465    4.605582   -0.351715
     37          6           0       -2.955996   -4.147470   -0.116701
     38          6           0        5.540914    0.700681    0.925328
     39          6           0       -6.792241   -0.795044   -0.746146
     40          6           0        3.529998    5.287411   -0.297609
     41          6           0        2.144027    3.172406    0.009095
     42          6           0        0.570836    6.453293   -0.875901
     43          6           0        4.076293    5.526843    1.115248
     44          1           0        0.340165    0.533478    0.361196
     45          1           0       -2.991257   -1.157505    0.873448
     46          1           0       -2.473077   -2.896824    2.136397
     47          1           0       -1.183586   -3.861444    2.709346
     48          1           0        5.707743   -2.225923   -2.499421
     49          1           0       -5.100298    0.231400    1.410308
     50          1           0       -5.979658    1.248700    0.702124
     51          1           0        3.110137    0.011485    0.598304
     52          1           0       -0.577500    1.772651    0.578107
     53          1           0        1.504471   -4.844278    1.294698
     54          1           0        2.661903   -3.459538    1.808820
     55          1           0        1.162705   -3.826268    2.763994
     56          1           0        2.497285   -3.396228   -0.267873
     57          1           0       -1.205986   -4.911068    0.572403
     58          1           0       -2.684125   -5.391473    1.412008
     59          1           0       -4.690461   -1.202213   -0.952899
     60          1           0       -5.348506    0.288764   -1.710583
     61          1           0       -4.208819    4.682651    0.499643
     62          1           0       -5.723023    3.852891   -0.234930
     63          1           0       -4.373993    4.491915   -1.094176
     64          1           0       -2.048025    5.128878   -0.436249
     65          1           0        7.671798   -2.587660   -0.745050
     66          1           0        7.215588   -4.286982   -1.313764
     67          1           0        6.747164   -3.660705    0.173078
     68          1           0        6.915871   -0.144918   -0.418237
     69          1           0        4.882907    1.382571    0.323266
     70          1           0        6.237100    1.273759    1.299434
     71          1           0        4.672145    0.128239    1.727089
     72          1           0        3.484081    6.092382   -0.828628
     73          1           0        4.134201    4.613697   -0.991263
     74          1           0       -0.124828    6.335080   -1.761525
     75          1           0        1.410045    7.138050   -1.458251
     76          1           0        0.213006    6.799554   -0.051633
     77          1           0        3.390764    6.101431    1.834665
     78          1           0        5.040897    6.239081    1.042017
     79          1           0        4.351219    4.566386    1.570906
     80          1           0       -3.637418   -4.429838   -1.813525
     81          1           0       -7.958859   -1.806951   -1.766477
 ---------------------------------------------------------------------

 SCF Done:  E(RB3LYP) =  -1949.07252502     A.U. after   16 cycles

 Excitation energies and oscillator strengths:

 Excited State   1:      Singlet-A      1.7752 eV  698.40 nm  f=0.1807  <S**2>=0.000
     156 ->157         0.70461
 This state for optimization and/or second-order correction.
 Total Energy, E(TD-HF/TD-DFT) =  -1949.00728585
 Copying the excited state density for this state as the 1-particle RhoCI density.

 The electronic state is 1-A.
 Alpha  occ. eigenvalues --  -19.19516 -19.18276 -19.13512 -19.13063 -19.12866
 Alpha  occ. eigenvalues --  -19.09934 -14.36526 -14.36484 -14.34934 -14.29338
 Alpha  occ. eigenvalues --  -10.32318 -10.31870 -10.28580 -10.28255 -10.24367
 Alpha  occ. eigenvalues --  -10.23794 -10.23677 -10.23036 -10.22363 -10.22212
 Alpha  occ. eigenvalues --  -10.21738 -10.21115 -10.20964 -10.20740 -10.20530
 Alpha  occ. eigenvalues --  -10.20451 -10.20339 -10.20288 -10.20209 -10.20069
 Alpha  occ. eigenvalues --  -10.20032 -10.19880 -10.19645 -10.19636 -10.19581
 Alpha  occ. eigenvalues --  -10.19425 -10.18923 -10.18842 -10.18466 -10.18251
 Alpha  occ. eigenvalues --  -10.18216 -10.18162 -10.17616  -1.11650  -1.09966
 Alpha  occ. eigenvalues --   -1.05689  -1.01737  -1.01607  -1.01273  -0.96668
 Alpha  occ. eigenvalues --   -0.95093  -0.94462  -0.93346  -0.82916  -0.82173
 Alpha  occ. eigenvalues --   -0.81277  -0.80668  -0.79965  -0.78183  -0.77289
 Alpha  occ. eigenvalues --   -0.76956  -0.76557  -0.75366  -0.73837  -0.72552
 Alpha  occ. eigenvalues --   -0.71748  -0.70206  -0.69203  -0.68657  -0.68043
 Alpha  occ. eigenvalues --   -0.67442  -0.65060  -0.64376  -0.62436  -0.61854
 Alpha  occ. eigenvalues --   -0.60979  -0.59281  -0.59103  -0.57736  -0.57562
 Alpha  occ. eigenvalues --   -0.56197  -0.55971  -0.53986  -0.53577  -0.52509
 Alpha  occ. eigenvalues --   -0.52343  -0.51944  -0.51116  -0.49748  -0.49549
 Alpha  occ. eigenvalues --   -0.49455  -0.48973  -0.48555  -0.48354  -0.48002
 Alpha  occ. eigenvalues --   -0.47397  -0.47131  -0.46954  -0.45788  -0.45332
 Alpha  occ. eigenvalues --   -0.44995  -0.44568  -0.44312  -0.44162  -0.43568
 Alpha  occ. eigenvalues --   -0.43544  -0.43355  -0.42789  -0.42636  -0.42161
 Alpha  occ. eigenvalues --   -0.41747  -0.41380  -0.41227  -0.41081  -0.40849
 Alpha  occ. eigenvalues --   -0.40599  -0.40322  -0.40258  -0.40066  -0.40007
 Alpha  occ. eigenvalues --   -0.39515  -0.39242  -0.38941  -0.38607  -0.38331
 Alpha  occ. eigenvalues --   -0.38285  -0.37653  -0.37295  -0.36820  -0.36705
 Alpha  occ. eigenvalues --   -0.36535  -0.36206  -0.35951  -0.35398  -0.34862
 Alpha  occ. eigenvalues --   -0.34580  -0.34319  -0.33873  -0.33260  -0.33226
 Alpha  occ. eigenvalues --   -0.32900  -0.32555  -0.30903  -0.30117  -0.29252
 Alpha  occ. eigenvalues --   -0.28715  -0.28461  -0.26773  -0.25767  -0.25164
 Alpha  occ. eigenvalues --   -0.25013  -0.24535  -0.24328  -0.23246  -0.21412
 Alpha  occ. eigenvalues --   -0.17731
 Alpha virt. eigenvalues --   -0.09985  -0.05482  -0.03763  -0.00066   0.00087
 Alpha virt. eigenvalues --    0.01010   0.02226   0.03329   0.03727   0.04391
 Alpha virt. eigenvalues --    0.04718   0.05105   0.05353   0.06095   0.06135

 Mulliken charges:
               1
     1  O   -0.234467
     2  O   -0.150144
     3  O   -0.191668
     4  O   -0.247141
     5  O   -0.217620
     6  O   -0.127622
     7  N   -0.125179
     8  N   -0.169109
     9  N   -0.123890
    10  N   -0.315365
    11  C   -0.142199
    12  C    0.039516
    13  C   -0.194207
    14  C    0.122345
    15  C   -0.101624
    16  C    0.168483
    17  C   -0.003617
    18  C   -0.025888
    19  C    0.223750
    20  C   -0.092545
    21  C   -0.014129
    22  C    0.072061
    23  C    0.030313
    24  C    0.175147
    25  C    0.010223
    26  C    0.039023
    27  C    0.149683
    28  C    0.077541
    29  C   -0.009981
    30  C    0.046230
    31  C   -0.171131
    32  C    0.102131
    33  C   -0.203077
    34  C    0.071436
    35  C   -0.106378
    36  C   -0.238836
    37  C    0.074689
    38  C    0.027567
    39  C    0.123930
    40  C    0.208090
    41  C    0.182232
    42  C    0.124925
    43  C   -0.036002
    44  H    0.143333
    45  H   -0.084587
    46  H   -0.036605
    47  H   -0.016882
    48  H    0.068350
    49  H   -0.007283
    50  H   -0.018590
    51  H   -0.079345
    52  H    0.145807
    53  H    0.058915
    54  H    0.038086
    55  H    0.027174
    56  H    0.153400
    57  H   -0.019266
    58  H    0.053147
    59  H    0.081484
    60  H    0.014980
    61  H    0.020022
    62  H    0.044295
    63  H    0.003485
    64  H    0.022272
    65  H    0.005867
    66  H    0.037003
    67  H   -0.004570
    68  H    0.005001
    69  H    0.067138
    70  H   -0.032459
    71  H    0.053673
    72  H   -0.088729
    73  H    0.004928
    74  H    0.037749
    75  H    0.041042
    76  H   -0.008886
    77  H    0.024257
    78  H    0.023215
    79  H    0.038193
    80  H    0.185440
    81  H    0.171453
 Sum of Mulliken charges =  -0.00000

 Dipole moment (field-independent basis, Debye):
    X=             -2.7410    Y=              3.4897    Z=              0.0306  Tot=              4.4376
 Quadrupole moment (field-independent basis, Debye-Ang):
   XX=           -246.3522   YY=           -235.0941   ZZ=           -254.6609
   XY=             19.6350   XZ=             15.9445   YZ=            -14.3364

 Normal termination of Gaussian 16 at Sat Jun 29 22:06:46 2019.
