 Gaussian 16, Revision A.03,
 Gaussian 16:  ES64L-G16RevA.03 25-Dec-2016

 --------------------------
 # td=(NStates=1) B3LYP/SVP
 --------------------------

 --
 TD
 --
 Symbolic Z-matrix:
 Charge =  0 Multiplicity = 1

                         Standard orientation:
 ---------------------------------------------------------------------
 Center     Atomic      Atomic             Coordinates (Angstroms)
 Number     Number       Type             X           Y           Z
 ---------------------------------------------------------------------
      1          8           0        4.279849   -4.759972   -1.930465
      2          8           0       -2.589082   -4.862853   -1.002889
      3          8           0       -6.999693   -1.776081   -1.725911
      4          8           0       -3.796027   -3.310496    0.258546
      5          8           0       -7.629112   -0.545249    0.010711
      6          8           0        2.994471    2.398582    0.296156
      7          7           0        0.258827   -0.495671    0.517237
      8          7           0       -1.568133    1.762133    0.144236
      9          7           0        3.226961   -3.089407   -0.770911
     10          7           0        0.782952    3.014293    0.009846
     11          6           0       -0.562365   -2.388955    1.380039
     12          6           0       -0.934393   -1.087296    0.870239
     13          6           0        0.809179   -2.559716    1.302978
     14          6           0        1.297490   -1.289231    0.676299
     15          6           0       -3.784828    1.390415    0.199321
     16          6           0       -2.522952    0.864651    0.448528
     17          6           0       -2.193587   -0.442634    0.837404
     18          6           0       -3.534820    2.723365   -0.189256
     19          6           0       -1.474613   -3.365415    2.113766
     20          6           0        5.456267   -2.768606   -1.369072
     21          6           0        3.632316   -1.772196   -0.323329
     22          6           0       -2.123237    2.902358   -0.164397
     23          6           0        5.050691   -1.579060   -0.556556
     24          6           0       -4.962799    0.645417    0.277455
     25          6           0        2.648117   -0.996314    0.323063
     26          6           0        1.704303   -3.582562    1.844362
     27          6           0        4.335655   -3.684480   -1.447835
     28          6           0       -1.804578   -4.499481    1.304680
     29          6           0       -5.358922   -0.385449   -0.843972
     30          6           0       -4.474939    3.819978   -0.626763
     31          6           0       -1.391635    4.131992   -0.281227
     32          6           0        6.734905   -3.386567   -0.920276
     33          6           0        5.789554   -0.534809   -0.152389
     34          6           0       -0.040931    4.104756   -0.259637
     35          6           0        0.940735    5.290168   -0.362950
     36          6           0        2.167206    4.770394   -0.044222
     37          6           0       -2.896241   -4.203078    0.153192
     38          6           0        5.442825    0.616644    0.712225
     39          6           0       -6.778139   -0.946616   -0.818823
     40          6           0        3.464760    5.484945   -0.118224
     41          6           0        2.084923    3.319951    0.156940
     42          6           0        0.476823    6.622978   -0.775915
     43          6           0        4.161594    5.461928    1.203491
     44          1           0        0.180931    0.482710    0.041785
     45          1           0       -3.060964   -1.115832    1.027706
     46          1           0       -2.376989   -2.846071    2.388662
     47          1           0       -1.103808   -3.820249    2.992626
     48          1           0        5.681386   -2.240158   -2.545010
     49          1           0       -5.111143    0.125232    1.293187
     50          1           0       -5.838067    1.405642    0.069036
     51          1           0        2.846617    0.107501    0.497605
     52          1           0       -0.486800    1.730018    0.441258
     53          1           0        1.605340   -4.734861    1.350287
     54          1           0        2.902453   -3.436371    1.711123
     55          1           0        1.242993   -3.916051    2.826816
     56          1           0        2.351558   -3.604802   -0.724109
     57          1           0       -0.949829   -4.964788    0.719065
     58          1           0       -2.399399   -5.363168    1.790915
     59          1           0       -4.697824   -1.265635   -0.817313
     60          1           0       -5.344916    0.122111   -1.891312
     61          1           0       -4.323200    4.832592   -0.117411
     62          1           0       -5.528393    3.647770   -0.242025
     63          1           0       -4.442956    3.895547   -1.611901
     64          1           0       -1.863380    5.122161   -0.355235
     65          1           0        7.681124   -2.704191   -0.934626
     66          1           0        6.940423   -4.181440   -1.450580
     67          1           0        6.703647   -3.819125    0.121641
     68          1           0        6.595067   -0.723265   -0.578836
     69          1           0        4.994444    1.559040    0.191132
     70          1           0        6.402325    0.997061    1.483776
     71          1           0        4.711692    0.294990    1.456618
     72          1           0        3.128888    6.644618   -0.630823
     73          1           0        4.038527    5.039920   -0.961042
     74          1           0       -0.110831    6.445996   -1.536185
     75          1           0        1.109557    7.338664   -0.876062
     76          1           0       -0.274148    6.996032   -0.055182
     77          1           0        3.484106    6.056154    1.774116
     78          1           0        5.087067    6.064313    1.218198
     79          1           0        4.326821    4.538254    1.471028
     80          1           0       -3.192483   -4.277075   -1.720900
     81          1           0       -8.047513   -1.988960   -1.664901
 ---------------------------------------------------------------------

 SCF Done:  E(RB3LYP) =  -1949.03154887     A.U. after   19 cycles

 Excitation energies and oscillator strengths:

 Excited State   1:      Singlet-A      1.7851 eV  694.55 nm  f=0.2935  <S**2>=0.000
     156 ->157         0.70045
     156 <-157        -0.11043
 This state for optimization and/or second-order correction.
 Total Energy, E(TD-HF/TD-DFT) =  -1948.96594784
 Copying the excited state density for this state as the 1-particle RhoCI density.

 The electronic state is 1-A.
 Alpha  occ. eigenvalues --  -19.21609 -19.21013 -19.15170 -19.11697 -19.11069
 Alpha  occ. eigenvalues --  -19.08161 -14.39581 -14.36745 -14.36686 -14.27213
 Alpha  occ. eigenvalues --  -10.34551 -10.31724 -10.29323 -10.25418 -10.25027
 Alpha  occ. eigenvalues --  -10.24779 -10.24058 -10.23365 -10.23050 -10.22823
 Alpha  occ. eigenvalues --  -10.22435 -10.22392 -10.22373 -10.21637 -10.21240
 Alpha  occ. eigenvalues --  -10.21232 -10.20768 -10.20620 -10.20577 -10.20258
 Alpha  occ. eigenvalues --  -10.19778 -10.19745 -10.19368 -10.19302 -10.19130
 Alpha  occ. eigenvalues --  -10.19067 -10.18899 -10.18829 -10.18763 -10.18724
 Alpha  occ. eigenvalues --  -10.17164 -10.16572 -10.15300  -1.13080  -1.09114
 Alpha  occ. eigenvalues --   -1.05771  -1.01043  -1.00039  -0.99954  -0.98292
 Alpha  occ. eigenvalues --   -0.96215  -0.94372  -0.89111  -0.84054  -0.83458
 Alpha  occ. eigenvalues --   -0.83021  -0.81726  -0.79397  -0.78919  -0.78422
 Alpha  occ. eigenvalues --   -0.77599  -0.76961  -0.76091  -0.74689  -0.72886
 Alpha  occ. eigenvalues --   -0.71833  -0.70464  -0.69140  -0.68836  -0.68303
 Alpha  occ. eigenvalues --   -0.67741  -0.66256  -0.65704  -0.62467  -0.61414
 Alpha  occ. eigenvalues --   -0.60271  -0.59431  -0.58963  -0.58117  -0.56844
 Alpha  occ. eigenvalues --   -0.56519  -0.55770  -0.55121  -0.54689  -0.53796
 Alpha  occ. eigenvalues --   -0.52536  -0.51665  -0.51226  -0.50632  -0.50027
 Alpha  occ. eigenvalues --   -0.49685  -0.49545  -0.49133  -0.48589  -0.48285
 Alpha  occ. eigenvalues --   -0.47794  -0.47139  -0.46617  -0.46080  -0.45603
 Alpha  occ. eigenvalues --   -0.45150  -0.44985  -0.44591  -0.44373  -0.44134
 Alpha  occ. eigenvalues --   -0.43803  -0.43734  -0.43530  -0.43142  -0.43063
 Alpha  occ. eigenvalues --   -0.42570  -0.42394  -0.42206  -0.41792  -0.41592
 Alpha  occ. eigenvalues --   -0.41301  -0.40856  -0.40464  -0.39745  -0.39670
 Alpha  occ. eigenvalues --   -0.39441  -0.39002  -0.38858  -0.38731  -0.38498
 Alpha  occ. eigenvalues --   -0.38193  -0.38006  -0.37298  -0.36791  -0.36749
 Alpha  occ. eigenvalues --   -0.36229  -0.35815  -0.35198  -0.35031  -0.34506
 Alpha  occ. eigenvalues --   -0.33942  -0.33767  -0.33143  -0.32787  -0.32236
 Alpha  occ. eigenvalues --   -0.32100  -0.31513  -0.31348  -0.29547  -0.29409
 Alpha  occ. eigenvalues --   -0.27212  -0.26775  -0.26483  -0.26240  -0.25516
 Alpha  occ. eigenvalues --   -0.24708  -0.24374  -0.22907  -0.22340  -0.20813
 Alpha  occ. eigenvalues --   -0.17980
 Alpha virt. eigenvalues --   -0.10665  -0.05716  -0.04475  -0.03587  -0.01603
 Alpha virt. eigenvalues --    0.00460   0.00706   0.01719   0.01983   0.02700
 Alpha virt. eigenvalues --    0.03634   0.04592   0.04961   0.05534   0.05811

 Mulliken charges:
               1
     1  O   -0.160111
     2  O   -0.233294
     3  O   -0.130425
     4  O   -0.280597
     5  O   -0.294926
     6  O   -0.315390
     7  N   -0.030637
     8  N   -0.058907
     9  N   -0.202723
    10  N   -0.323957
    11  C   -0.101452
    12  C    0.027888
    13  C   -0.119491
    14  C    0.047031
    15  C    0.009968
    16  C    0.031919
    17  C   -0.064034
    18  C   -0.160723
    19  C    0.214478
    20  C   -0.089957
    21  C    0.120353
    22  C    0.075767
    23  C   -0.049176
    24  C    0.009781
    25  C   -0.171077
    26  C   -0.028844
    27  C    0.125003
    28  C   -0.042580
    29  C   -0.027394
    30  C    0.124087
    31  C   -0.125376
    32  C    0.090696
    33  C    0.049685
    34  C    0.092705
    35  C   -0.130704
    36  C   -0.193120
    37  C    0.153081
    38  C    0.024168
    39  C    0.103338
    40  C   -0.019403
    41  C    0.185443
    42  C    0.315025
    43  C    0.115279
    44  H    0.164457
    45  H    0.020650
    46  H    0.003643
    47  H   -0.005775
    48  H    0.079954
    49  H    0.044042
    50  H    0.020813
    51  H    0.055870
    52  H    0.177105
    53  H    0.022015
    54  H    0.084735
    55  H    0.026620
    56  H    0.139102
    57  H    0.045769
    58  H    0.050041
    59  H    0.037431
    60  H    0.039548
    61  H    0.026120
    62  H    0.018460
    63  H   -0.002354
    64  H   -0.026214
    65  H    0.034366
    66  H   -0.021637
    67  H    0.013016
    68  H   -0.138266
    69  H    0.106155
    70  H    0.020362
    71  H    0.028668
    72  H   -0.003360
    73  H    0.016211
    74  H   -0.038340
    75  H   -0.055660
    76  H   -0.002962
    77  H   -0.004854
    78  H   -0.003580
    79  H   -0.005488
    80  H    0.242218
    81  H    0.229724
 Sum of Mulliken charges =  -0.00000

 Dipole moment (field-independent basis, Debye):
    X=             -2.6495    Y=             -1.9431    Z=             -1.0455  Tot=              3.4480
 Quadrupole moment (field-independent basis, Debye-Ang):
   XX=           -251.2371   YY=           -243.2276   ZZ=           -251.9111
   XY=              5.9458   XZ=             18.7756   YZ=            -12.6097

 Normal termination of Gaussian 16 at Wed Jul  3 00:33:28 2019.
