 Gaussian 16, Revision A.03,
 Gaussian 16:  ES64L-G16RevA.03 25-Dec-2016

 --------------------------
 # td=(NStates=1) B3LYP/SVP
 --------------------------

 --
 TD
 --
 Symbolic Z-matrix:
 Charge =  0 Multiplicity = 1

                         Standard orientation:
 ---------------------------------------------------------------------
 Center     Atomic      Atomic             Coordinates (Angstroms)
 Number     Number       Type             X           Y           Z
 ---------------------------------------------------------------------
      1          8           0        4.254476   -4.942752   -1.638806
      2          8           0       -2.705667   -4.622461   -1.303558
      3          8           0       -6.898748   -1.645147   -1.913755
      4          8           0       -3.761434   -3.090168    0.085601
      5          8           0       -7.445185   -0.953357    0.182888
      6          8           0        3.034846    2.310193    0.165766
      7          7           0        0.279618   -0.522928    0.561907
      8          7           0       -1.608044    1.820792    0.300436
      9          7           0        3.237930   -3.102166   -0.482710
     10          7           0        0.761569    2.835595   -0.019117
     11          6           0       -0.633632   -2.314827    1.477125
     12          6           0       -0.943167   -1.058817    1.018520
     13          6           0        0.756029   -2.492997    1.353960
     14          6           0        1.353428   -1.404688    0.778315
     15          6           0       -3.817877    1.454656    0.266569
     16          6           0       -2.536521    0.860611    0.517434
     17          6           0       -2.262733   -0.431301    0.815322
     18          6           0       -3.613484    2.751689   -0.055577
     19          6           0       -1.577115   -3.336179    2.041262
     20          6           0        5.487189   -2.803298   -1.369241
     21          6           0        3.622580   -1.809332   -0.113495
     22          6           0       -2.177305    2.951526   -0.046175
     23          6           0        5.044707   -1.531808   -0.574888
     24          6           0       -5.136601    0.773279    0.356561
     25          6           0        2.696935   -1.062796    0.394756
     26          6           0        1.627389   -3.624169    1.758843
     27          6           0        4.239271   -3.783677   -1.240780
     28          6           0       -1.933472   -4.400980    0.960483
     29          6           0       -5.358385   -0.212720   -0.782653
     30          6           0       -4.558414    3.871095   -0.403736
     31          6           0       -1.298283    4.060672   -0.395853
     32          6           0        6.712952   -3.523921   -0.841082
     33          6           0        5.790224   -0.558684   -0.104304
     34          6           0        0.052803    4.049353   -0.237330
     35          6           0        1.014741    5.101297   -0.407910
     36          6           0        2.230950    4.731260   -0.255551
     37          6           0       -2.915970   -3.938799   -0.135203
     38          6           0        5.505532    0.717735    0.629000
     39          6           0       -6.670640   -1.004720   -0.741872
     40          6           0        3.563434    5.342424   -0.337617
     41          6           0        2.128572    3.161600   -0.055698
     42          6           0        0.538797    6.620536   -0.727978
     43          6           0        4.116487    5.750353    1.090099
     44          1           0        0.565624    0.381563    0.046792
     45          1           0       -2.910461   -1.251104    1.277151
     46          1           0       -2.565936   -2.728370    2.450902
     47          1           0       -1.190925   -3.716436    2.842329
     48          1           0        5.465594   -2.603669   -2.537693
     49          1           0       -5.305979    0.002312    1.313024
     50          1           0       -5.911925    1.609792    0.272554
     51          1           0        2.741830    0.054276    0.716028
     52          1           0       -0.620967    1.904506    0.362902
     53          1           0        1.570821   -4.568815    1.073099
     54          1           0        2.654916   -3.378572    1.728304
     55          1           0        1.251997   -3.835037    2.870852
     56          1           0        2.346431   -3.532547   -0.423886
     57          1           0       -0.993938   -4.796617    0.553733
     58          1           0       -2.396892   -5.233422    1.637487
     59          1           0       -4.665012   -1.009144   -1.067316
     60          1           0       -5.111699    0.311320   -1.729786
     61          1           0       -4.571370    4.661701    0.468713
     62          1           0       -5.622404    3.363015   -0.230277
     63          1           0       -4.469651    4.312304   -1.513941
     64          1           0       -1.700576    4.967674   -0.787067
     65          1           0        7.778955   -3.164969   -1.230337
     66          1           0        6.485442   -4.662524   -1.220098
     67          1           0        6.694108   -3.542049    0.315205
     68          1           0        6.764030   -0.557107   -0.409043
     69          1           0        4.947678    1.145842   -0.188907
     70          1           0        6.485947    1.273571    0.907446
     71          1           0        4.727773    0.436929    1.472501
     72          1           0        3.564141    6.198092   -0.941602
     73          1           0        4.215694    4.649249   -0.820825
     74          1           0       -0.040170    6.732923   -1.679354
     75          1           0        1.517961    7.144418   -0.871305
     76          1           0        0.139374    7.025832    0.067892
     77          1           0        3.441100    6.649541    1.435936
     78          1           0        5.148141    6.189171    0.998372
     79          1           0        4.176975    5.023934    1.669970
     80          1           0       -3.467223   -4.471744   -1.815788
     81          1           0       -7.953725   -2.081588   -1.950495
 ---------------------------------------------------------------------

 SCF Done:  E(RB3LYP) =  -1949.08262787     A.U. after   16 cycles

 Excitation energies and oscillator strengths:

 Excited State   1:      Singlet-A      1.9462 eV  637.05 nm  f=0.2722  <S**2>=0.000
     156 ->157         0.70303
 This state for optimization and/or second-order correction.
 Total Energy, E(TD-HF/TD-DFT) =  -1949.01110504
 Copying the excited state density for this state as the 1-particle RhoCI density.

 The electronic state is 1-A.
 Alpha  occ. eigenvalues --  -19.20333 -19.19099 -19.15394 -19.12549 -19.11683
 Alpha  occ. eigenvalues --  -19.09586 -14.36609 -14.36541 -14.36220 -14.28258
 Alpha  occ. eigenvalues --  -10.34632 -10.32046 -10.29494 -10.26185 -10.24527
 Alpha  occ. eigenvalues --  -10.23653 -10.23648 -10.22994 -10.22585 -10.22571
 Alpha  occ. eigenvalues --  -10.22427 -10.22109 -10.22080 -10.22017 -10.21456
 Alpha  occ. eigenvalues --  -10.20966 -10.20943 -10.20579 -10.20325 -10.20215
 Alpha  occ. eigenvalues --  -10.20011 -10.19519 -10.19121 -10.18914 -10.18850
 Alpha  occ. eigenvalues --  -10.18742 -10.18343 -10.18310 -10.18301 -10.18103
 Alpha  occ. eigenvalues --  -10.18002 -10.17931 -10.17615  -1.11456  -1.07963
 Alpha  occ. eigenvalues --   -1.03329  -1.02681  -1.01230  -0.99665  -0.98310
 Alpha  occ. eigenvalues --   -0.96466  -0.94622  -0.89896  -0.83614  -0.82195
 Alpha  occ. eigenvalues --   -0.81453  -0.81082  -0.79679  -0.78922  -0.77517
 Alpha  occ. eigenvalues --   -0.77175  -0.76114  -0.75043  -0.74421  -0.73035
 Alpha  occ. eigenvalues --   -0.71028  -0.69222  -0.68841  -0.68164  -0.67911
 Alpha  occ. eigenvalues --   -0.67387  -0.65465  -0.63831  -0.63576  -0.61869
 Alpha  occ. eigenvalues --   -0.61233  -0.59592  -0.58182  -0.56796  -0.56418
 Alpha  occ. eigenvalues --   -0.56229  -0.55399  -0.55152  -0.53942  -0.53014
 Alpha  occ. eigenvalues --   -0.51610  -0.51475  -0.51359  -0.50639  -0.50187
 Alpha  occ. eigenvalues --   -0.49666  -0.48767  -0.48621  -0.47418  -0.47229
 Alpha  occ. eigenvalues --   -0.46580  -0.46359  -0.46082  -0.46002  -0.45366
 Alpha  occ. eigenvalues --   -0.44741  -0.44298  -0.44246  -0.43862  -0.43576
 Alpha  occ. eigenvalues --   -0.43338  -0.42938  -0.42907  -0.42748  -0.42055
 Alpha  occ. eigenvalues --   -0.41756  -0.41504  -0.40996  -0.40892  -0.40629
 Alpha  occ. eigenvalues --   -0.40438  -0.40109  -0.39825  -0.39534  -0.39333
 Alpha  occ. eigenvalues --   -0.39146  -0.38973  -0.38458  -0.38114  -0.37859
 Alpha  occ. eigenvalues --   -0.37576  -0.37382  -0.37116  -0.36988  -0.36780
 Alpha  occ. eigenvalues --   -0.35999  -0.35632  -0.35499  -0.34957  -0.34784
 Alpha  occ. eigenvalues --   -0.34392  -0.34210  -0.34166  -0.33279  -0.33146
 Alpha  occ. eigenvalues --   -0.32408  -0.32210  -0.30775  -0.30446  -0.29807
 Alpha  occ. eigenvalues --   -0.28212  -0.26856  -0.26420  -0.26363  -0.25945
 Alpha  occ. eigenvalues --   -0.25229  -0.24322  -0.23655  -0.23378  -0.21482
 Alpha  occ. eigenvalues --   -0.18631
 Alpha virt. eigenvalues --   -0.10537  -0.04911  -0.02806  -0.02416  -0.00667
 Alpha virt. eigenvalues --    0.00226   0.01038   0.02682   0.03413   0.03710
 Alpha virt. eigenvalues --    0.04623   0.04893   0.05105   0.05418   0.05839

 Mulliken charges:
               1
     1  O   -0.223361
     2  O   -0.153763
     3  O   -0.280398
     4  O   -0.220292
     5  O   -0.222360
     6  O   -0.265006
     7  N   -0.170469
     8  N    0.042597
     9  N   -0.160049
    10  N   -0.376535
    11  C   -0.098087
    12  C   -0.018996
    13  C   -0.190379
    14  C    0.036770
    15  C   -0.048355
    16  C    0.154681
    17  C   -0.063509
    18  C   -0.125281
    19  C    0.144138
    20  C   -0.069187
    21  C    0.166053
    22  C    0.026818
    23  C    0.039249
    24  C    0.087271
    25  C   -0.181829
    26  C    0.050499
    27  C    0.137419
    28  C    0.000601
    29  C   -0.051146
    30  C    0.014200
    31  C   -0.086391
    32  C   -0.036784
    33  C   -0.156884
    34  C    0.114578
    35  C   -0.115837
    36  C   -0.173251
    37  C    0.158402
    38  C    0.070098
    39  C    0.177614
    40  C    0.125196
    41  C    0.170575
    42  C    0.146953
    43  C    0.060325
    44  H    0.167683
    45  H    0.038880
    46  H    0.031762
    47  H   -0.061425
    48  H    0.055706
    49  H    0.060634
    50  H    0.025506
    51  H    0.068371
    52  H    0.098588
    53  H    0.030664
    54  H    0.015917
    55  H    0.035325
    56  H    0.125179
    57  H    0.032183
    58  H    0.060431
    59  H    0.031887
    60  H    0.014139
    61  H    0.051477
    62  H    0.015561
    63  H    0.068999
    64  H   -0.046839
    65  H    0.043023
    66  H    0.059915
    67  H    0.031599
    68  H   -0.042983
    69  H    0.070163
    70  H    0.031494
    71  H    0.050438
    72  H   -0.025600
    73  H    0.000195
    74  H    0.032745
    75  H   -0.002896
    76  H   -0.014424
    77  H    0.019136
    78  H    0.009465
    79  H   -0.032168
    80  H    0.163233
    81  H    0.250153
 Sum of Mulliken charges =  -0.00000

 Dipole moment (field-independent basis, Debye):
    X=             -3.7132    Y=              1.0843    Z=             -1.1020  Tot=              4.0222
 Quadrupole moment (field-independent basis, Debye-Ang):
   XX=           -247.2405   YY=           -242.0626   ZZ=           -252.1985
   XY=             20.3599   XZ=             18.4733   YZ=             -9.6865

 Normal termination of Gaussian 16 at Sat Jun 29 19:42:32 2019.
