 Gaussian 16, Revision A.03,
 Gaussian 16:  ES64L-G16RevA.03 25-Dec-2016

 --------------------------
 # td=(NStates=1) B3LYP/SVP
 --------------------------

 --
 TD
 --
 Symbolic Z-matrix:
 Charge =  0 Multiplicity = 1

                         Standard orientation:
 ---------------------------------------------------------------------
 Center     Atomic      Atomic             Coordinates (Angstroms)
 Number     Number       Type             X           Y           Z
 ---------------------------------------------------------------------
      1          8           0       -3.903552   -4.833297    2.089285
      2          8           0        3.300870   -4.859243    1.000938
      3          8           0        7.154389   -1.154748    1.788123
      4          8           0        3.790949   -2.847766    0.096433
      5          8           0        7.480732   -0.188234   -0.261951
      6          8           0       -3.180750    2.168181   -0.498295
      7          7           0       -0.223141   -0.442020   -0.729193
      8          7           0        1.407305    1.934936   -0.436951
      9          7           0       -3.094805   -3.234336    0.731716
     10          7           0       -0.934563    2.849645   -0.191941
     11          6           0        0.782997   -2.435527   -1.423833
     12          6           0        1.036418   -1.081343   -1.045280
     13          6           0       -0.559591   -2.640028   -1.107309
     14          6           0       -1.216751   -1.409367   -0.717755
     15          6           0        3.730423    1.646893   -0.221316
     16          6           0        2.504790    1.025502   -0.494466
     17          6           0        2.298263   -0.316729   -0.822653
     18          6           0        3.408607    2.985837    0.121720
     19          6           0        1.833413   -3.325046   -2.074218
     20          6           0       -5.353032   -2.980259    1.410812
     21          6           0       -3.481537   -1.953830    0.232531
     22          6           0        1.947302    3.066520    0.064999
     23          6           0       -4.859944   -1.789606    0.486852
     24          6           0        5.009376    0.987539   -0.322992
     25          6           0       -2.605340   -1.102838   -0.473249
     26          6           0       -1.272099   -3.945949   -1.574585
     27          6           0       -4.026319   -3.818542    1.483610
     28          6           0        2.385110   -4.412292   -1.083893
     29          6           0        5.400211    0.101993    0.868451
     30          6           0        4.199408    4.082424    0.655249
     31          6           0        1.066010    4.133529    0.266002
     32          6           0       -6.549933   -3.655603    0.965395
     33          6           0       -5.822575   -0.885297   -0.008711
     34          6           0       -0.328842    4.030832    0.172940
     35          6           0       -1.351803    5.086518    0.465007
     36          6           0       -2.612622    4.510381    0.219980
     37          6           0        3.241295   -3.958032    0.003401
     38          6           0       -5.592692    0.152603   -1.089026
     39          6           0        6.765859   -0.434215    0.725373
     40          6           0       -4.004399    5.121318    0.340844
     41          6           0       -2.303206    3.067782   -0.094599
     42          6           0       -1.098498    6.455395    0.974378
     43          6           0       -4.661250    5.365765   -1.063445
     44          1           0       -0.457076    0.577537   -0.419681
     45          1           0        3.242454   -0.888939   -0.946540
     46          1           0        2.792238   -2.677862   -2.457644
     47          1           0        1.418169   -3.656007   -2.919341
     48          1           0       -5.750421   -2.539084    2.311554
     49          1           0        5.327982    0.480838   -1.231125
     50          1           0        5.918589    1.866530   -0.305449
     51          1           0       -2.833370   -0.079608   -0.766034
     52          1           0        0.290726    1.723038   -0.757855
     53          1           0       -0.952415   -4.732703   -0.853466
     54          1           0       -2.340661   -3.851925   -1.774679
     55          1           0       -0.815460   -4.374347   -2.367794
     56          1           0       -2.180422   -3.515716    0.905151
     57          1           0        1.462635   -4.928233   -0.458591
     58          1           0        2.894063   -5.221602   -1.489304
     59          1           0        4.709554   -0.745156    0.857102
     60          1           0        5.114908    0.592197    1.873314
     61          1           0        4.226033    5.096357   -0.152484
     62          1           0        5.290421    3.736288    1.064203
     63          1           0        3.768672    4.559929    1.607471
     64          1           0        1.450212    5.106048    0.546998
     65          1           0       -7.424156   -3.071069    0.941248
     66          1           0       -6.499452   -4.567297    1.638674
     67          1           0       -6.553230   -3.908327   -0.235954
     68          1           0       -6.768297   -0.936088    0.369762
     69          1           0       -4.878023    1.098214   -0.792157
     70          1           0       -6.496317    0.486813   -1.539946
     71          1           0       -5.133163   -0.351515   -1.924819
     72          1           0       -3.900545    6.115256    0.889693
     73          1           0       -4.537797    4.335486    0.851174
     74          1           0       -0.647305    6.264487    1.945366
     75          1           0       -2.049736    6.985075    1.065471
     76          1           0       -0.081646    6.999137    0.362627
     77          1           0       -4.022332    6.144962   -1.506360
     78          1           0       -5.603907    5.580322   -0.757896
     79          1           0       -4.683109    4.175824   -1.394760
     80          1           0        3.927169   -4.605818    1.612893
     81          1           0        8.096046   -1.367740    1.836183
 ---------------------------------------------------------------------

 SCF Done:  E(RB3LYP) =  -1949.09465210     A.U. after   17 cycles

 Excitation energies and oscillator strengths:

 Excited State   1:      Singlet-A      1.7323 eV  715.70 nm  f=0.2896  <S**2>=0.000
     156 ->157         0.70778
     156 <-157        -0.10912
 This state for optimization and/or second-order correction.
 Total Energy, E(TD-HF/TD-DFT) =  -1949.03098961
 Copying the excited state density for this state as the 1-particle RhoCI density.

 The electronic state is 1-A.
 Alpha  occ. eigenvalues --  -19.19895 -19.18879 -19.14464 -19.12498 -19.10486
 Alpha  occ. eigenvalues --  -19.09513 -14.38367 -14.36758 -14.36065 -14.29553
 Alpha  occ. eigenvalues --  -10.34225 -10.32546 -10.28405 -10.26624 -10.24803
 Alpha  occ. eigenvalues --  -10.24290 -10.24137 -10.23905 -10.23188 -10.22920
 Alpha  occ. eigenvalues --  -10.22721 -10.22623 -10.22561 -10.22013 -10.21023
 Alpha  occ. eigenvalues --  -10.20889 -10.20815 -10.20753 -10.20723 -10.20583
 Alpha  occ. eigenvalues --  -10.20303 -10.20218 -10.19711 -10.19608 -10.19398
 Alpha  occ. eigenvalues --  -10.19341 -10.19172 -10.19142 -10.19090 -10.18745
 Alpha  occ. eigenvalues --  -10.18659 -10.18019 -10.17035  -1.12202  -1.09423
 Alpha  occ. eigenvalues --   -1.04918  -1.01687  -0.99765  -0.97442  -0.96524
 Alpha  occ. eigenvalues --   -0.96222  -0.95725  -0.89971  -0.82933  -0.82618
 Alpha  occ. eigenvalues --   -0.81567  -0.80195  -0.79252  -0.78894  -0.78318
 Alpha  occ. eigenvalues --   -0.77569  -0.76008  -0.75207  -0.73898  -0.72974
 Alpha  occ. eigenvalues --   -0.71615  -0.70445  -0.70080  -0.68340  -0.67841
 Alpha  occ. eigenvalues --   -0.66732  -0.64797  -0.63852  -0.62853  -0.62110
 Alpha  occ. eigenvalues --   -0.61524  -0.60169  -0.58336  -0.57567  -0.57181
 Alpha  occ. eigenvalues --   -0.56033  -0.55127  -0.54733  -0.54227  -0.52483
 Alpha  occ. eigenvalues --   -0.51939  -0.51701  -0.50955  -0.50554  -0.50246
 Alpha  occ. eigenvalues --   -0.49856  -0.48846  -0.48696  -0.48132  -0.47625
 Alpha  occ. eigenvalues --   -0.47196  -0.46301  -0.45762  -0.45430  -0.45098
 Alpha  occ. eigenvalues --   -0.44711  -0.44658  -0.44513  -0.44269  -0.44115
 Alpha  occ. eigenvalues --   -0.43794  -0.43220  -0.42518  -0.42301  -0.42282
 Alpha  occ. eigenvalues --   -0.41931  -0.41725  -0.41291  -0.41141  -0.40677
 Alpha  occ. eigenvalues --   -0.40137  -0.40006  -0.39767  -0.39584  -0.39345
 Alpha  occ. eigenvalues --   -0.38916  -0.38829  -0.38741  -0.38243  -0.38143
 Alpha  occ. eigenvalues --   -0.37832  -0.37480  -0.37301  -0.36695  -0.36192
 Alpha  occ. eigenvalues --   -0.35758  -0.35627  -0.35220  -0.35032  -0.34209
 Alpha  occ. eigenvalues --   -0.34094  -0.33948  -0.33785  -0.32652  -0.32469
 Alpha  occ. eigenvalues --   -0.31891  -0.31689  -0.31448  -0.29820  -0.29077
 Alpha  occ. eigenvalues --   -0.28165  -0.27723  -0.26447  -0.25856  -0.25398
 Alpha  occ. eigenvalues --   -0.25126  -0.24187  -0.23818  -0.22484  -0.21199
 Alpha  occ. eigenvalues --   -0.17759
 Alpha virt. eigenvalues --   -0.10639  -0.06643  -0.04763  -0.02519  -0.00664
 Alpha virt. eigenvalues --    0.00854   0.01922   0.02615   0.03032   0.03290
 Alpha virt. eigenvalues --    0.04199   0.04641   0.04746   0.05686   0.05793

 Mulliken charges:
               1
     1  O   -0.189570
     2  O   -0.136716
     3  O   -0.180128
     4  O   -0.244886
     5  O   -0.259644
     6  O   -0.323383
     7  N   -0.180972
     8  N   -0.184381
     9  N   -0.054414
    10  N   -0.331274
    11  C   -0.082837
    12  C    0.069623
    13  C   -0.211482
    14  C    0.068530
    15  C    0.018116
    16  C    0.082517
    17  C   -0.050364
    18  C   -0.058372
    19  C    0.166962
    20  C   -0.065264
    21  C    0.110445
    22  C    0.138357
    23  C   -0.028486
    24  C   -0.023215
    25  C   -0.077652
    26  C    0.148184
    27  C    0.101806
    28  C   -0.016781
    29  C   -0.023797
    30  C   -0.052587
    31  C   -0.139511
    32  C    0.010949
    33  C   -0.079988
    34  C    0.111698
    35  C   -0.112583
    36  C   -0.163242
    37  C    0.131637
    38  C    0.018765
    39  C    0.170008
    40  C    0.024894
    41  C    0.204121
    42  C    0.069127
    43  C    0.017659
    44  H    0.168533
    45  H    0.015239
    46  H    0.044069
    47  H   -0.020640
    48  H    0.023881
    49  H    0.032040
    50  H    0.028303
    51  H    0.016192
    52  H    0.226791
    53  H   -0.000670
    54  H    0.044662
    55  H   -0.037565
    56  H    0.114063
    57  H    0.071532
    58  H    0.027090
    59  H    0.044005
    60  H    0.043686
    61  H    0.050216
    62  H    0.044383
    63  H    0.040957
    64  H   -0.048999
    65  H    0.005636
    66  H    0.046334
    67  H    0.005600
    68  H   -0.041693
    69  H    0.126037
    70  H   -0.013529
    71  H    0.008553
    72  H    0.001579
    73  H    0.015514
    74  H    0.026578
    75  H    0.024133
    76  H    0.043817
    77  H    0.033230
    78  H   -0.006456
    79  H    0.062792
    80  H    0.155378
    81  H    0.186861
 Sum of Mulliken charges =  -0.00000

 Dipole moment (field-independent basis, Debye):
    X=              3.9124    Y=             -0.5584    Z=              1.3068  Tot=              4.1625
 Quadrupole moment (field-independent basis, Debye-Ang):
   XX=           -245.1335   YY=           -240.0873   ZZ=           -254.9396
   XY=            -23.8688   XZ=             17.6169   YZ=             18.9944

 Normal termination of Gaussian 16 at Sat Jun 29 00:38:01 2019.
