 Gaussian 16, Revision A.03,
 Gaussian 16:  ES64L-G16RevA.03 25-Dec-2016

 --------------------------
 # td=(NStates=1) B3LYP/SVP
 --------------------------

 --
 TD
 --
 Symbolic Z-matrix:
 Charge =  0 Multiplicity = 1

                         Standard orientation:
 ---------------------------------------------------------------------
 Center     Atomic      Atomic             Coordinates (Angstroms)
 Number     Number       Type             X           Y           Z
 ---------------------------------------------------------------------
      1          8           0        4.347147   -4.951694   -1.725786
      2          8           0       -2.967617   -4.896430   -0.992539
      3          8           0       -7.118857   -1.571918   -1.845143
      4          8           0       -3.796894   -3.180114    0.114033
      5          8           0       -7.693323   -0.589850    0.093343
      6          8           0        2.942854    2.300024    0.211235
      7          7           0        0.321209   -0.506098    0.607689
      8          7           0       -1.539461    1.761288    0.229959
      9          7           0        3.373490   -3.089550   -0.802449
     10          7           0        0.720034    2.932350    0.006460
     11          6           0       -0.640528   -2.371126    1.348286
     12          6           0       -0.870515   -1.068356    0.959575
     13          6           0        0.838325   -2.558826    1.265615
     14          6           0        1.294354   -1.340299    0.703639
     15          6           0       -3.785134    1.439631    0.233676
     16          6           0       -2.496524    0.766242    0.482009
     17          6           0       -2.257354   -0.458734    0.896143
     18          6           0       -3.557326    2.655391   -0.086321
     19          6           0       -1.524693   -3.403026    2.073129
     20          6           0        5.533731   -2.694977   -1.363664
     21          6           0        3.687012   -1.819255   -0.280694
     22          6           0       -2.016432    2.892308   -0.092813
     23          6           0        4.981319   -1.575521   -0.518874
     24          6           0       -5.161407    0.734561    0.309725
     25          6           0        2.743398   -1.074777    0.336657
     26          6           0        1.598794   -3.607283    1.709354
     27          6           0        4.417371   -3.785956   -1.334905
     28          6           0       -1.947568   -4.510544    1.185044
     29          6           0       -5.348632   -0.160247   -0.907166
     30          6           0       -4.619948    3.829173   -0.579419
     31          6           0       -1.418081    4.099563   -0.395796
     32          6           0        6.921290   -3.309947   -1.108025
     33          6           0        5.783398   -0.564549    0.017791
     34          6           0        0.057003    4.078284   -0.282464
     35          6           0        0.987505    5.196099   -0.355051
     36          6           0        2.291819    4.635940   -0.210616
     37          6           0       -2.984348   -4.121301    0.090271
     38          6           0        5.417569    0.617904    0.843885
     39          6           0       -6.822634   -0.806978   -0.787467
     40          6           0        3.554375    5.373095   -0.086152
     41          6           0        2.080409    3.195609    0.051950
     42          6           0        0.759198    6.641538   -0.794711
     43          6           0        4.101250    5.770268    1.207613
     44          1           0        0.355307    0.536065    0.217401
     45          1           0       -3.160414   -1.171712    1.015493
     46          1           0       -2.409372   -2.909318    2.436565
     47          1           0       -0.941913   -3.735820    2.983156
     48          1           0        5.445961   -2.390310   -2.390773
     49          1           0       -5.087952    0.029375    1.214337
     50          1           0       -5.991931    1.602320    0.413716
     51          1           0        2.861211   -0.026495    0.059538
     52          1           0       -0.616736    1.671458    0.557950
     53          1           0        1.735267   -4.457846    1.048279
     54          1           0        2.785085   -3.654932    1.988131
     55          1           0        1.135045   -4.042786    2.649537
     56          1           0        2.382776   -3.500047   -0.656889
     57          1           0       -1.058794   -4.992189    0.787513
     58          1           0       -2.301989   -5.372261    1.803883
     59          1           0       -4.462769   -0.858438   -1.045453
     60          1           0       -5.224017    0.506294   -1.726603
     61          1           0       -4.150114    4.941009   -0.251853
     62          1           0       -5.582669    3.499136   -0.043460
     63          1           0       -4.722350    3.855069   -1.850524
     64          1           0       -1.885990    4.922195   -0.756429
     65          1           0        7.869281   -2.647633   -1.348293
     66          1           0        7.024309   -4.069918   -1.863255
     67          1           0        6.991978   -3.579460    0.037737
     68          1           0        6.904221   -0.776693   -0.112055
     69          1           0        4.835187    1.134674    0.035943
     70          1           0        6.170323    1.213302    1.288711
     71          1           0        4.832012    0.326002    1.651370
     72          1           0        3.541820    6.293779   -0.671526
     73          1           0        4.457662    4.600118   -0.735979
     74          1           0        0.187381    6.402762   -1.755901
     75          1           0        1.682188    7.369004   -0.779011
     76          1           0       -0.154125    7.176684   -0.220650
     77          1           0        3.297341    6.323405    1.878709
     78          1           0        4.948735    6.416175    1.080725
     79          1           0        4.506808    4.949129    1.742335
     80          1           0       -3.692254   -4.331475   -1.304931
     81          1           0       -7.921886   -1.980110   -1.691563
 ---------------------------------------------------------------------

 SCF Done:  E(RB3LYP) =  -1949.05324961     A.U. after   16 cycles

 Excitation energies and oscillator strengths:

 Excited State   1:      Singlet-A      1.4847 eV  835.07 nm  f=0.1241  <S**2>=0.000
     156 ->157         0.70613
 This state for optimization and/or second-order correction.
 Total Energy, E(TD-HF/TD-DFT) =  -1948.99868708
 Copying the excited state density for this state as the 1-particle RhoCI density.

 The electronic state is 1-A.
 Alpha  occ. eigenvalues --  -19.20369 -19.18907 -19.15343 -19.13355 -19.11162
 Alpha  occ. eigenvalues --  -19.10210 -14.38198 -14.37697 -14.36082 -14.29315
 Alpha  occ. eigenvalues --  -10.34822 -10.33682 -10.28371 -10.27124 -10.25346
 Alpha  occ. eigenvalues --  -10.24558 -10.24510 -10.23430 -10.22685 -10.22621
 Alpha  occ. eigenvalues --  -10.22477 -10.22357 -10.22080 -10.22034 -10.21903
 Alpha  occ. eigenvalues --  -10.21882 -10.21511 -10.20873 -10.20700 -10.20639
 Alpha  occ. eigenvalues --  -10.20492 -10.20288 -10.20113 -10.19759 -10.19707
 Alpha  occ. eigenvalues --  -10.19622 -10.19402 -10.19113 -10.18717 -10.18247
 Alpha  occ. eigenvalues --  -10.17785 -10.17324 -10.16637  -1.14076  -1.10974
 Alpha  occ. eigenvalues --   -1.01963  -1.01813  -1.01496  -1.00556  -0.99717
 Alpha  occ. eigenvalues --   -0.99460  -0.94681  -0.92103  -0.83723  -0.82304
 Alpha  occ. eigenvalues --   -0.81455  -0.81147  -0.80193  -0.78912  -0.77770
 Alpha  occ. eigenvalues --   -0.77541  -0.76808  -0.75663  -0.74400  -0.73098
 Alpha  occ. eigenvalues --   -0.70153  -0.69578  -0.69006  -0.68128  -0.67566
 Alpha  occ. eigenvalues --   -0.67358  -0.65662  -0.63779  -0.62921  -0.62093
 Alpha  occ. eigenvalues --   -0.60882  -0.60416  -0.59395  -0.58496  -0.57304
 Alpha  occ. eigenvalues --   -0.56257  -0.55476  -0.54736  -0.54008  -0.53021
 Alpha  occ. eigenvalues --   -0.52571  -0.52153  -0.51990  -0.51228  -0.50382
 Alpha  occ. eigenvalues --   -0.49466  -0.49076  -0.48917  -0.48518  -0.47559
 Alpha  occ. eigenvalues --   -0.47414  -0.46783  -0.46638  -0.46299  -0.45722
 Alpha  occ. eigenvalues --   -0.45408  -0.44764  -0.44431  -0.44235  -0.43880
 Alpha  occ. eigenvalues --   -0.43694  -0.42985  -0.42865  -0.42363  -0.42203
 Alpha  occ. eigenvalues --   -0.42001  -0.41786  -0.41470  -0.41167  -0.41113
 Alpha  occ. eigenvalues --   -0.41001  -0.40657  -0.40599  -0.40121  -0.39729
 Alpha  occ. eigenvalues --   -0.39441  -0.39194  -0.38880  -0.38605  -0.38166
 Alpha  occ. eigenvalues --   -0.37989  -0.37746  -0.37648  -0.37269  -0.36613
 Alpha  occ. eigenvalues --   -0.36282  -0.35513  -0.35468  -0.34789  -0.34709
 Alpha  occ. eigenvalues --   -0.33988  -0.33750  -0.33608  -0.33285  -0.32507
 Alpha  occ. eigenvalues --   -0.32398  -0.31417  -0.31091  -0.30846  -0.30658
 Alpha  occ. eigenvalues --   -0.28908  -0.27955  -0.27598  -0.25821  -0.25667
 Alpha  occ. eigenvalues --   -0.24931  -0.24720  -0.23369  -0.22890  -0.21563
 Alpha  occ. eigenvalues --   -0.17567
 Alpha virt. eigenvalues --   -0.10907  -0.05949  -0.04290  -0.02745  -0.01571
 Alpha virt. eigenvalues --    0.01489   0.02223   0.02664   0.03516   0.03686
 Alpha virt. eigenvalues --    0.04626   0.05061   0.05371   0.05444   0.06340

 Mulliken charges:
               1
     1  O   -0.229538
     2  O   -0.126884
     3  O   -0.126351
     4  O   -0.287522
     5  O   -0.267892
     6  O   -0.222500
     7  N   -0.014676
     8  N    0.039523
     9  N   -0.144874
    10  N   -0.323867
    11  C   -0.144236
    12  C   -0.002907
    13  C   -0.099871
    14  C   -0.034385
    15  C   -0.057303
    16  C    0.085807
    17  C   -0.111031
    18  C   -0.140161
    19  C    0.111663
    20  C   -0.046117
    21  C    0.112828
    22  C    0.079480
    23  C   -0.018643
    24  C    0.042290
    25  C   -0.091217
    26  C   -0.033776
    27  C    0.115246
    28  C    0.043273
    29  C   -0.012362
    30  C   -0.043098
    31  C   -0.075370
    32  C    0.021553
    33  C   -0.186939
    34  C    0.074164
    35  C   -0.095139
    36  C   -0.135571
    37  C    0.171740
    38  C    0.136988
    39  C    0.185752
    40  C   -0.027086
    41  C    0.173606
    42  C    0.014523
    43  C    0.056691
    44  H    0.174157
    45  H    0.055401
    46  H   -0.001922
    47  H    0.022141
    48  H    0.031710
    49  H    0.036398
    50  H    0.049830
    51  H    0.012858
    52  H    0.117304
    53  H    0.004810
    54  H    0.039415
    55  H    0.006969
    56  H    0.154239
    57  H    0.019443
    58  H    0.040466
    59  H    0.060840
    60  H    0.021153
    61  H    0.060264
    62  H    0.052609
    63  H    0.066863
    64  H   -0.066987
    65  H    0.022943
    66  H    0.027734
    67  H    0.038831
    68  H    0.008113
    69  H    0.080907
    70  H   -0.007515
    71  H    0.013442
    72  H   -0.003521
    73  H    0.023575
    74  H    0.042201
    75  H    0.064793
    76  H    0.029890
    77  H    0.020369
    78  H    0.001917
    79  H    0.009126
    80  H    0.153302
    81  H    0.150120
 Sum of Mulliken charges =  -0.00000

 Dipole moment (field-independent basis, Debye):
    X=             -2.5860    Y=              3.2188    Z=             -0.2095  Tot=              4.1343
 Quadrupole moment (field-independent basis, Debye-Ang):
   XX=           -257.0212   YY=           -240.5153   ZZ=           -255.4531
   XY=             21.1704   XZ=             15.9629   YZ=            -15.6462

 Normal termination of Gaussian 16 at Fri Jun 28 00:36:32 2019.
