 Gaussian 16, Revision A.03,
 Gaussian 16:  ES64L-G16RevA.03 25-Dec-2016

 --------------------------
 # td=(NStates=1) B3LYP/SVP
 --------------------------

 --
 TD
 --
 Symbolic Z-matrix:
 Charge =  0 Multiplicity = 1

                         Standard orientation:
 ---------------------------------------------------------------------
 Center     Atomic      Atomic             Coordinates (Angstroms)
 Number     Number       Type             X           Y           Z
 ---------------------------------------------------------------------
      1          8           0        4.273045   -4.883851   -1.880314
      2          8           0       -3.181394   -4.929275   -0.943209
      3          8           0       -6.770969   -1.642896   -1.938171
      4          8           0       -3.814805   -3.086199    0.329943
      5          8           0       -7.775897   -0.484033   -0.274787
      6          8           0        3.034893    2.355164    0.405915
      7          7           0        0.257576   -0.504838    0.597981
      8          7           0       -1.615467    1.864769    0.509506
      9          7           0        3.253379   -3.202493   -0.802113
     10          7           0        0.796772    2.859623    0.141721
     11          6           0       -0.579651   -2.394571    1.411709
     12          6           0       -0.883719   -1.074035    0.891416
     13          6           0        0.786189   -2.567329    1.328550
     14          6           0        1.313578   -1.426215    0.769374
     15          6           0       -3.792042    1.581056    0.311143
     16          6           0       -2.515456    0.943599    0.752068
     17          6           0       -2.237334   -0.375329    0.948345
     18          6           0       -3.514730    2.852988   -0.204153
     19          6           0       -1.489477   -3.421744    2.030188
     20          6           0        5.452055   -2.835203   -1.458087
     21          6           0        3.517919   -1.827053   -0.310530
     22          6           0       -2.072161    3.118858    0.061212
     23          6           0        4.919369   -1.615242   -0.575729
     24          6           0       -5.092237    0.821396    0.335726
     25          6           0        2.622402   -1.075136    0.296851
     26          6           0        1.583482   -3.678299    1.957835
     27          6           0        4.322873   -3.719905   -1.364233
     28          6           0       -2.007652   -4.488659    1.111968
     29          6           0       -5.365358   -0.078214   -0.883882
     30          6           0       -4.478471    3.779735   -0.624279
     31          6           0       -1.277390    4.099699   -0.181172
     32          6           0        6.721936   -3.467877   -0.926044
     33          6           0        5.733405   -0.618715   -0.235459
     34          6           0        0.116685    3.983866   -0.187694
     35          6           0        1.038435    5.129444   -0.357368
     36          6           0        2.329287    4.641257   -0.176717
     37          6           0       -2.974163   -4.064525    0.153416
     38          6           0        5.336243    0.628119    0.475831
     39          6           0       -6.767666   -0.767633   -0.956639
     40          6           0        3.779279    5.260421   -0.287545
     41          6           0        2.117905    3.225177    0.150145
     42          6           0        0.667843    6.548283   -0.812671
     43          6           0        4.401172    5.456060    1.130714
     44          1           0        0.412123    0.418246    0.307658
     45          1           0       -3.091941   -0.890068    1.137685
     46          1           0       -2.286949   -2.868508    2.559882
     47          1           0       -0.981568   -3.845033    2.883371
     48          1           0        5.700422   -2.669569   -2.347193
     49          1           0       -5.327009    0.086075    1.125053
     50          1           0       -6.082449    1.599214    0.403601
     51          1           0        2.754703   -0.088183    0.414644
     52          1           0       -0.487127    1.767833    0.428226
     53          1           0        1.633701   -4.649999    1.208328
     54          1           0        2.698704   -3.450454    1.939702
     55          1           0        1.252579   -3.873135    3.061254
     56          1           0        2.342359   -3.601316   -0.800495
     57          1           0       -0.982156   -4.962325    0.522223
     58          1           0       -2.648362   -5.115250    1.742559
     59          1           0       -4.609290   -0.790613   -0.908653
     60          1           0       -5.077262    0.458029   -1.762839
     61          1           0       -4.294117    5.063072   -0.265349
     62          1           0       -5.537440    3.611256   -0.360425
     63          1           0       -4.614259    3.924755   -1.977938
     64          1           0       -1.627163    5.229643   -0.579676
     65          1           0        7.477079   -2.854459   -0.939659
     66          1           0        6.981227   -4.487455   -1.496434
     67          1           0        6.759800   -3.674925    0.223531
     68          1           0        6.753493   -0.649873   -0.629411
     69          1           0        4.715672    1.341536   -0.047289
     70          1           0        6.135305    1.138869    0.874421
     71          1           0        4.821595    0.452595    1.431640
     72          1           0        3.548981    6.277382   -0.899462
     73          1           0        4.275610    4.656747   -0.994824
     74          1           0        0.572849    6.502690   -1.995356
     75          1           0        1.606690    7.365446   -0.670768
     76          1           0       -0.122280    6.992535   -0.338580
     77          1           0        3.969332    6.497804    1.581511
     78          1           0        5.558844    5.812056    0.790012
     79          1           0        4.310978    4.516045    1.854613
     80          1           0       -3.936109   -4.501853   -1.499127
     81          1           0       -7.816673   -1.935142   -2.146845
 ---------------------------------------------------------------------

 SCF Done:  E(RB3LYP) =  -1948.99466660     A.U. after   18 cycles

 Excitation energies and oscillator strengths:

 Excited State   1:      Singlet-A      1.6046 eV  772.68 nm  f=0.2377  <S**2>=0.000
     156 ->157         0.70713
     156 <-157        -0.12027
 This state for optimization and/or second-order correction.
 Total Energy, E(TD-HF/TD-DFT) =  -1948.93569900
 Copying the excited state density for this state as the 1-particle RhoCI density.

 The electronic state is 1-A.
 Alpha  occ. eigenvalues --  -19.20209 -19.19540 -19.13914 -19.12685 -19.10602
 Alpha  occ. eigenvalues --  -19.07556 -14.38231 -14.36493 -14.36280 -14.30710
 Alpha  occ. eigenvalues --  -10.34140 -10.32896 -10.27143 -10.26842 -10.24772
 Alpha  occ. eigenvalues --  -10.24391 -10.24270 -10.23923 -10.23647 -10.23574
 Alpha  occ. eigenvalues --  -10.23514 -10.23004 -10.22209 -10.22040 -10.21995
 Alpha  occ. eigenvalues --  -10.21858 -10.21624 -10.21610 -10.21497 -10.21379
 Alpha  occ. eigenvalues --  -10.21188 -10.20727 -10.20513 -10.20191 -10.20035
 Alpha  occ. eigenvalues --  -10.19667 -10.19524 -10.19222 -10.19157 -10.18507
 Alpha  occ. eigenvalues --  -10.18172 -10.17871 -10.15489  -1.09492  -1.07083
 Alpha  occ. eigenvalues --   -1.00697  -1.00282  -0.99593  -0.98888  -0.98577
 Alpha  occ. eigenvalues --   -0.97778  -0.92547  -0.92241  -0.83683  -0.82966
 Alpha  occ. eigenvalues --   -0.82212  -0.82058  -0.80937  -0.79441  -0.79264
 Alpha  occ. eigenvalues --   -0.77962  -0.77070  -0.75645  -0.74512  -0.72673
 Alpha  occ. eigenvalues --   -0.70700  -0.70046  -0.69814  -0.69327  -0.68136
 Alpha  occ. eigenvalues --   -0.67104  -0.66178  -0.65682  -0.62366  -0.61088
 Alpha  occ. eigenvalues --   -0.60697  -0.60239  -0.59782  -0.59511  -0.57246
 Alpha  occ. eigenvalues --   -0.56095  -0.56028  -0.55425  -0.54059  -0.53529
 Alpha  occ. eigenvalues --   -0.52981  -0.52540  -0.50743  -0.50431  -0.50236
 Alpha  occ. eigenvalues --   -0.49426  -0.49189  -0.48867  -0.48335  -0.48121
 Alpha  occ. eigenvalues --   -0.47651  -0.46736  -0.46289  -0.45865  -0.45302
 Alpha  occ. eigenvalues --   -0.45214  -0.44807  -0.44571  -0.44291  -0.43960
 Alpha  occ. eigenvalues --   -0.43614  -0.43163  -0.43021  -0.42379  -0.42199
 Alpha  occ. eigenvalues --   -0.41503  -0.41390  -0.41367  -0.41076  -0.40897
 Alpha  occ. eigenvalues --   -0.40358  -0.40143  -0.39646  -0.39470  -0.39213
 Alpha  occ. eigenvalues --   -0.38762  -0.38690  -0.38453  -0.38249  -0.37775
 Alpha  occ. eigenvalues --   -0.37724  -0.37453  -0.37225  -0.37042  -0.36900
 Alpha  occ. eigenvalues --   -0.36039  -0.35367  -0.35005  -0.34577  -0.34512
 Alpha  occ. eigenvalues --   -0.33992  -0.33774  -0.33288  -0.33085  -0.32590
 Alpha  occ. eigenvalues --   -0.32102  -0.32010  -0.31664  -0.29693  -0.28944
 Alpha  occ. eigenvalues --   -0.28691  -0.28202  -0.26726  -0.25844  -0.25379
 Alpha  occ. eigenvalues --   -0.25303  -0.24964  -0.24280  -0.23197  -0.22533
 Alpha  occ. eigenvalues --   -0.18412
 Alpha virt. eigenvalues --   -0.11871  -0.06718  -0.04164  -0.03776  -0.00914
 Alpha virt. eigenvalues --    0.00751   0.01191   0.01438   0.01563   0.01938
 Alpha virt. eigenvalues --    0.02221   0.03077   0.03534   0.04914   0.05359

 Mulliken charges:
               1
     1  O   -0.301423
     2  O   -0.245202
     3  O   -0.216800
     4  O   -0.308709
     5  O   -0.266125
     6  O   -0.277158
     7  N    0.006994
     8  N   -0.157450
     9  N   -0.064822
    10  N   -0.283062
    11  C   -0.159501
    12  C    0.027232
    13  C   -0.147538
    14  C    0.046217
    15  C   -0.052419
    16  C    0.063357
    17  C    0.031393
    18  C    0.008396
    19  C    0.141553
    20  C    0.099455
    21  C    0.171564
    22  C    0.206215
    23  C    0.018828
    24  C   -0.020525
    25  C   -0.054629
    26  C    0.004504
    27  C    0.079486
    28  C    0.060897
    29  C    0.040800
    30  C   -0.117177
    31  C   -0.187008
    32  C    0.041024
    33  C   -0.169438
    34  C    0.050799
    35  C   -0.117766
    36  C   -0.149580
    37  C    0.158281
    38  C    0.117734
    39  C    0.176191
    40  C    0.087824
    41  C    0.156705
    42  C    0.026650
    43  C   -0.084994
    44  H    0.095880
    45  H   -0.047805
    46  H    0.005258
    47  H   -0.016125
    48  H   -0.046775
    49  H    0.033313
    50  H    0.042401
    51  H   -0.060662
    52  H    0.198374
    53  H    0.035769
    54  H    0.036397
    55  H    0.058106
    56  H    0.115636
    57  H    0.079839
    58  H    0.058114
    59  H    0.000964
    60  H    0.013196
    61  H    0.047734
    62  H    0.037757
    63  H    0.035591
    64  H    0.033181
    65  H   -0.041350
    66  H    0.055549
    67  H    0.005209
    68  H   -0.009269
    69  H    0.062546
    70  H   -0.038002
    71  H    0.008738
    72  H    0.010852
    73  H    0.015616
    74  H    0.056148
    75  H    0.039488
    76  H    0.017454
    77  H    0.039305
    78  H    0.034618
    79  H    0.083060
    80  H    0.220592
    81  H    0.242528
 Sum of Mulliken charges =  -0.00000

 Dipole moment (field-independent basis, Debye):
    X=             -2.8415    Y=              3.1878    Z=             -0.5660  Tot=              4.3077
 Quadrupole moment (field-independent basis, Debye-Ang):
   XX=           -260.8188   YY=           -246.5321   ZZ=           -251.3410
   XY=             25.7850   XZ=             18.8108   YZ=            -18.3762

 Normal termination of Gaussian 16 at Fri Jun 28 11:31:41 2019.
