 Gaussian 16, Revision A.03,
 Gaussian 16:  ES64L-G16RevA.03 25-Dec-2016

 --------------------------
 # td=(NStates=1) B3LYP/SVP
 --------------------------

 --
 TD
 --
 Symbolic Z-matrix:
 Charge =  0 Multiplicity = 1

                         Standard orientation:
 ---------------------------------------------------------------------
 Center     Atomic      Atomic             Coordinates (Angstroms)
 Number     Number       Type             X           Y           Z
 ---------------------------------------------------------------------
      1          8           0        4.075975   -5.022727   -1.680497
      2          8           0       -2.845210   -4.795726   -1.073160
      3          8           0       -6.828524   -1.662471   -1.848392
      4          8           0       -3.837555   -3.047827   -0.020882
      5          8           0       -7.481113   -0.655398    0.059103
      6          8           0        3.062602    2.353460    0.375346
      7          7           0        0.276587   -0.418025    0.463400
      8          7           0       -1.497091    1.901438    0.304752
      9          7           0        3.076689   -3.105707   -0.567139
     10          7           0        0.843365    2.828190   -0.013623
     11          6           0       -0.626794   -2.240991    1.452654
     12          6           0       -1.016194   -0.926038    0.932527
     13          6           0        0.703311   -2.551835    1.235830
     14          6           0        1.316483   -1.378796    0.635151
     15          6           0       -3.802833    1.655307    0.254208
     16          6           0       -2.456308    0.960477    0.564109
     17          6           0       -2.172717   -0.377767    0.984434
     18          6           0       -3.481580    2.903154   -0.159229
     19          6           0       -1.684014   -3.136915    2.080434
     20          6           0        5.262352   -2.901672   -1.461834
     21          6           0        3.580254   -1.887244   -0.293118
     22          6           0       -2.033610    3.045333   -0.104974
     23          6           0        4.953896   -1.712869   -0.513082
     24          6           0       -5.164876    0.975474    0.330920
     25          6           0        2.652818   -1.098338    0.341046
     26          6           0        1.438106   -3.793500    1.877602
     27          6           0        4.146955   -3.845363   -1.325071
     28          6           0       -2.118793   -4.310254    1.178892
     29          6           0       -5.300819   -0.160213   -0.796399
     30          6           0       -4.453694    3.949627   -0.565024
     31          6           0       -1.236585    4.149720   -0.355687
     32          6           0        6.494044   -3.704365   -1.072266
     33          6           0        5.782461   -0.709054   -0.127849
     34          6           0        0.143774    3.940973   -0.308087
     35          6           0        1.125559    5.166049   -0.476616
     36          6           0        2.427408    4.563216   -0.235219
     37          6           0       -3.084209   -4.013430   -0.044719
     38          6           0        5.494243    0.333696    0.810509
     39          6           0       -6.663297   -0.763245   -0.782335
     40          6           0        3.760754    5.277302   -0.275839
     41          6           0        2.171396    3.142012    0.045498
     42          6           0        0.778064    6.640498   -0.762055
     43          6           0        4.480105    5.416257    1.099493
     44          1           0        0.626307    0.479505    0.046054
     45          1           0       -3.262312   -0.981564    1.210364
     46          1           0       -2.552220   -2.402923    2.388601
     47          1           0       -1.316797   -3.658424    2.882320
     48          1           0        5.332088   -2.527513   -2.386231
     49          1           0       -5.328369    0.685969    1.489309
     50          1           0       -6.057850    1.772900   -0.138294
     51          1           0        2.807580   -0.043863    0.608285
     52          1           0       -0.654467    1.784519    0.627115
     53          1           0        1.462620   -4.493205    0.942500
     54          1           0        2.421563   -3.545318    2.474915
     55          1           0        0.793969   -4.111127    2.805092
     56          1           0        2.028927   -3.368017   -0.304875
     57          1           0       -1.171758   -4.659610    0.793174
     58          1           0       -2.754818   -5.008947    1.983908
     59          1           0       -4.725612   -1.125372   -0.378543
     60          1           0       -5.072567    0.029495   -1.955315
     61          1           0       -4.389951    4.860526    0.058535
     62          1           0       -5.516121    3.788524   -0.393154
     63          1           0       -4.312063    4.050904   -1.640294
     64          1           0       -1.581624    5.203684   -0.841881
     65          1           0        7.447745   -3.085767   -1.211254
     66          1           0        6.653452   -4.603744   -1.631164
     67          1           0        6.391120   -3.805208   -0.005329
     68          1           0        6.802816   -0.831234   -0.415226
     69          1           0        5.054954    1.185896    0.405667
     70          1           0        6.313114    1.072785    1.222493
     71          1           0        4.770728    0.153961    1.611199
     72          1           0        3.543966    6.312888   -0.683411
     73          1           0        4.529823    4.687429   -0.891930
     74          1           0        0.375403    6.733888   -1.799611
     75          1           0        1.784417    7.012648   -0.891451
     76          1           0        0.313917    6.947317    0.108600
     77          1           0        3.889232    5.948533    1.975863
     78          1           0        5.457312    6.012791    1.085763
     79          1           0        4.523469    4.335833    1.474702
     80          1           0       -3.400480   -4.350185   -1.834382
     81          1           0       -7.787708   -1.896964   -1.579412
 ---------------------------------------------------------------------

 SCF Done:  E(RB3LYP) =  -1949.04837890     A.U. after   19 cycles

 Excitation energies and oscillator strengths:

 Excited State   1:      Singlet-A      1.7294 eV  716.94 nm  f=0.3737  <S**2>=0.000
     156 ->157         0.71366
     156 <-157        -0.14195
 This state for optimization and/or second-order correction.
 Total Energy, E(TD-HF/TD-DFT) =  -1948.98482643
 Copying the excited state density for this state as the 1-particle RhoCI density.

 The electronic state is 1-A.
 Alpha  occ. eigenvalues --  -19.21719 -19.17043 -19.14536 -19.12935 -19.12799
 Alpha  occ. eigenvalues --  -19.08941 -14.37560 -14.37127 -14.35993 -14.27896
 Alpha  occ. eigenvalues --  -10.34151 -10.31112 -10.30689 -10.25145 -10.24359
 Alpha  occ. eigenvalues --  -10.23900 -10.23551 -10.23517 -10.23334 -10.23264
 Alpha  occ. eigenvalues --  -10.23109 -10.23054 -10.22238 -10.22105 -10.21757
 Alpha  occ. eigenvalues --  -10.20866 -10.20827 -10.20651 -10.20602 -10.20598
 Alpha  occ. eigenvalues --  -10.20518 -10.20403 -10.20212 -10.19509 -10.19438
 Alpha  occ. eigenvalues --  -10.19195 -10.19084 -10.19061 -10.19030 -10.18584
 Alpha  occ. eigenvalues --  -10.18300 -10.17541 -10.17525  -1.12190  -1.09207
 Alpha  occ. eigenvalues --   -1.03278  -1.02260  -1.00120  -0.99975  -0.99636
 Alpha  occ. eigenvalues --   -0.96147  -0.94907  -0.90071  -0.83259  -0.82570
 Alpha  occ. eigenvalues --   -0.82032  -0.81371  -0.79206  -0.77964  -0.77768
 Alpha  occ. eigenvalues --   -0.76968  -0.76422  -0.74981  -0.73727  -0.71838
 Alpha  occ. eigenvalues --   -0.71382  -0.70281  -0.68706  -0.67854  -0.67413
 Alpha  occ. eigenvalues --   -0.67086  -0.65806  -0.64736  -0.61923  -0.60629
 Alpha  occ. eigenvalues --   -0.59820  -0.59103  -0.58479  -0.57524  -0.55897
 Alpha  occ. eigenvalues --   -0.55646  -0.55124  -0.54331  -0.53499  -0.53038
 Alpha  occ. eigenvalues --   -0.51822  -0.51506  -0.51115  -0.50495  -0.50236
 Alpha  occ. eigenvalues --   -0.49078  -0.48670  -0.48362  -0.48262  -0.47871
 Alpha  occ. eigenvalues --   -0.46787  -0.46732  -0.46472  -0.45992  -0.45583
 Alpha  occ. eigenvalues --   -0.45362  -0.44998  -0.44540  -0.44421  -0.43866
 Alpha  occ. eigenvalues --   -0.43378  -0.43157  -0.42829  -0.42659  -0.42234
 Alpha  occ. eigenvalues --   -0.42147  -0.41910  -0.41572  -0.41416  -0.40709
 Alpha  occ. eigenvalues --   -0.40448  -0.40282  -0.40085  -0.39554  -0.39336
 Alpha  occ. eigenvalues --   -0.39006  -0.38513  -0.38190  -0.37992  -0.37710
 Alpha  occ. eigenvalues --   -0.37650  -0.37388  -0.36812  -0.36679  -0.36389
 Alpha  occ. eigenvalues --   -0.36214  -0.35913  -0.35182  -0.34829  -0.34653
 Alpha  occ. eigenvalues --   -0.34532  -0.34333  -0.33475  -0.32860  -0.32436
 Alpha  occ. eigenvalues --   -0.32399  -0.31705  -0.31579  -0.30134  -0.29463
 Alpha  occ. eigenvalues --   -0.28260  -0.27559  -0.26462  -0.26214  -0.25881
 Alpha  occ. eigenvalues --   -0.25555  -0.24804  -0.23217  -0.22140  -0.21453
 Alpha  occ. eigenvalues --   -0.16870
 Alpha virt. eigenvalues --   -0.10161  -0.05856  -0.03898  -0.02107  -0.01524
 Alpha virt. eigenvalues --    0.00630   0.01661   0.01855   0.02223   0.03400
 Alpha virt. eigenvalues --    0.03923   0.04872   0.05265   0.05490   0.05809

 Mulliken charges:
               1
     1  O   -0.205999
     2  O   -0.164306
     3  O   -0.257839
     4  O   -0.237896
     5  O   -0.202206
     6  O   -0.241682
     7  N   -0.200084
     8  N    0.064841
     9  N   -0.211678
    10  N   -0.284513
    11  C   -0.123208
    12  C    0.242720
    13  C   -0.201755
    14  C    0.062067
    15  C   -0.037086
    16  C   -0.060095
    17  C   -0.156775
    18  C   -0.128180
    19  C    0.147397
    20  C   -0.001422
    21  C    0.142095
    22  C    0.115432
    23  C   -0.013483
    24  C   -0.029464
    25  C   -0.180728
    26  C    0.012513
    27  C    0.180328
    28  C   -0.035440
    29  C   -0.072931
    30  C    0.109124
    31  C   -0.189853
    32  C    0.055600
    33  C   -0.062802
    34  C    0.055943
    35  C   -0.210732
    36  C   -0.145710
    37  C    0.143487
    38  C    0.079494
    39  C    0.127164
    40  C    0.068615
    41  C    0.137137
    42  C    0.186263
    43  C   -0.082530
    44  H    0.159107
    45  H    0.085752
    46  H    0.030646
    47  H   -0.031833
    48  H    0.012791
    49  H    0.073082
    50  H    0.047072
    51  H    0.021382
    52  H    0.066993
    53  H    0.059697
    54  H    0.064923
    55  H    0.037162
    56  H    0.180637
    57  H    0.024128
    58  H    0.067885
    59  H    0.106182
    60  H    0.069252
    61  H    0.022398
    62  H   -0.002944
    63  H    0.027079
    64  H    0.028765
    65  H    0.012307
    66  H    0.036034
    67  H    0.012144
    68  H   -0.021431
    69  H    0.020354
    70  H    0.009058
    71  H    0.032956
    72  H    0.002878
    73  H    0.025720
    74  H    0.033791
    75  H   -0.016675
    76  H    0.030468
    77  H    0.009301
    78  H    0.025982
    79  H    0.042425
    80  H    0.219936
    81  H    0.182771
 Sum of Mulliken charges =  -0.00000

 Dipole moment (field-independent basis, Debye):
    X=             -1.2766    Y=             -0.2461    Z=             -0.5080  Tot=              1.3959
 Quadrupole moment (field-independent basis, Debye-Ang):
   XX=           -251.6708   YY=           -248.7054   ZZ=           -250.0475
   XY=              6.4646   XZ=              6.8185   YZ=            -12.2330

 Normal termination of Gaussian 16 at Mon Jul  1 14:12:43 2019.
