 Gaussian 16, Revision A.03,
 Gaussian 16:  ES64L-G16RevA.03 25-Dec-2016

 --------------------------
 # td=(NStates=1) B3LYP/SVP
 --------------------------

 --
 TD
 --
 Symbolic Z-matrix:
 Charge =  0 Multiplicity = 1

                         Standard orientation:
 ---------------------------------------------------------------------
 Center     Atomic      Atomic             Coordinates (Angstroms)
 Number     Number       Type             X           Y           Z
 ---------------------------------------------------------------------
      1          8           0        4.477620   -4.733919   -1.893069
      2          8           0       -2.681893   -5.026994   -1.151533
      3          8           0       -7.061101   -1.445733   -2.055554
      4          8           0       -3.633183   -3.305698   -0.064167
      5          8           0       -7.549049   -0.686091    0.008400
      6          8           0        2.881665    2.414201    0.231028
      7          7           0        0.223387   -0.499324    0.647776
      8          7           0       -1.671424    1.861323    0.370595
      9          7           0        3.380636   -3.041351   -0.683709
     10          7           0        0.672959    2.872798    0.081618
     11          6           0       -0.626750   -2.389889    1.431552
     12          6           0       -0.956155   -1.054351    0.961122
     13          6           0        0.771265   -2.665735    1.215977
     14          6           0        1.296307   -1.441211    0.767725
     15          6           0       -3.784725    1.416250    0.234167
     16          6           0       -2.483496    0.836016    0.542859
     17          6           0       -2.184241   -0.510451    0.881363
     18          6           0       -3.562598    2.757946    0.014685
     19          6           0       -1.587725   -3.463690    2.048176
     20          6           0        5.690013   -2.577417   -1.282851
     21          6           0        3.657430   -1.748212   -0.173764
     22          6           0       -2.274284    2.988875    0.037205
     23          6           0        4.957678   -1.403445   -0.416580
     24          6           0       -5.141839    0.640986    0.400815
     25          6           0        2.595387   -0.944881    0.312838
     26          6           0        1.551304   -3.774087    1.891250
     27          6           0        4.480295   -3.617655   -1.306452
     28          6           0       -1.901997   -4.634299    1.026194
     29          6           0       -5.358943   -0.311562   -0.818226
     30          6           0       -4.569294    3.824285   -0.281751
     31          6           0       -1.428720    4.020229   -0.312042
     32          6           0        7.069977   -3.130541   -0.927913
     33          6           0        5.774903   -0.282924   -0.134763
     34          6           0        0.019186    3.964211   -0.184256
     35          6           0        0.960291    5.092120   -0.477586
     36          6           0        2.177156    4.637713   -0.141143
     37          6           0       -2.831894   -4.143804   -0.060355
     38          6           0        5.454797    0.674640    0.837982
     39          6           0       -6.827370   -0.769315   -0.927164
     40          6           0        3.566293    5.305321   -0.425026
     41          6           0        2.016484    3.243112    0.114769
     42          6           0        0.451006    6.505522   -0.858397
     43          6           0        4.250106    5.571210    0.959209
     44          1           0        0.165356    0.374902    0.020279
     45          1           0       -3.077558   -1.204869    0.866000
     46          1           0       -2.609533   -2.904630    2.293366
     47          1           0       -1.171626   -3.725040    2.977874
     48          1           0        5.695206   -2.042746   -2.261601
     49          1           0       -5.213670    0.130475    1.518237
     50          1           0       -6.039777    1.343081    0.828316
     51          1           0        2.700978    0.215414    0.272749
     52          1           0       -0.701966    1.910848    0.519099
     53          1           0        2.048255   -4.794356    1.171241
     54          1           0        2.559130   -3.497065    2.433370
     55          1           0        0.965736   -4.247368    2.749084
     56          1           0        2.455341   -3.335494   -0.848847
     57          1           0       -0.880193   -5.214754    0.617920
     58          1           0       -2.581184   -5.262648    1.666974
     59          1           0       -4.678520   -1.026321   -0.645031
     60          1           0       -5.156178    0.069736   -1.864222
     61          1           0       -4.172554    4.937893    0.305988
     62          1           0       -5.650142    3.518066    0.200727
     63          1           0       -4.437006    3.907645   -1.366951
     64          1           0       -1.953375    4.920753   -0.565382
     65          1           0        7.861255   -2.392418   -1.153485
     66          1           0        7.237827   -3.903610   -1.771943
     67          1           0        7.192587   -3.315861    0.212666
     68          1           0        6.752555   -0.512470   -0.279901
     69          1           0        4.868265    1.538913    0.565100
     70          1           0        6.319816    0.984980    1.368277
     71          1           0        4.629980    0.074766    1.454402
     72          1           0        3.280372    6.204497   -1.029239
     73          1           0        4.082600    4.535071   -0.787278
     74          1           0       -0.108999    6.534726   -1.734519
     75          1           0        1.037819    7.349043   -0.800513
     76          1           0       -0.410401    6.680324   -0.064760
     77          1           0        3.702874    6.417451    1.508196
     78          1           0        5.371671    5.920311    0.716418
     79          1           0        4.397681    4.644450    1.539872
     80          1           0       -3.479582   -4.877042   -1.785743
     81          1           0       -8.033486   -1.726700   -2.059240
 ---------------------------------------------------------------------

 SCF Done:  E(RB3LYP) =  -1949.05126349     A.U. after   18 cycles

 Excitation energies and oscillator strengths:

 Excited State   1:      Singlet-A      1.6612 eV  746.35 nm  f=0.3699  <S**2>=0.000
     156 ->157         0.71504
     156 <-157        -0.15571
 This state for optimization and/or second-order correction.
 Total Energy, E(TD-HF/TD-DFT) =  -1948.99021534
 Copying the excited state density for this state as the 1-particle RhoCI density.

 The electronic state is 1-A.
 Alpha  occ. eigenvalues --  -19.19267 -19.17820 -19.15489 -19.12705 -19.10636
 Alpha  occ. eigenvalues --  -19.10398 -14.37653 -14.36987 -14.34471 -14.28440
 Alpha  occ. eigenvalues --  -10.33446 -10.31867 -10.29284 -10.25992 -10.24561
 Alpha  occ. eigenvalues --  -10.24230 -10.23658 -10.22879 -10.22859 -10.22858
 Alpha  occ. eigenvalues --  -10.22775 -10.22371 -10.21998 -10.21942 -10.21343
 Alpha  occ. eigenvalues --  -10.21224 -10.21007 -10.20975 -10.20874 -10.20395
 Alpha  occ. eigenvalues --  -10.20237 -10.20216 -10.20111 -10.20045 -10.19596
 Alpha  occ. eigenvalues --  -10.19571 -10.19323 -10.19079 -10.18846 -10.18283
 Alpha  occ. eigenvalues --  -10.18240 -10.18018 -10.16993  -1.11216  -1.10413
 Alpha  occ. eigenvalues --   -1.03130  -1.01930  -1.01297  -1.01217  -1.00772
 Alpha  occ. eigenvalues --   -0.97875  -0.94222  -0.93339  -0.82336  -0.81662
 Alpha  occ. eigenvalues --   -0.81480  -0.81188  -0.79759  -0.78992  -0.77027
 Alpha  occ. eigenvalues --   -0.76792  -0.76335  -0.75215  -0.74673  -0.71883
 Alpha  occ. eigenvalues --   -0.70376  -0.69818  -0.69500  -0.67790  -0.67617
 Alpha  occ. eigenvalues --   -0.66781  -0.65415  -0.63598  -0.62281  -0.61348
 Alpha  occ. eigenvalues --   -0.60214  -0.59458  -0.58419  -0.57664  -0.56534
 Alpha  occ. eigenvalues --   -0.56233  -0.55686  -0.54450  -0.54352  -0.54052
 Alpha  occ. eigenvalues --   -0.53232  -0.51583  -0.50954  -0.50601  -0.49674
 Alpha  occ. eigenvalues --   -0.48682  -0.48499  -0.48290  -0.47810  -0.47589
 Alpha  occ. eigenvalues --   -0.46867  -0.46773  -0.46276  -0.45849  -0.45470
 Alpha  occ. eigenvalues --   -0.44924  -0.44720  -0.44032  -0.43634  -0.43503
 Alpha  occ. eigenvalues --   -0.43194  -0.42902  -0.42698  -0.42686  -0.42117
 Alpha  occ. eigenvalues --   -0.41578  -0.41356  -0.41287  -0.41245  -0.40808
 Alpha  occ. eigenvalues --   -0.40639  -0.40199  -0.40047  -0.39767  -0.39459
 Alpha  occ. eigenvalues --   -0.39428  -0.38935  -0.38657  -0.38076  -0.37922
 Alpha  occ. eigenvalues --   -0.37786  -0.37281  -0.37064  -0.36889  -0.36193
 Alpha  occ. eigenvalues --   -0.36090  -0.35633  -0.35460  -0.35173  -0.34757
 Alpha  occ. eigenvalues --   -0.34377  -0.33727  -0.33496  -0.33336  -0.33221
 Alpha  occ. eigenvalues --   -0.32204  -0.32096  -0.31355  -0.30500  -0.30234
 Alpha  occ. eigenvalues --   -0.28236  -0.27968  -0.26516  -0.25590  -0.25329
 Alpha  occ. eigenvalues --   -0.24848  -0.24808  -0.24516  -0.23815  -0.21174
 Alpha  occ. eigenvalues --   -0.17069
 Alpha virt. eigenvalues --   -0.10793  -0.06608  -0.05000  -0.00993  -0.00497
 Alpha virt. eigenvalues --    0.00681   0.02588   0.02740   0.03331   0.03500
 Alpha virt. eigenvalues --    0.03642   0.03985   0.04744   0.05563   0.06227

 Mulliken charges:
               1
     1  O   -0.258819
     2  O   -0.270001
     3  O   -0.193601
     4  O   -0.147495
     5  O   -0.200447
     6  O   -0.188264
     7  N   -0.112793
     8  N    0.039931
     9  N   -0.098721
    10  N   -0.261339
    11  C   -0.150156
    12  C    0.110985
    13  C   -0.080818
    14  C    0.087302
    15  C   -0.073391
    16  C    0.001415
    17  C   -0.107584
    18  C   -0.114372
    19  C    0.064586
    20  C   -0.119371
    21  C    0.129244
    22  C    0.058979
    23  C   -0.119998
    24  C   -0.058471
    25  C   -0.142292
    26  C   -0.072339
    27  C    0.159262
    28  C   -0.019552
    29  C    0.073444
    30  C   -0.013235
    31  C   -0.104079
    32  C    0.042179
    33  C   -0.011790
    34  C    0.061599
    35  C   -0.105027
    36  C   -0.216673
    37  C    0.134546
    38  C    0.052315
    39  C    0.124642
    40  C    0.188694
    41  C    0.131997
    42  C    0.134638
    43  C   -0.073326
    44  H    0.169515
    45  H    0.041722
    46  H    0.029218
    47  H    0.007019
    48  H    0.055400
    49  H    0.043486
    50  H    0.035018
    51  H    0.069528
    52  H    0.088832
    53  H    0.044447
    54  H    0.051909
    55  H    0.030310
    56  H    0.123365
    57  H    0.093023
    58  H    0.058446
    59  H    0.003815
    60  H    0.033491
    61  H    0.043517
    62  H    0.057559
    63  H    0.045163
    64  H   -0.057835
    65  H    0.012825
    66  H    0.051841
    67  H    0.042312
    68  H   -0.048896
    69  H    0.054075
    70  H    0.001499
    71  H    0.035866
    72  H    0.015628
    73  H   -0.027141
    74  H    0.000607
    75  H   -0.000058
    76  H    0.028215
    77  H    0.028433
    78  H    0.015467
    79  H    0.040017
    80  H    0.202132
    81  H    0.198431
 Sum of Mulliken charges =  -0.00000

 Dipole moment (field-independent basis, Debye):
    X=             -2.9843    Y=              1.2859    Z=             -0.1526  Tot=              3.2532
 Quadrupole moment (field-independent basis, Debye-Ang):
   XX=           -243.1173   YY=           -247.5798   ZZ=           -252.6518
   XY=             21.3716   XZ=             17.5733   YZ=            -15.3911

 Normal termination of Gaussian 16 at Fri Jun 28 13:07:55 2019.
