 Gaussian 16, Revision A.03,
 Gaussian 16:  ES64L-G16RevA.03 25-Dec-2016

 --------------------------
 # td=(NStates=1) B3LYP/SVP
 --------------------------

 --
 TD
 --
 Symbolic Z-matrix:
 Charge =  0 Multiplicity = 1

                         Standard orientation:
 ---------------------------------------------------------------------
 Center     Atomic      Atomic             Coordinates (Angstroms)
 Number     Number       Type             X           Y           Z
 ---------------------------------------------------------------------
      1          8           0        4.528120   -4.647694   -1.934142
      2          8           0       -2.733149   -4.967078   -1.019011
      3          8           0       -6.643311   -1.914086   -1.785960
      4          8           0       -3.586216   -3.205073    0.105590
      5          8           0       -7.650888   -0.494274   -0.178727
      6          8           0        2.896790    2.405476    0.303493
      7          7           0        0.292899   -0.439363    0.677862
      8          7           0       -1.618149    1.827859    0.368708
      9          7           0        3.363084   -2.989668   -0.833698
     10          7           0        0.647735    2.942856   -0.046948
     11          6           0       -0.642845   -2.382106    1.425062
     12          6           0       -0.921126   -1.080501    1.026123
     13          6           0        0.779540   -2.587374    1.225799
     14          6           0        1.321239   -1.371231    0.670070
     15          6           0       -3.852001    1.350338    0.242765
     16          6           0       -2.495143    0.763130    0.554404
     17          6           0       -2.242087   -0.470713    0.955088
     18          6           0       -3.716161    2.676084   -0.118215
     19          6           0       -1.530999   -3.381625    2.110344
     20          6           0        5.708012   -2.631194   -1.274190
     21          6           0        3.567873   -1.850058   -0.241654
     22          6           0       -2.268717    2.987615    0.001063
     23          6           0        4.996781   -1.422518   -0.461198
     24          6           0       -5.094592    0.623993    0.345340
     25          6           0        2.682503   -1.002022    0.398596
     26          6           0        1.530522   -3.757110    1.572228
     27          6           0        4.528344   -3.570258   -1.397181
     28          6           0       -1.873791   -4.445444    1.066227
     29          6           0       -5.263303   -0.402631   -0.795650
     30          6           0       -4.725160    3.718332   -0.468578
     31          6           0       -1.450009    4.171127   -0.322987
     32          6           0        6.911420   -3.318625   -0.833579
     33          6           0        5.683114   -0.358105   -0.007480
     34          6           0       -0.041873    4.037373   -0.324703
     35          6           0        0.815738    5.197887   -0.499894
     36          6           0        2.105568    4.760427   -0.224468
     37          6           0       -2.884155   -4.202332    0.044729
     38          6           0        5.333278    0.798439    0.932246
     39          6           0       -6.643156   -0.924145   -0.872972
     40          6           0        3.480356    5.301542   -0.261085
     41          6           0        1.989581    3.269493    0.104927
     42          6           0        0.450139    6.623697   -0.821358
     43          6           0        4.211382    5.536896    0.999922
     44          1           0        0.401349    0.547419    0.626577
     45          1           0       -2.989649   -1.129820    0.858674
     46          1           0       -2.322432   -2.932572    2.346782
     47          1           0       -1.110166   -3.940763    2.939997
     48          1           0        5.871274   -2.279747   -2.257843
     49          1           0       -5.321765    0.151752    1.343744
     50          1           0       -6.044058    1.318306    0.094675
     51          1           0        2.852398   -0.012958    0.479297
     52          1           0       -0.689685    1.744909    0.317627
     53          1           0        1.546657   -4.623869    0.962268
     54          1           0        2.516039   -3.307421    1.799847
     55          1           0        0.992554   -4.258645    2.463779
     56          1           0        2.461873   -3.341180   -0.967046
     57          1           0       -1.150460   -4.995686    0.606276
     58          1           0       -2.280570   -5.320944    1.763866
     59          1           0       -4.600248   -1.277599   -0.607591
     60          1           0       -4.941594    0.278650   -1.550013
     61          1           0       -4.832639    4.690793    0.260944
     62          1           0       -5.552081    3.049617   -0.402251
     63          1           0       -4.478079    3.967742   -1.380129
     64          1           0       -1.849082    4.989968   -0.845990
     65          1           0        7.850681   -2.445307   -0.632103
     66          1           0        7.123567   -4.107821   -1.558036
     67          1           0        6.915951   -3.822629    0.197743
     68          1           0        6.729317   -0.411928   -0.354650
     69          1           0        4.981920    1.688447    0.316468
     70          1           0        6.215077    1.011630    1.550665
     71          1           0        4.497319    0.338562    1.600055
     72          1           0        3.538374    6.350366   -0.866036
     73          1           0        4.203203    4.596197   -0.743469
     74          1           0       -0.218876    6.749439   -1.602105
     75          1           0        1.419317    7.213397   -0.985877
     76          1           0       -0.143038    6.988800    0.089862
     77          1           0        3.593386    6.024423    1.727617
     78          1           0        5.256449    6.141849    1.054898
     79          1           0        4.401574    4.466133    1.491316
     80          1           0       -3.261733   -4.654994   -1.792699
     81          1           0       -7.573538   -2.204748   -1.937002
 ---------------------------------------------------------------------

 SCF Done:  E(RB3LYP) =  -1949.10910020     A.U. after   17 cycles

 Excitation energies and oscillator strengths:

 Excited State   1:      Singlet-A      1.7415 eV  711.95 nm  f=0.2896  <S**2>=0.000
     156 ->157         0.70865
     156 <-157        -0.10337
 This state for optimization and/or second-order correction.
 Total Energy, E(TD-HF/TD-DFT) =  -1949.04510230
 Copying the excited state density for this state as the 1-particle RhoCI density.

 The electronic state is 1-A.
 Alpha  occ. eigenvalues --  -19.20693 -19.20133 -19.13833 -19.13122 -19.12192
 Alpha  occ. eigenvalues --  -19.10210 -14.37620 -14.36606 -14.35880 -14.27938
 Alpha  occ. eigenvalues --  -10.33459 -10.33100 -10.30040 -10.26275 -10.25204
 Alpha  occ. eigenvalues --  -10.24117 -10.23001 -10.22760 -10.22554 -10.22286
 Alpha  occ. eigenvalues --  -10.21066 -10.20889 -10.20762 -10.20661 -10.20644
 Alpha  occ. eigenvalues --  -10.20336 -10.20026 -10.19874 -10.19809 -10.19792
 Alpha  occ. eigenvalues --  -10.19770 -10.19636 -10.19474 -10.19349 -10.19288
 Alpha  occ. eigenvalues --  -10.19135 -10.19032 -10.19031 -10.18950 -10.18493
 Alpha  occ. eigenvalues --  -10.18240 -10.18208 -10.17185  -1.12051  -1.09478
 Alpha  occ. eigenvalues --   -1.05230  -1.02275  -0.98992  -0.98041  -0.97934
 Alpha  occ. eigenvalues --   -0.97797  -0.96126  -0.91463  -0.83496  -0.83167
 Alpha  occ. eigenvalues --   -0.81624  -0.81394  -0.79245  -0.79179  -0.78493
 Alpha  occ. eigenvalues --   -0.77858  -0.76491  -0.75509  -0.74131  -0.73100
 Alpha  occ. eigenvalues --   -0.72438  -0.70395  -0.69612  -0.69178  -0.68013
 Alpha  occ. eigenvalues --   -0.67753  -0.65602  -0.64559  -0.62879  -0.62109
 Alpha  occ. eigenvalues --   -0.61341  -0.59958  -0.59056  -0.58721  -0.57516
 Alpha  occ. eigenvalues --   -0.57004  -0.55632  -0.54733  -0.53343  -0.53305
 Alpha  occ. eigenvalues --   -0.52858  -0.52038  -0.51153  -0.51117  -0.50232
 Alpha  occ. eigenvalues --   -0.49713  -0.49296  -0.49142  -0.48778  -0.48171
 Alpha  occ. eigenvalues --   -0.47360  -0.46950  -0.46601  -0.46083  -0.45822
 Alpha  occ. eigenvalues --   -0.44999  -0.44504  -0.44291  -0.44003  -0.43984
 Alpha  occ. eigenvalues --   -0.43483  -0.43366  -0.43146  -0.42734  -0.42390
 Alpha  occ. eigenvalues --   -0.42142  -0.41988  -0.41692  -0.41429  -0.41169
 Alpha  occ. eigenvalues --   -0.40924  -0.40634  -0.40513  -0.40024  -0.39928
 Alpha  occ. eigenvalues --   -0.39400  -0.39276  -0.39011  -0.38704  -0.38431
 Alpha  occ. eigenvalues --   -0.38240  -0.37523  -0.37328  -0.37130  -0.36320
 Alpha  occ. eigenvalues --   -0.36181  -0.35927  -0.35329  -0.34886  -0.34708
 Alpha  occ. eigenvalues --   -0.34027  -0.33842  -0.33035  -0.32827  -0.32474
 Alpha  occ. eigenvalues --   -0.31870  -0.31439  -0.30966  -0.29837  -0.29508
 Alpha  occ. eigenvalues --   -0.28119  -0.26868  -0.26820  -0.26398  -0.25772
 Alpha  occ. eigenvalues --   -0.25086  -0.23711  -0.23693  -0.22792  -0.21234
 Alpha  occ. eigenvalues --   -0.17454
 Alpha virt. eigenvalues --   -0.10318  -0.05696  -0.03393  -0.02272  -0.01824
 Alpha virt. eigenvalues --   -0.00563   0.01867   0.03003   0.03485   0.04100
 Alpha virt. eigenvalues --    0.04349   0.04692   0.04999   0.05474   0.05704

 Mulliken charges:
               1
     1  O   -0.182786
     2  O   -0.160745
     3  O   -0.172462
     4  O   -0.235129
     5  O   -0.299145
     6  O   -0.259134
     7  N   -0.104585
     8  N   -0.012779
     9  N   -0.012600
    10  N   -0.282339
    11  C   -0.136009
    12  C    0.049273
    13  C   -0.168664
    14  C    0.051754
    15  C   -0.058407
    16  C    0.112861
    17  C    0.004820
    18  C   -0.166068
    19  C    0.352601
    20  C    0.033477
    21  C    0.071959
    22  C    0.090992
    23  C   -0.056926
    24  C   -0.032104
    25  C   -0.061219
    26  C    0.069711
    27  C    0.083305
    28  C   -0.023473
    29  C   -0.012171
    30  C    0.187056
    31  C   -0.091808
    32  C   -0.012972
    33  C   -0.184916
    34  C    0.080075
    35  C   -0.137829
    36  C   -0.140763
    37  C    0.124938
    38  C    0.073166
    39  C    0.183488
    40  C    0.051944
    41  C    0.173681
    42  C    0.122214
    43  C   -0.069672
    44  H    0.129083
    45  H   -0.057379
    46  H   -0.087126
    47  H    0.004420
    48  H    0.027734
    49  H    0.033759
    50  H    0.047411
    51  H   -0.043729
    52  H    0.047613
    53  H    0.011573
    54  H    0.041008
    55  H   -0.003721
    56  H    0.112672
    57  H   -0.013012
    58  H    0.038173
    59  H    0.073360
    60  H    0.034871
    61  H    0.058871
    62  H   -0.017068
    63  H   -0.015264
    64  H   -0.038940
    65  H    0.034049
    66  H    0.042945
    67  H    0.024573
    68  H   -0.012844
    69  H    0.088875
    70  H    0.009872
    71  H    0.038650
    72  H    0.004878
    73  H    0.023671
    74  H   -0.002229
    75  H    0.033708
    76  H    0.031983
    77  H   -0.005976
    78  H    0.031924
    79  H    0.035484
    80  H    0.202828
    81  H    0.190690
 Sum of Mulliken charges =  -0.00000

 Dipole moment (field-independent basis, Debye):
    X=             -2.5982    Y=             -1.6567    Z=             -1.6345  Tot=              3.4881
 Quadrupole moment (field-independent basis, Debye-Ang):
   XX=           -257.7538   YY=           -235.5778   ZZ=           -250.7063
   XY=             16.4429   XZ=             18.0326   YZ=             -8.7365

 Normal termination of Gaussian 16 at Mon Jul  1 17:02:08 2019.
