 Gaussian 16, Revision A.03,
 Gaussian 16:  ES64L-G16RevA.03 25-Dec-2016

 --------------------------
 # td=(NStates=1) B3LYP/SVP
 --------------------------

 --
 TD
 --
 Symbolic Z-matrix:
 Charge =  0 Multiplicity = 1

                         Standard orientation:
 ---------------------------------------------------------------------
 Center     Atomic      Atomic             Coordinates (Angstroms)
 Number     Number       Type             X           Y           Z
 ---------------------------------------------------------------------
      1          8           0        4.281739   -4.796073   -2.114090
      2          8           0       -2.995508   -4.642033   -1.195515
      3          8           0       -7.093190   -1.345942   -1.748240
      4          8           0       -3.754629   -2.961801   -0.090648
      5          8           0       -7.653735   -0.365649    0.203489
      6          8           0        3.211865    2.353196    0.772769
      7          7           0        0.298779   -0.451139    0.726797
      8          7           0       -1.487876    1.734088    0.266083
      9          7           0        3.173686   -3.205298   -0.761251
     10          7           0        0.992287    2.819986    0.112178
     11          6           0       -0.745695   -2.419281    1.399201
     12          6           0       -1.015502   -1.029267    0.983501
     13          6           0        0.626517   -2.641081    1.291564
     14          6           0        1.261969   -1.373289    0.849845
     15          6           0       -3.744179    1.612414    0.193642
     16          6           0       -2.510442    0.929365    0.489308
     17          6           0       -2.207509   -0.423753    0.894953
     18          6           0       -3.435652    2.882428   -0.285956
     19          6           0       -1.793371   -3.321971    2.017342
     20          6           0        5.449118   -2.810714   -1.363455
     21          6           0        3.511038   -1.975976   -0.185063
     22          6           0       -1.980696    2.928933   -0.113263
     23          6           0        4.967966   -1.668580   -0.399060
     24          6           0       -5.095348    0.898788    0.396854
     25          6           0        2.592656   -1.082716    0.404249
     26          6           0        1.242865   -3.946885    1.751240
     27          6           0        4.239507   -3.757106   -1.517318
     28          6           0       -2.239490   -4.479480    1.108078
     29          6           0       -5.508296    0.093334   -0.791466
     30          6           0       -4.335198    3.964542   -0.721688
     31          6           0       -1.095518    4.070419   -0.518166
     32          6           0        6.762551   -3.492673   -1.056780
     33          6           0        5.737132   -0.633270    0.073994
     34          6           0        0.262752    3.909076   -0.264999
     35          6           0        1.183963    5.007559   -0.550231
     36          6           0        2.443015    4.559145   -0.216847
     37          6           0       -3.096154   -3.912926   -0.042731
     38          6           0        5.356809    0.497635    0.907913
     39          6           0       -6.857927   -0.600925   -0.678686
     40          6           0        3.777703    5.253728   -0.172537
     41          6           0        2.328421    3.111429    0.301364
     42          6           0        0.916975    6.353725   -1.086502
     43          6           0        4.374950    5.260519    1.278458
     44          1           0        0.468610    0.367009    0.270118
     45          1           0       -3.208255   -1.028532    1.179884
     46          1           0       -2.614677   -2.728996    2.524145
     47          1           0       -1.328603   -3.825494    2.726267
     48          1           0        5.566381   -2.256088   -2.389933
     49          1           0       -5.069961    0.311272    1.311511
     50          1           0       -5.837873    1.729341    0.906719
     51          1           0        2.901331    0.060939    0.294302
     52          1           0       -0.405077    1.765622    0.610430
     53          1           0        1.181714   -4.671186    0.908631
     54          1           0        2.297237   -3.674200    2.037138
     55          1           0        0.629385   -4.167659    2.697992
     56          1           0        2.259909   -3.910041   -0.615095
     57          1           0       -1.444103   -5.092499    0.832582
     58          1           0       -2.986195   -5.110670    1.795883
     59          1           0       -4.832692   -0.741648   -1.029173
     60          1           0       -5.684174    0.690718   -1.709244
     61          1           0       -4.057047    4.865513    0.045806
     62          1           0       -5.297004    3.817824   -0.563804
     63          1           0       -4.220177    4.469902   -1.608321
     64          1           0       -1.813875    4.945225   -0.989221
     65          1           0        7.524068   -2.930236   -1.273929
     66          1           0        6.890156   -4.261220   -1.792302
     67          1           0        6.865317   -3.987820   -0.250958
     68          1           0        6.718454   -0.508126   -0.414887
     69          1           0        4.883989    1.228183    0.310317
     70          1           0        6.071554    1.078997    1.446199
     71          1           0        4.704838    0.239696    1.780010
     72          1           0        3.761723    6.089571   -0.775383
     73          1           0        4.432841    4.555480   -0.708350
     74          1           0        0.290785    6.139695   -2.056784
     75          1           0        1.830854    6.788032   -1.845426
     76          1           0        0.549549    6.965399   -0.214715
     77          1           0        3.680526    5.788391    1.971637
     78          1           0        5.314727    5.872062    1.213108
     79          1           0        4.588771    4.242293    1.657696
     80          1           0       -3.694351   -4.355015   -1.807599
     81          1           0       -7.978705   -1.557630   -1.764569
 ---------------------------------------------------------------------

 SCF Done:  E(RB3LYP) =  -1949.09119401     A.U. after   21 cycles

 Excitation energies and oscillator strengths:

 Excited State   1:      Singlet-A      1.6719 eV  741.58 nm  f=0.3093  <S**2>=0.000
     156 ->157         0.70618
     156 <-157        -0.12501
 This state for optimization and/or second-order correction.
 Total Energy, E(TD-HF/TD-DFT) =  -1949.02975329
 Copying the excited state density for this state as the 1-particle RhoCI density.

 The electronic state is 1-A.
 Alpha  occ. eigenvalues --  -19.18656 -19.17842 -19.14706 -19.12491 -19.12215
 Alpha  occ. eigenvalues --  -19.08840 -14.39310 -14.38042 -14.35765 -14.27581
 Alpha  occ. eigenvalues --  -10.33364 -10.31663 -10.30165 -10.26360 -10.25397
 Alpha  occ. eigenvalues --  -10.25235 -10.23824 -10.23525 -10.22786 -10.22258
 Alpha  occ. eigenvalues --  -10.22088 -10.21830 -10.21581 -10.21464 -10.21459
 Alpha  occ. eigenvalues --  -10.21417 -10.21073 -10.21012 -10.20702 -10.20696
 Alpha  occ. eigenvalues --  -10.20230 -10.20198 -10.20041 -10.19868 -10.19704
 Alpha  occ. eigenvalues --  -10.19642 -10.18895 -10.17153 -10.17003 -10.16739
 Alpha  occ. eigenvalues --  -10.16719 -10.16088 -10.16083  -1.12500  -1.11575
 Alpha  occ. eigenvalues --   -1.04944  -1.02250  -1.01154  -0.99172  -0.98139
 Alpha  occ. eigenvalues --   -0.98017  -0.95038  -0.89714  -0.84180  -0.81355
 Alpha  occ. eigenvalues --   -0.81189  -0.80933  -0.79280  -0.78295  -0.77655
 Alpha  occ. eigenvalues --   -0.77360  -0.76193  -0.74783  -0.73637  -0.72142
 Alpha  occ. eigenvalues --   -0.71664  -0.70781  -0.69717  -0.68546  -0.68045
 Alpha  occ. eigenvalues --   -0.65903  -0.65296  -0.64310  -0.61763  -0.61386
 Alpha  occ. eigenvalues --   -0.60985  -0.59729  -0.58671  -0.57854  -0.57486
 Alpha  occ. eigenvalues --   -0.56342  -0.54825  -0.54577  -0.54017  -0.53340
 Alpha  occ. eigenvalues --   -0.52981  -0.50736  -0.50477  -0.50273  -0.49512
 Alpha  occ. eigenvalues --   -0.49295  -0.49015  -0.48806  -0.48286  -0.48039
 Alpha  occ. eigenvalues --   -0.47728  -0.46411  -0.45956  -0.45556  -0.45116
 Alpha  occ. eigenvalues --   -0.45038  -0.44688  -0.44480  -0.44293  -0.44103
 Alpha  occ. eigenvalues --   -0.43484  -0.43187  -0.43142  -0.42868  -0.42692
 Alpha  occ. eigenvalues --   -0.42173  -0.42009  -0.41385  -0.41241  -0.41046
 Alpha  occ. eigenvalues --   -0.40931  -0.40699  -0.40329  -0.39787  -0.39647
 Alpha  occ. eigenvalues --   -0.39451  -0.39137  -0.38918  -0.38796  -0.38532
 Alpha  occ. eigenvalues --   -0.38060  -0.37753  -0.37196  -0.36972  -0.36578
 Alpha  occ. eigenvalues --   -0.36195  -0.35743  -0.35476  -0.34893  -0.33830
 Alpha  occ. eigenvalues --   -0.33806  -0.33608  -0.32909  -0.32574  -0.32489
 Alpha  occ. eigenvalues --   -0.32212  -0.31880  -0.30935  -0.30432  -0.29963
 Alpha  occ. eigenvalues --   -0.27654  -0.27157  -0.26638  -0.26268  -0.25736
 Alpha  occ. eigenvalues --   -0.24882  -0.24186  -0.22368  -0.21761  -0.20615
 Alpha  occ. eigenvalues --   -0.17020
 Alpha virt. eigenvalues --   -0.10270  -0.05453  -0.04029  -0.01072  -0.00657
 Alpha virt. eigenvalues --    0.00481   0.01001   0.02534   0.03595   0.03967
 Alpha virt. eigenvalues --    0.04713   0.05112   0.05380   0.05634   0.06322

 Mulliken charges:
               1
     1  O   -0.180831
     2  O   -0.210295
     3  O   -0.125263
     4  O   -0.158619
     5  O   -0.229508
     6  O   -0.279446
     7  N   -0.043231
     8  N   -0.085420
     9  N   -0.216352
    10  N   -0.341902
    11  C   -0.087445
    12  C    0.126358
    13  C   -0.217453
    14  C    0.085585
    15  C   -0.087074
    16  C    0.004344
    17  C   -0.105853
    18  C   -0.134048
    19  C    0.189149
    20  C   -0.133934
    21  C    0.095585
    22  C   -0.022479
    23  C   -0.003733
    24  C    0.059856
    25  C   -0.147150
    26  C    0.043093
    27  C    0.147341
    28  C   -0.000137
    29  C    0.042383
    30  C    0.162575
    31  C   -0.168778
    32  C    0.256071
    33  C   -0.131494
    34  C    0.179118
    35  C   -0.127563
    36  C   -0.214740
    37  C    0.110825
    38  C    0.091460
    39  C    0.096204
    40  C    0.167715
    41  C    0.184767
    42  C    0.014542
    43  C   -0.025043
    44  H    0.094511
    45  H    0.051113
    46  H    0.035215
    47  H   -0.065782
    48  H    0.054880
    49  H   -0.000236
    50  H    0.032987
    51  H    0.085078
    52  H    0.198255
    53  H    0.044615
    54  H    0.047092
    55  H    0.048781
    56  H    0.195714
    57  H    0.013357
    58  H    0.063934
    59  H    0.042655
    60  H    0.034080
    61  H    0.022589
    62  H   -0.033949
    63  H    0.001014
    64  H    0.029907
    65  H   -0.045718
    66  H   -0.007350
    67  H   -0.046290
    68  H    0.001986
    69  H    0.056632
    70  H   -0.014532
    71  H    0.028745
    72  H   -0.048958
    73  H   -0.011381
    74  H    0.029146
    75  H    0.032970
    76  H    0.058073
    77  H    0.012372
    78  H    0.005332
    79  H    0.048366
    80  H    0.181351
    81  H    0.144268
 Sum of Mulliken charges =  -0.00000

 Dipole moment (field-independent basis, Debye):
    X=             -2.8010    Y=             -3.2271    Z=             -0.4657  Tot=              4.2984
 Quadrupole moment (field-independent basis, Debye-Ang):
   XX=           -245.6020   YY=           -244.9851   ZZ=           -252.6729
   XY=              8.9812   XZ=             13.0131   YZ=            -19.3551

 Normal termination of Gaussian 16 at Sat Jun 29 05:18:12 2019.
