 Gaussian 16, Revision A.03,
 Gaussian 16:  ES64L-G16RevA.03 25-Dec-2016

 --------------------------
 # td=(NStates=1) B3LYP/SVP
 --------------------------

 --
 TD
 --
 Symbolic Z-matrix:
 Charge =  0 Multiplicity = 1

                         Standard orientation:
 ---------------------------------------------------------------------
 Center     Atomic      Atomic             Coordinates (Angstroms)
 Number     Number       Type             X           Y           Z
 ---------------------------------------------------------------------
      1          8           0        4.458147   -4.921906   -1.709597
      2          8           0       -3.079472   -4.886470   -1.051461
      3          8           0       -6.878452   -1.746594   -1.837080
      4          8           0       -3.793784   -3.180922    0.197116
      5          8           0       -7.602005   -0.693650    0.017195
      6          8           0        3.053356    2.486178    0.322748
      7          7           0        0.381431   -0.402308    0.546188
      8          7           0       -1.559399    1.833816    0.197097
      9          7           0        3.318190   -3.309693   -0.579850
     10          7           0        0.710189    2.955983    0.181329
     11          6           0       -0.628762   -2.319924    1.406983
     12          6           0       -0.873753   -1.059360    0.864135
     13          6           0        0.718545   -2.546536    1.277537
     14          6           0        1.379694   -1.408038    0.755887
     15          6           0       -3.871494    1.552617    0.350021
     16          6           0       -2.545215    0.834304    0.459527
     17          6           0       -2.166829   -0.428722    0.869622
     18          6           0       -3.523678    2.825882   -0.120869
     19          6           0       -1.557361   -3.400004    2.011556
     20          6           0        5.431975   -2.735122   -1.424893
     21          6           0        3.637818   -1.970098   -0.222261
     22          6           0       -2.103338    3.117367   -0.099492
     23          6           0        4.936761   -1.611769   -0.534297
     24          6           0       -5.181221    0.803178    0.310736
     25          6           0        2.709285   -1.100541    0.432798
     26          6           0        1.514516   -3.721976    1.746071
     27          6           0        4.422701   -3.830171   -1.284994
     28          6           0       -1.974007   -4.544788    1.120293
     29          6           0       -5.421525   -0.101781   -0.871956
     30          6           0       -4.529429    3.883846   -0.584818
     31          6           0       -1.302548    4.225855   -0.264738
     32          6           0        6.773797   -3.418925   -1.041033
     33          6           0        5.738269   -0.553912   -0.231552
     34          6           0        0.062299    4.057363   -0.161276
     35          6           0        0.991757    5.164884   -0.444259
     36          6           0        2.277984    4.731015   -0.196142
     37          6           0       -3.007199   -4.139924    0.009450
     38          6           0        5.487594    0.577192    0.666325
     39          6           0       -6.776003   -0.838092   -0.808703
     40          6           0        3.558397    5.304597   -0.191728
     41          6           0        2.062608    3.294385    0.122224
     42          6           0        0.677722    6.583103   -0.833945
     43          6           0        4.294877    5.617263    1.141520
     44          1           0        0.582840    0.491613    0.306302
     45          1           0       -2.879474   -1.157878    1.263603
     46          1           0       -2.398258   -2.814139    2.249860
     47          1           0       -1.313977   -3.784157    3.122224
     48          1           0        5.352165   -2.295168   -2.492714
     49          1           0       -5.382644    0.175068    1.271605
     50          1           0       -6.100356    1.538595    0.229286
     51          1           0        3.096341   -0.026190    0.291679
     52          1           0       -0.600964    1.767920    0.375014
     53          1           0        1.910161   -4.700176    1.184443
     54          1           0        2.565942   -3.576779    1.726795
     55          1           0        1.165034   -4.254073    2.676631
     56          1           0        2.394554   -3.778677   -0.544775
     57          1           0       -1.149682   -5.001827    0.636023
     58          1           0       -2.464052   -5.251436    1.844239
     59          1           0       -4.844429   -0.944795   -0.872158
     60          1           0       -5.154186    0.291658   -1.836029
     61          1           0       -4.597618    4.672157    0.131342
     62          1           0       -5.599543    3.544669   -0.737032
     63          1           0       -4.050308    4.370211   -1.665551
     64          1           0       -1.933538    5.045435   -0.688201
     65          1           0        7.770769   -2.772225   -1.050886
     66          1           0        6.987941   -4.215371   -1.606623
     67          1           0        6.465900   -3.800181    0.087519
     68          1           0        6.705273   -0.652841   -0.689204
     69          1           0        4.953067    1.450101    0.186738
     70          1           0        6.303953    1.085760    0.987666
     71          1           0        4.885023    0.433611    1.496017
     72          1           0        3.582952    6.352027   -0.723783
     73          1           0        4.215903    4.585100   -0.757767
     74          1           0       -0.059007    6.645547   -1.777214
     75          1           0        1.435966    7.280040   -1.063962
     76          1           0        0.073909    7.091581   -0.043559
     77          1           0        3.654625    6.466022    1.815354
     78          1           0        5.202373    6.231279    1.032827
     79          1           0        4.346974    4.797690    1.764758
     80          1           0       -3.787949   -4.630164   -1.618816
     81          1           0       -7.836291   -1.716665   -1.802746
 ---------------------------------------------------------------------

 SCF Done:  E(RB3LYP) =  -1949.12137741     A.U. after   17 cycles

 Excitation energies and oscillator strengths:

 Excited State   1:      Singlet-A      1.7051 eV  727.12 nm  f=0.3218  <S**2>=0.000
     156 ->157         0.70952
     156 <-157        -0.11705
 This state for optimization and/or second-order correction.
 Total Energy, E(TD-HF/TD-DFT) =  -1949.05871484
 Copying the excited state density for this state as the 1-particle RhoCI density.

 The electronic state is 1-A.
 Alpha  occ. eigenvalues --  -19.20985 -19.17994 -19.13902 -19.13356 -19.11481
 Alpha  occ. eigenvalues --  -19.10015 -14.36942 -14.36762 -14.35152 -14.29178
 Alpha  occ. eigenvalues --  -10.34038 -10.32230 -10.28955 -10.26424 -10.24395
 Alpha  occ. eigenvalues --  -10.24141 -10.23742 -10.23715 -10.23531 -10.22907
 Alpha  occ. eigenvalues --  -10.22296 -10.21635 -10.21579 -10.21499 -10.21236
 Alpha  occ. eigenvalues --  -10.21235 -10.20971 -10.20880 -10.20145 -10.20134
 Alpha  occ. eigenvalues --  -10.20019 -10.19983 -10.19772 -10.19679 -10.19583
 Alpha  occ. eigenvalues --  -10.19339 -10.19332 -10.19232 -10.19052 -10.18952
 Alpha  occ. eigenvalues --  -10.18638 -10.18148 -10.15978  -1.13100  -1.11231
 Alpha  occ. eigenvalues --   -1.06036  -1.02440  -1.00359  -0.98311  -0.96380
 Alpha  occ. eigenvalues --   -0.95418  -0.94974  -0.91806  -0.82877  -0.82358
 Alpha  occ. eigenvalues --   -0.81568  -0.80924  -0.80076  -0.78958  -0.78246
 Alpha  occ. eigenvalues --   -0.77395  -0.76748  -0.75138  -0.74331  -0.72682
 Alpha  occ. eigenvalues --   -0.70727  -0.70270  -0.69852  -0.68849  -0.67194
 Alpha  occ. eigenvalues --   -0.67138  -0.65537  -0.65161  -0.63617  -0.62931
 Alpha  occ. eigenvalues --   -0.61744  -0.58479  -0.58325  -0.57891  -0.57445
 Alpha  occ. eigenvalues --   -0.55765  -0.55297  -0.54835  -0.54191  -0.53512
 Alpha  occ. eigenvalues --   -0.52431  -0.51555  -0.51266  -0.50353  -0.50128
 Alpha  occ. eigenvalues --   -0.49929  -0.49552  -0.49397  -0.48732  -0.48510
 Alpha  occ. eigenvalues --   -0.47586  -0.47179  -0.46181  -0.46049  -0.45476
 Alpha  occ. eigenvalues --   -0.44955  -0.44822  -0.44184  -0.44042  -0.43706
 Alpha  occ. eigenvalues --   -0.43490  -0.42966  -0.42739  -0.42488  -0.42346
 Alpha  occ. eigenvalues --   -0.41710  -0.41398  -0.41366  -0.41043  -0.40712
 Alpha  occ. eigenvalues --   -0.40440  -0.40330  -0.40198  -0.39556  -0.39378
 Alpha  occ. eigenvalues --   -0.39148  -0.38981  -0.38917  -0.38618  -0.38141
 Alpha  occ. eigenvalues --   -0.37608  -0.37310  -0.37016  -0.36661  -0.36442
 Alpha  occ. eigenvalues --   -0.36221  -0.35992  -0.35503  -0.35161  -0.34825
 Alpha  occ. eigenvalues --   -0.34331  -0.34057  -0.33895  -0.33542  -0.33197
 Alpha  occ. eigenvalues --   -0.32858  -0.32700  -0.31479  -0.29666  -0.29168
 Alpha  occ. eigenvalues --   -0.28782  -0.27689  -0.26937  -0.26488  -0.25748
 Alpha  occ. eigenvalues --   -0.25142  -0.24653  -0.23991  -0.22891  -0.21556
 Alpha  occ. eigenvalues --   -0.17511
 Alpha virt. eigenvalues --   -0.10625  -0.06464  -0.04575  -0.01964   0.00267
 Alpha virt. eigenvalues --    0.00714   0.01448   0.03207   0.03392   0.04061
 Alpha virt. eigenvalues --    0.04721   0.04957   0.05388   0.05900   0.06320

 Mulliken charges:
               1
     1  O   -0.152360
     2  O   -0.099020
     3  O   -0.194199
     4  O   -0.276246
     5  O   -0.183721
     6  O   -0.291808
     7  N   -0.117861
     8  N   -0.128220
     9  N   -0.168960
    10  N   -0.278006
    11  C   -0.101904
    12  C    0.062714
    13  C   -0.071036
    14  C    0.140264
    15  C   -0.015869
    16  C    0.102693
    17  C   -0.039010
    18  C   -0.126020
    19  C    0.073146
    20  C   -0.077588
    21  C    0.053353
    22  C    0.095574
    23  C   -0.021456
    24  C    0.021439
    25  C   -0.139261
    26  C    0.001892
    27  C    0.088918
    28  C    0.084306
    29  C    0.068244
    30  C    0.023389
    31  C   -0.144137
    32  C    0.032471
    33  C   -0.097680
    34  C    0.171880
    35  C   -0.108741
    36  C   -0.086164
    37  C    0.105067
    38  C    0.146144
    39  C    0.111413
    40  C    0.020098
    41  C    0.166606
    42  C    0.083755
    43  C   -0.004616
    44  H    0.092056
    45  H    0.006221
    46  H   -0.015212
    47  H    0.037867
    48  H    0.063327
    49  H    0.041201
    50  H    0.026755
    51  H    0.045586
    52  H    0.098508
    53  H    0.005458
    54  H    0.001757
    55  H    0.023779
    56  H    0.152402
    57  H    0.017644
    58  H    0.051169
    59  H   -0.005653
    60  H    0.020205
    61  H    0.027826
    62  H    0.028350
    63  H    0.041401
    64  H   -0.012697
    65  H    0.035425
    66  H    0.006108
    67  H    0.034057
    68  H   -0.024420
    69  H    0.062150
    70  H   -0.036240
    71  H    0.004296
    72  H    0.002766
    73  H    0.027293
    74  H    0.018210
    75  H    0.001561
    76  H    0.020437
    77  H   -0.003002
    78  H    0.020095
    79  H    0.016615
    80  H    0.182592
    81  H    0.154623
 Sum of Mulliken charges =  -0.00000

 Dipole moment (field-independent basis, Debye):
    X=             -2.3726    Y=             -0.0857    Z=             -1.3892  Tot=              2.7507
 Quadrupole moment (field-independent basis, Debye-Ang):
   XX=           -248.1489   YY=           -238.0203   ZZ=           -252.7730
   XY=             12.9920   XZ=             12.6175   YZ=            -12.1705

 Normal termination of Gaussian 16 at Mon Jul  1 11:29:59 2019.
