 Gaussian 16, Revision A.03,
 Gaussian 16:  ES64L-G16RevA.03 25-Dec-2016

 --------------------------
 # td=(NStates=1) B3LYP/SVP
 --------------------------

 --
 TD
 --
 Symbolic Z-matrix:
 Charge =  0 Multiplicity = 1

                         Standard orientation:
 ---------------------------------------------------------------------
 Center     Atomic      Atomic             Coordinates (Angstroms)
 Number     Number       Type             X           Y           Z
 ---------------------------------------------------------------------
      1          8           0        4.338857   -4.670111   -2.037941
      2          8           0       -2.715276   -5.061601   -0.975611
      3          8           0       -7.046712   -1.589541   -1.875597
      4          8           0       -3.620077   -3.306867    0.071006
      5          8           0       -7.652354   -0.559241    0.025843
      6          8           0        2.946618    2.466464    0.472077
      7          7           0        0.252275   -0.544098    0.665852
      8          7           0       -1.574209    1.802586    0.390752
      9          7           0        3.345366   -3.011027   -0.832699
     10          7           0        0.672395    2.885215    0.072901
     11          6           0       -0.622125   -2.412170    1.393726
     12          6           0       -0.935787   -1.176095    0.969911
     13          6           0        0.808614   -2.633727    1.296771
     14          6           0        1.330193   -1.372150    0.759916
     15          6           0       -3.868274    1.389317    0.266731
     16          6           0       -2.515858    0.752178    0.551951
     17          6           0       -2.210171   -0.568586    0.923374
     18          6           0       -3.659690    2.785617   -0.164744
     19          6           0       -1.519091   -3.464543    2.000855
     20          6           0        5.583362   -2.543392   -1.409716
     21          6           0        3.576494   -1.814447   -0.230260
     22          6           0       -2.212312    2.933290   -0.058951
     23          6           0        4.986270   -1.479272   -0.462256
     24          6           0       -5.163693    0.728986    0.293146
     25          6           0        2.643065   -0.937279    0.463026
     26          6           0        1.631934   -3.707095    1.858488
     27          6           0        4.428013   -3.563528   -1.478995
     28          6           0       -1.857204   -4.584396    1.130520
     29          6           0       -5.374656   -0.318107   -0.839334
     30          6           0       -4.515819    3.899975   -0.502190
     31          6           0       -1.354761    4.043479   -0.362502
     32          6           0        6.967319   -3.217175   -1.022222
     33          6           0        5.862024   -0.487318    0.039738
     34          6           0        0.066337    4.030027   -0.356714
     35          6           0        0.940513    5.154461   -0.483089
     36          6           0        2.214596    4.652841   -0.282148
     37          6           0       -2.691014   -4.178907    0.023911
     38          6           0        5.496876    0.677795    0.854656
     39          6           0       -6.870686   -0.768462   -0.870165
     40          6           0        3.577698    5.301742   -0.296637
     41          6           0        2.050521    3.257452    0.119735
     42          6           0        0.421806    6.548624   -0.737646
     43          6           0        4.157920    5.571033    1.140406
     44          1           0        0.331661    0.445070    0.250132
     45          1           0       -3.085785   -1.182750    0.786266
     46          1           0       -2.350178   -2.927254    2.401342
     47          1           0       -1.081724   -3.963200    2.850801
     48          1           0        5.341487   -2.167312   -2.452397
     49          1           0       -5.245739    0.264678    1.172167
     50          1           0       -5.893870    1.485371    0.445668
     51          1           0        2.977745    0.264937    0.646701
     52          1           0       -0.458688    2.043691    0.290066
     53          1           0        1.409824   -4.708718    1.146758
     54          1           0        2.833760   -3.407972    2.058656
     55          1           0        1.236430   -3.776283    2.959029
     56          1           0        2.451642   -3.501440   -0.966477
     57          1           0       -1.026456   -5.239677    0.706340
     58          1           0       -2.629762   -5.411453    1.553103
     59          1           0       -4.663236   -1.123555   -0.638078
     60          1           0       -5.349207    0.236159   -1.843742
     61          1           0       -4.132726    5.143499   -0.322586
     62          1           0       -5.772885    3.649366    0.150163
     63          1           0       -4.789813    3.614786   -1.761277
     64          1           0       -1.935148    4.986851   -0.800454
     65          1           0        7.817441   -2.644044   -1.311711
     66          1           0        7.081201   -3.902792   -1.778694
     67          1           0        7.024555   -3.510516    0.012923
     68          1           0        6.967760   -0.459827   -0.356128
     69          1           0        4.829064    1.461913    0.286332
     70          1           0        6.351872    1.023273    1.400161
     71          1           0        4.784594    0.372885    1.628084
     72          1           0        3.375917    6.239574   -0.834750
     73          1           0        4.160189    4.536594   -1.040940
     74          1           0        0.135305    6.740395   -1.732776
     75          1           0        1.376951    7.221421   -0.694987
     76          1           0       -0.283397    6.917521    0.053894
     77          1           0        3.453579    6.238995    1.684142
     78          1           0        5.140600    5.916473    0.999141
     79          1           0        4.042176    4.481238    1.653215
     80          1           0       -3.559460   -4.731337   -1.478223
     81          1           0       -7.979402   -1.789116   -1.813472
 ---------------------------------------------------------------------

 SCF Done:  E(RB3LYP) =  -1949.05937987     A.U. after   17 cycles

 Excitation energies and oscillator strengths:

 Excited State   1:      Singlet-A      1.6418 eV  755.15 nm  f=0.2920  <S**2>=0.000
     156 ->157         0.70965
     156 <-157        -0.11581
 This state for optimization and/or second-order correction.
 Total Energy, E(TD-HF/TD-DFT) =  -1948.99904322
 Copying the excited state density for this state as the 1-particle RhoCI density.

 The electronic state is 1-A.
 Alpha  occ. eigenvalues --  -19.20099 -19.19543 -19.13372 -19.12825 -19.10916
 Alpha  occ. eigenvalues --  -19.10383 -14.37916 -14.37214 -14.33833 -14.29408
 Alpha  occ. eigenvalues --  -10.33193 -10.32046 -10.29250 -10.26712 -10.25721
 Alpha  occ. eigenvalues --  -10.25489 -10.23789 -10.23398 -10.23240 -10.22953
 Alpha  occ. eigenvalues --  -10.22576 -10.22463 -10.22248 -10.21702 -10.21510
 Alpha  occ. eigenvalues --  -10.21107 -10.20922 -10.20842 -10.20800 -10.20438
 Alpha  occ. eigenvalues --  -10.20218 -10.20150 -10.20134 -10.20102 -10.20055
 Alpha  occ. eigenvalues --  -10.19691 -10.19502 -10.19400 -10.19208 -10.18900
 Alpha  occ. eigenvalues --  -10.18645 -10.17892 -10.17258  -1.12209  -1.10761
 Alpha  occ. eigenvalues --   -1.02930  -1.01649  -1.00449  -0.98791  -0.97959
 Alpha  occ. eigenvalues --   -0.95564  -0.95057  -0.91506  -0.83686  -0.81651
 Alpha  occ. eigenvalues --   -0.80833  -0.80549  -0.79611  -0.78410  -0.77864
 Alpha  occ. eigenvalues --   -0.76363  -0.75823  -0.75060  -0.73650  -0.71993
 Alpha  occ. eigenvalues --   -0.70800  -0.70326  -0.69171  -0.68817  -0.67852
 Alpha  occ. eigenvalues --   -0.66261  -0.64921  -0.63828  -0.62569  -0.61605
 Alpha  occ. eigenvalues --   -0.60125  -0.59325  -0.58352  -0.58011  -0.55830
 Alpha  occ. eigenvalues --   -0.55402  -0.54771  -0.54298  -0.53235  -0.52244
 Alpha  occ. eigenvalues --   -0.51660  -0.51241  -0.50452  -0.49930  -0.49751
 Alpha  occ. eigenvalues --   -0.49615  -0.49233  -0.48485  -0.48307  -0.47717
 Alpha  occ. eigenvalues --   -0.46833  -0.46545  -0.45634  -0.44962  -0.44804
 Alpha  occ. eigenvalues --   -0.44510  -0.44251  -0.43701  -0.43520  -0.43249
 Alpha  occ. eigenvalues --   -0.43017  -0.42773  -0.42584  -0.42396  -0.42138
 Alpha  occ. eigenvalues --   -0.42050  -0.41639  -0.41239  -0.40979  -0.40899
 Alpha  occ. eigenvalues --   -0.40455  -0.40099  -0.39718  -0.39189  -0.38948
 Alpha  occ. eigenvalues --   -0.38853  -0.38336  -0.38237  -0.38149  -0.37840
 Alpha  occ. eigenvalues --   -0.37423  -0.37307  -0.37068  -0.36731  -0.36529
 Alpha  occ. eigenvalues --   -0.36362  -0.36148  -0.34941  -0.34851  -0.34472
 Alpha  occ. eigenvalues --   -0.34142  -0.33504  -0.33415  -0.33318  -0.33105
 Alpha  occ. eigenvalues --   -0.32586  -0.32451  -0.32274  -0.29700  -0.29001
 Alpha  occ. eigenvalues --   -0.28656  -0.28073  -0.26266  -0.25841  -0.24819
 Alpha  occ. eigenvalues --   -0.24497  -0.24077  -0.23421  -0.22919  -0.20968
 Alpha  occ. eigenvalues --   -0.17440
 Alpha virt. eigenvalues --   -0.10708  -0.06407  -0.04952  -0.03138   0.00152
 Alpha virt. eigenvalues --    0.00407   0.00840   0.01999   0.02307   0.03380
 Alpha virt. eigenvalues --    0.03695   0.04166   0.04424   0.05046   0.05539

 Mulliken charges:
               1
     1  O   -0.239981
     2  O   -0.186417
     3  O   -0.122585
     4  O   -0.313593
     5  O   -0.227699
     6  O   -0.250812
     7  N   -0.089366
     8  N   -0.200127
     9  N   -0.067637
    10  N   -0.336869
    11  C   -0.135301
    12  C    0.100531
    13  C   -0.153198
    14  C    0.079608
    15  C   -0.135494
    16  C    0.081232
    17  C   -0.049189
    18  C   -0.005051
    19  C    0.231318
    20  C   -0.076240
    21  C    0.091344
    22  C    0.029632
    23  C   -0.081579
    24  C    0.215920
    25  C   -0.201228
    26  C   -0.053481
    27  C    0.069957
    28  C   -0.022109
    29  C   -0.023303
    30  C   -0.161111
    31  C   -0.116571
    32  C    0.160713
    33  C   -0.159222
    34  C    0.087436
    35  C   -0.115006
    36  C   -0.182644
    37  C    0.135579
    38  C    0.050904
    39  C    0.109539
    40  C    0.031998
    41  C    0.184665
    42  C    0.108928
    43  C    0.001496
    44  H    0.159782
    45  H    0.008793
    46  H    0.000045
    47  H   -0.014574
    48  H    0.055698
    49  H   -0.037650
    50  H   -0.031304
    51  H    0.114147
    52  H    0.192874
    53  H    0.051523
    54  H    0.069706
    55  H    0.050444
    56  H    0.140010
    57  H    0.043312
    58  H    0.077590
    59  H    0.070853
    60  H    0.037020
    61  H    0.094104
    62  H    0.052273
    63  H    0.065134
    64  H   -0.003246
    65  H   -0.006713
    66  H   -0.002502
    67  H    0.032712
    68  H    0.022891
    69  H    0.100235
    70  H   -0.000943
    71  H    0.017135
    72  H   -0.008453
    73  H    0.043285
    74  H    0.017854
    75  H    0.005717
    76  H    0.045920
    77  H    0.022177
    78  H    0.021197
    79  H    0.055875
    80  H    0.211129
    81  H    0.160966
 Sum of Mulliken charges =  -0.00000

 Dipole moment (field-independent basis, Debye):
    X=             -1.7628    Y=              0.4102    Z=             -1.0305  Tot=              2.0827
 Quadrupole moment (field-independent basis, Debye-Ang):
   XX=           -246.4040   YY=           -238.1534   ZZ=           -255.3021
   XY=             17.5438   XZ=             16.0994   YZ=            -15.1396

 Normal termination of Gaussian 16 at Sat Jun 29 03:30:52 2019.
