 Gaussian 16, Revision A.03,
 Gaussian 16:  ES64L-G16RevA.03 25-Dec-2016

 --------------------------
 # td=(NStates=1) B3LYP/SVP
 --------------------------

 --
 TD
 --
 Symbolic Z-matrix:
 Charge =  0 Multiplicity = 1

                         Standard orientation:
 ---------------------------------------------------------------------
 Center     Atomic      Atomic             Coordinates (Angstroms)
 Number     Number       Type             X           Y           Z
 ---------------------------------------------------------------------
      1          8           0        4.593686   -4.662990   -1.696859
      2          8           0       -2.661046   -5.137371   -1.002872
      3          8           0       -7.062050   -1.450409   -2.087662
      4          8           0       -3.564687   -3.250912    0.016112
      5          8           0       -7.698942   -0.757339   -0.046982
      6          8           0        2.918557    2.230314    0.278276
      7          7           0        0.190594   -0.413299    0.525455
      8          7           0       -1.765360    1.879096    0.557638
      9          7           0        3.460216   -2.971553   -0.691879
     10          7           0        0.700450    2.802409   -0.003285
     11          6           0       -0.596540   -2.358268    1.329366
     12          6           0       -0.991925   -1.083361    0.894092
     13          6           0        0.873475   -2.453699    1.180343
     14          6           0        1.356173   -1.365272    0.559109
     15          6           0       -3.943895    1.445629    0.370377
     16          6           0       -2.614297    0.807373    0.695774
     17          6           0       -2.218972   -0.496935    0.967603
     18          6           0       -3.663423    2.776558    0.055273
     19          6           0       -1.537618   -3.351539    1.991460
     20          6           0        5.649464   -2.518012   -1.315874
     21          6           0        3.698279   -1.664951   -0.220549
     22          6           0       -2.274717    3.025208    0.123864
     23          6           0        5.018213   -1.448776   -0.426817
     24          6           0       -5.187381    0.604805    0.361792
     25          6           0        2.658119   -0.864773    0.258617
     26          6           0        1.632764   -3.714924    1.660936
     27          6           0        4.607874   -3.513435   -1.295339
     28          6           0       -1.976309   -4.592073    1.226027
     29          6           0       -5.524805   -0.235229   -0.874087
     30          6           0       -4.647149    3.784357   -0.525839
     31          6           0       -1.366228    4.037664   -0.254398
     32          6           0        7.033639   -3.021560   -1.063189
     33          6           0        5.881692   -0.432785    0.023753
     34          6           0       -0.001674    3.918817   -0.212005
     35          6           0        0.909693    5.007845   -0.438515
     36          6           0        2.245428    4.528975   -0.336520
     37          6           0       -2.825602   -4.298460    0.002499
     38          6           0        5.477928    0.748888    0.868434
     39          6           0       -6.792372   -0.851643   -0.860382
     40          6           0        3.489805    5.351101   -0.300718
     41          6           0        2.089882    3.038292    0.059398
     42          6           0        0.597016    6.333923   -0.779299
     43          6           0        3.984045    5.626471    1.086970
     44          1           0        0.343880    0.369668   -0.134557
     45          1           0       -2.878135   -1.249050    1.475851
     46          1           0       -2.470737   -3.005220    2.195448
     47          1           0       -0.917390   -3.627792    3.047538
     48          1           0        5.687219   -2.229441   -2.439307
     49          1           0       -5.282450    0.090164    1.348212
     50          1           0       -6.125143    1.474615    0.240024
     51          1           0        2.778555    0.165020    0.419024
     52          1           0       -0.666253    1.710120    0.576779
     53          1           0        1.757266   -4.504076    0.797275
     54          1           0        2.558318   -3.527388    2.178214
     55          1           0        0.954996   -4.286293    2.452562
     56          1           0        2.529292   -3.528091   -0.720374
     57          1           0       -1.088717   -5.161845    0.937886
     58          1           0       -2.559601   -5.294678    1.936173
     59          1           0       -4.757011   -1.111376   -0.879087
     60          1           0       -5.423192    0.271362   -1.801937
     61          1           0       -4.653674    4.799121   -0.165336
     62          1           0       -5.661008    3.335745   -0.307451
     63          1           0       -4.484599    3.832462   -1.701939
     64          1           0       -1.715627    4.947176   -0.761030
     65          1           0        7.725930   -2.274849   -1.083485
     66          1           0        7.290115   -3.757760   -1.909720
     67          1           0        7.050560   -3.519321    0.066681
     68          1           0        6.971152   -0.613183   -0.317329
     69          1           0        5.259518    1.465357    0.136802
     70          1           0        6.425025    1.230915    1.542407
     71          1           0        4.820553    0.618642    1.549088
     72          1           0        3.314340    6.373554   -0.976519
     73          1           0        4.503122    4.762182   -0.797536
     74          1           0       -0.420388    6.396061   -1.668095
     75          1           0        1.430350    7.120352   -1.029091
     76          1           0       -0.081892    6.891418    0.006165
     77          1           0        3.206077    6.204360    1.577590
     78          1           0        4.931775    6.144550    0.947557
     79          1           0        4.318280    4.881903    1.682051
     80          1           0       -3.289383   -4.898277   -1.629211
     81          1           0       -7.930072   -1.964299   -2.059877
 ---------------------------------------------------------------------

 SCF Done:  E(RB3LYP) =  -1949.06820608     A.U. after   17 cycles

 Excitation energies and oscillator strengths:

 Excited State   1:      Singlet-A      1.6764 eV  739.58 nm  f=0.3089  <S**2>=0.000
     156 ->157         0.70765
     156 <-157        -0.12511
 This state for optimization and/or second-order correction.
 Total Energy, E(TD-HF/TD-DFT) =  -1949.00659919
 Copying the excited state density for this state as the 1-particle RhoCI density.

 The electronic state is 1-A.
 Alpha  occ. eigenvalues --  -19.22023 -19.16743 -19.14456 -19.12132 -19.10850
 Alpha  occ. eigenvalues --  -19.10244 -14.36613 -14.35843 -14.35662 -14.27721
 Alpha  occ. eigenvalues --  -10.34869 -10.31386 -10.28349 -10.26605 -10.24069
 Alpha  occ. eigenvalues --  -10.23592 -10.23493 -10.23202 -10.22929 -10.22453
 Alpha  occ. eigenvalues --  -10.22058 -10.21822 -10.21815 -10.21776 -10.21727
 Alpha  occ. eigenvalues --  -10.21477 -10.21337 -10.21258 -10.21218 -10.20924
 Alpha  occ. eigenvalues --  -10.20825 -10.20619 -10.20272 -10.20260 -10.20184
 Alpha  occ. eigenvalues --  -10.20108 -10.20008 -10.19240 -10.18851 -10.18530
 Alpha  occ. eigenvalues --  -10.18193 -10.18019 -10.16754  -1.13710  -1.07358
 Alpha  occ. eigenvalues --   -1.03803  -1.03164  -1.00556  -0.98551  -0.98485
 Alpha  occ. eigenvalues --   -0.95116  -0.94506  -0.91333  -0.82319  -0.82125
 Alpha  occ. eigenvalues --   -0.81727  -0.81400  -0.79375  -0.78939  -0.78088
 Alpha  occ. eigenvalues --   -0.77678  -0.77234  -0.75786  -0.74541  -0.72783
 Alpha  occ. eigenvalues --   -0.71282  -0.70753  -0.69282  -0.68311  -0.67525
 Alpha  occ. eigenvalues --   -0.67101  -0.66114  -0.64936  -0.63043  -0.62267
 Alpha  occ. eigenvalues --   -0.60809  -0.59182  -0.58406  -0.57112  -0.56222
 Alpha  occ. eigenvalues --   -0.55372  -0.54884  -0.54051  -0.53194  -0.52832
 Alpha  occ. eigenvalues --   -0.51948  -0.51808  -0.51258  -0.50823  -0.50557
 Alpha  occ. eigenvalues --   -0.49848  -0.49296  -0.48942  -0.48696  -0.47393
 Alpha  occ. eigenvalues --   -0.47036  -0.46746  -0.46582  -0.45408  -0.45198
 Alpha  occ. eigenvalues --   -0.44969  -0.44728  -0.44417  -0.44128  -0.44028
 Alpha  occ. eigenvalues --   -0.43705  -0.42948  -0.42827  -0.42438  -0.42317
 Alpha  occ. eigenvalues --   -0.42086  -0.41782  -0.41546  -0.41304  -0.40649
 Alpha  occ. eigenvalues --   -0.40542  -0.40235  -0.39783  -0.39502  -0.39376
 Alpha  occ. eigenvalues --   -0.39297  -0.39111  -0.38578  -0.38453  -0.38202
 Alpha  occ. eigenvalues --   -0.38101  -0.37817  -0.37326  -0.37106  -0.36888
 Alpha  occ. eigenvalues --   -0.36341  -0.36098  -0.35590  -0.35493  -0.34984
 Alpha  occ. eigenvalues --   -0.34419  -0.33803  -0.33696  -0.33506  -0.32762
 Alpha  occ. eigenvalues --   -0.32023  -0.31816  -0.31246  -0.30298  -0.29442
 Alpha  occ. eigenvalues --   -0.27494  -0.27156  -0.26148  -0.25906  -0.25128
 Alpha  occ. eigenvalues --   -0.24962  -0.24550  -0.23319  -0.21958  -0.20855
 Alpha  occ. eigenvalues --   -0.17701
 Alpha virt. eigenvalues --   -0.10925  -0.06413  -0.05084  -0.03292  -0.00463
 Alpha virt. eigenvalues --   -0.00164   0.01434   0.02315   0.03038   0.03403
 Alpha virt. eigenvalues --    0.04268   0.04525   0.05042   0.05216   0.05596

 Mulliken charges:
               1
     1  O   -0.213632
     2  O   -0.086691
     3  O   -0.256776
     4  O   -0.298089
     5  O   -0.230675
     6  O   -0.160210
     7  N   -0.212089
     8  N   -0.104904
     9  N   -0.186261
    10  N   -0.329610
    11  C   -0.089854
    12  C    0.063401
    13  C   -0.137075
    14  C    0.098142
    15  C   -0.038302
    16  C    0.074088
    17  C   -0.019252
    18  C   -0.147715
    19  C    0.062691
    20  C   -0.042106
    21  C    0.157162
    22  C    0.135418
    23  C   -0.055581
    24  C   -0.010340
    25  C   -0.084609
    26  C    0.033729
    27  C    0.083790
    28  C    0.023262
    29  C    0.046318
    30  C    0.064030
    31  C   -0.161303
    32  C    0.048407
    33  C   -0.145896
    34  C    0.146682
    35  C   -0.030342
    36  C   -0.154627
    37  C    0.142942
    38  C    0.152490
    39  C    0.136074
    40  C   -0.071398
    41  C    0.162094
    42  C   -0.051468
    43  C    0.093423
    44  H    0.151688
    45  H    0.013347
    46  H   -0.014473
    47  H    0.050404
    48  H    0.058459
    49  H    0.045386
    50  H    0.030655
    51  H   -0.025494
    52  H    0.171778
    53  H    0.040384
    54  H    0.035222
    55  H    0.013950
    56  H    0.163376
    57  H    0.016108
    58  H    0.059975
    59  H    0.073861
    60  H    0.031657
    61  H    0.021185
    62  H    0.012323
    63  H    0.041029
    64  H   -0.033284
    65  H   -0.005969
    66  H    0.044184
    67  H    0.035452
    68  H    0.017032
    69  H    0.043940
    70  H    0.009059
    71  H   -0.009646
    72  H    0.030188
    73  H    0.018527
    74  H    0.022687
    75  H    0.045010
    76  H    0.030629
    77  H    0.007027
    78  H   -0.003625
    79  H   -0.007723
    80  H    0.161523
    81  H    0.198827
 Sum of Mulliken charges =  -0.00000

 Dipole moment (field-independent basis, Debye):
    X=             -0.7790    Y=             -0.8977    Z=             -0.5733  Tot=              1.3196
 Quadrupole moment (field-independent basis, Debye-Ang):
   XX=           -255.5209   YY=           -239.9885   ZZ=           -252.4562
   XY=             22.0493   XZ=             13.8151   YZ=             -8.5254

 Normal termination of Gaussian 16 at Sun Jun 30 14:51:23 2019.
