 Gaussian 16, Revision A.03,
 Gaussian 16:  ES64L-G16RevA.03 25-Dec-2016

 --------------------------
 # td=(NStates=1) B3LYP/SVP
 --------------------------

 --
 TD
 --
 Symbolic Z-matrix:
 Charge =  0 Multiplicity = 1

                         Standard orientation:
 ---------------------------------------------------------------------
 Center     Atomic      Atomic             Coordinates (Angstroms)
 Number     Number       Type             X           Y           Z
 ---------------------------------------------------------------------
      1          8           0        4.047946   -4.905138   -1.992875
      2          8           0       -2.737994   -4.786128   -1.178058
      3          8           0       -6.798539   -1.559252   -2.033520
      4          8           0       -3.772645   -3.169608    0.016862
      5          8           0       -7.516624   -0.662665    0.003534
      6          8           0        3.113509    2.261236    0.165264
      7          7           0        0.257234   -0.464659    0.549186
      8          7           0       -1.573714    1.853436    0.457989
      9          7           0        3.164185   -3.089222   -0.616924
     10          7           0        0.797215    2.840947    0.011778
     11          6           0       -0.694347   -2.329847    1.435298
     12          6           0       -0.986445   -1.059568    1.012360
     13          6           0        0.729845   -2.545181    1.379956
     14          6           0        1.310612   -1.374651    0.766088
     15          6           0       -3.791092    1.597879    0.265245
     16          6           0       -2.514827    0.951564    0.555710
     17          6           0       -2.307384   -0.410016    0.873417
     18          6           0       -3.441464    2.918865   -0.056822
     19          6           0       -1.632653   -3.322967    2.069219
     20          6           0        5.250341   -2.854661   -1.346075
     21          6           0        3.514496   -1.877102   -0.257522
     22          6           0       -2.075352    3.139681    0.090626
     23          6           0        4.920612   -1.654912   -0.557572
     24          6           0       -5.106877    0.970906    0.277868
     25          6           0        2.661110   -0.917545    0.264654
     26          6           0        1.485660   -3.742438    1.903184
     27          6           0        4.092878   -3.823598   -1.405857
     28          6           0       -2.099742   -4.416763    1.223391
     29          6           0       -5.308867   -0.137778   -0.793553
     30          6           0       -4.515271    3.972164   -0.430113
     31          6           0       -1.278113    4.189678   -0.231801
     32          6           0        6.565627   -3.606525   -0.840086
     33          6           0        5.687518   -0.729350   -0.208958
     34          6           0        0.252589    4.058380   -0.239783
     35          6           0        1.216445    5.174861   -0.418467
     36          6           0        2.494545    4.614387   -0.300821
     37          6           0       -3.034840   -4.083429    0.007752
     38          6           0        5.480417    0.469141    0.861247
     39          6           0       -6.653110   -0.719499   -0.820019
     40          6           0        3.762854    5.200072   -0.315126
     41          6           0        2.188754    3.173187   -0.002747
     42          6           0        0.724210    6.496601   -0.872126
     43          6           0        4.417258    5.390140    1.138159
     44          1           0        0.408117    0.351581   -0.275677
     45          1           0       -3.134167   -1.050494    1.173795
     46          1           0       -2.519642   -2.652657    2.544091
     47          1           0       -1.109146   -3.697510    2.958044
     48          1           0        5.272262   -2.425218   -2.334802
     49          1           0       -5.307651    0.552251    1.237525
     50          1           0       -6.008625    1.749077    0.320380
     51          1           0        2.792439    0.172935    0.431285
     52          1           0       -0.566171    1.828552    0.549262
     53          1           0        1.349671   -4.593527    1.393054
     54          1           0        2.477454   -3.244848    2.212331
     55          1           0        1.042955   -3.897933    2.791621
     56          1           0        2.165082   -3.414973   -0.465919
     57          1           0       -1.341750   -5.220262    0.889563
     58          1           0       -2.676491   -4.981036    1.889706
     59          1           0       -4.584563   -0.983736   -0.833597
     60          1           0       -4.968041    0.399453   -1.801306
     61          1           0       -4.212182    4.796983    0.182049
     62          1           0       -5.557521    3.841110   -0.425964
     63          1           0       -4.397643    4.408871   -1.472134
     64          1           0       -1.654253    5.255749   -0.451286
     65          1           0        7.364956   -3.038596   -0.836092
     66          1           0        6.621906   -4.328825   -1.645673
     67          1           0        6.263293   -4.106097    0.245929
     68          1           0        6.821057   -0.859789   -0.492629
     69          1           0        5.014194    1.364807    0.394143
     70          1           0        6.336735    0.809507    1.378150
     71          1           0        4.958319    0.050066    1.560781
     72          1           0        3.679472    6.324739   -0.731042
     73          1           0        4.303853    4.654652   -1.175526
     74          1           0        0.038977    6.632554   -1.877285
     75          1           0        1.629217    7.191247   -1.159206
     76          1           0        0.150265    6.999077    0.018630
     77          1           0        3.672302    5.860507    1.705278
     78          1           0        5.427643    5.622418    1.234839
     79          1           0        4.359027    4.477943    1.530851
     80          1           0       -3.480590   -4.434978   -1.828750
     81          1           0       -7.722748   -2.094725   -1.658640
 ---------------------------------------------------------------------

 SCF Done:  E(RB3LYP) =  -1949.03900262     A.U. after   17 cycles

 Excitation energies and oscillator strengths:

 Excited State   1:      Singlet-A      1.5754 eV  787.01 nm  f=0.2493  <S**2>=0.000
     155 ->157        -0.12138
     156 ->157         0.70617
     156 <-157        -0.14313
 This state for optimization and/or second-order correction.
 Total Energy, E(TD-HF/TD-DFT) =  -1948.98110852
 Copying the excited state density for this state as the 1-particle RhoCI density.

 The electronic state is 1-A.
 Alpha  occ. eigenvalues --  -19.19174 -19.17003 -19.15226 -19.14595 -19.12535
 Alpha  occ. eigenvalues --  -19.10839 -14.37872 -14.37208 -14.35437 -14.30670
 Alpha  occ. eigenvalues --  -10.33731 -10.32393 -10.30202 -10.27762 -10.24252
 Alpha  occ. eigenvalues --  -10.23689 -10.23506 -10.23430 -10.23299 -10.23131
 Alpha  occ. eigenvalues --  -10.22298 -10.22076 -10.21947 -10.21673 -10.21654
 Alpha  occ. eigenvalues --  -10.21321 -10.20863 -10.20618 -10.20616 -10.20367
 Alpha  occ. eigenvalues --  -10.20344 -10.20331 -10.19621 -10.19460 -10.19443
 Alpha  occ. eigenvalues --  -10.19390 -10.18966 -10.18926 -10.18609 -10.18236
 Alpha  occ. eigenvalues --  -10.17866 -10.16922 -10.15775  -1.10653  -1.07597
 Alpha  occ. eigenvalues --   -1.03314  -1.01450  -0.98773  -0.97974  -0.97589
 Alpha  occ. eigenvalues --   -0.97217  -0.94396  -0.91131  -0.82701  -0.82367
 Alpha  occ. eigenvalues --   -0.82126  -0.81336  -0.80663  -0.78431  -0.77716
 Alpha  occ. eigenvalues --   -0.76925  -0.76085  -0.75519  -0.72907  -0.72223
 Alpha  occ. eigenvalues --   -0.71254  -0.69993  -0.69397  -0.68281  -0.67501
 Alpha  occ. eigenvalues --   -0.67036  -0.65943  -0.64920  -0.63876  -0.61987
 Alpha  occ. eigenvalues --   -0.59795  -0.58812  -0.58269  -0.57078  -0.55959
 Alpha  occ. eigenvalues --   -0.55245  -0.54401  -0.53747  -0.52948  -0.52849
 Alpha  occ. eigenvalues --   -0.51866  -0.51413  -0.50922  -0.50203  -0.49386
 Alpha  occ. eigenvalues --   -0.48984  -0.48646  -0.48497  -0.47908  -0.47793
 Alpha  occ. eigenvalues --   -0.47194  -0.46701  -0.46210  -0.45719  -0.45438
 Alpha  occ. eigenvalues --   -0.45083  -0.44714  -0.44348  -0.44078  -0.43834
 Alpha  occ. eigenvalues --   -0.43567  -0.43209  -0.42842  -0.42560  -0.42222
 Alpha  occ. eigenvalues --   -0.42043  -0.41714  -0.41546  -0.41074  -0.40834
 Alpha  occ. eigenvalues --   -0.40446  -0.40241  -0.39814  -0.39625  -0.39404
 Alpha  occ. eigenvalues --   -0.39212  -0.39084  -0.38842  -0.38636  -0.38491
 Alpha  occ. eigenvalues --   -0.38188  -0.38106  -0.37505  -0.37457  -0.36771
 Alpha  occ. eigenvalues --   -0.36640  -0.36344  -0.35869  -0.35692  -0.35626
 Alpha  occ. eigenvalues --   -0.34119  -0.33916  -0.33772  -0.33226  -0.32815
 Alpha  occ. eigenvalues --   -0.32121  -0.31357  -0.30101  -0.29996  -0.29439
 Alpha  occ. eigenvalues --   -0.29249  -0.29141  -0.27246  -0.26777  -0.26136
 Alpha  occ. eigenvalues --   -0.24974  -0.24781  -0.24239  -0.23641  -0.21195
 Alpha  occ. eigenvalues --   -0.17418
 Alpha virt. eigenvalues --   -0.11235  -0.06678  -0.03525  -0.01798  -0.00978
 Alpha virt. eigenvalues --    0.00487   0.01576   0.02399   0.03014   0.03591
 Alpha virt. eigenvalues --    0.03840   0.03955   0.04771   0.05056   0.05732

 Mulliken charges:
               1
     1  O   -0.206849
     2  O   -0.257911
     3  O   -0.346295
     4  O   -0.173378
     5  O   -0.196750
     6  O   -0.284967
     7  N   -0.233182
     8  N   -0.046701
     9  N   -0.109728
    10  N   -0.301551
    11  C   -0.072381
    12  C    0.062634
    13  C   -0.274539
    14  C    0.027457
    15  C   -0.078051
    16  C    0.070538
    17  C   -0.055446
    18  C   -0.118148
    19  C    0.035265
    20  C   -0.086391
    21  C    0.055872
    22  C    0.155460
    23  C    0.112526
    24  C    0.101807
    25  C   -0.106804
    26  C    0.237871
    27  C    0.174220
    28  C    0.079265
    29  C   -0.058286
    30  C    0.112830
    31  C   -0.134529
    32  C    0.099334
    33  C   -0.276554
    34  C    0.022788
    35  C   -0.052077
    36  C   -0.121124
    37  C    0.134156
    38  C    0.130750
    39  C    0.197304
    40  C   -0.030848
    41  C    0.194694
    42  C   -0.031610
    43  C    0.141278
    44  H    0.211663
    45  H    0.002413
    46  H    0.035567
    47  H    0.008350
    48  H    0.031984
    49  H    0.003392
    50  H    0.026778
    51  H    0.043033
    52  H    0.122728
    53  H   -0.002070
    54  H    0.043981
    55  H   -0.047125
    56  H    0.152871
    57  H    0.036506
    58  H    0.012275
    59  H    0.071022
    60  H    0.056071
    61  H    0.007898
    62  H    0.005066
    63  H    0.009486
    64  H    0.005992
    65  H   -0.018492
    66  H    0.027686
    67  H    0.041338
    68  H    0.000732
    69  H    0.070828
    70  H   -0.021816
    71  H   -0.029948
    72  H    0.009336
    73  H    0.038861
    74  H    0.063477
    75  H    0.029562
    76  H    0.048282
    77  H   -0.009745
    78  H    0.010347
    79  H   -0.029868
    80  H    0.215496
    81  H    0.224091
 Sum of Mulliken charges =  -0.00000

 Dipole moment (field-independent basis, Debye):
    X=             -1.8434    Y=              1.6615    Z=              1.1167  Tot=              2.7214
 Quadrupole moment (field-independent basis, Debye-Ang):
   XX=           -258.7598   YY=           -235.5497   ZZ=           -254.8372
   XY=             14.9003   XZ=              7.5251   YZ=            -17.5792

 Normal termination of Gaussian 16 at Mon Jul  1 23:33:46 2019.
