 Gaussian 16, Revision A.03,
 Gaussian 16:  ES64L-G16RevA.03 25-Dec-2016

 --------------------------
 # td=(NStates=1) B3LYP/SVP
 --------------------------

 --
 TD
 --
 Symbolic Z-matrix:
 Charge =  0 Multiplicity = 1

                         Standard orientation:
 ---------------------------------------------------------------------
 Center     Atomic      Atomic             Coordinates (Angstroms)
 Number     Number       Type             X           Y           Z
 ---------------------------------------------------------------------
      1          8           0        4.604088   -4.758562   -1.697923
      2          8           0       -2.688794   -4.960892   -1.088823
      3          8           0       -6.738235   -1.918779   -1.807930
      4          8           0       -3.685638   -3.416368    0.135083
      5          8           0       -7.520259   -1.023779    0.039213
      6          8           0        2.891357    2.529466    0.267217
      7          7           0        0.223401   -0.402150    0.601300
      8          7           0       -1.589657    1.774278    0.314283
      9          7           0        3.469571   -3.095268   -0.491325
     10          7           0        0.698023    2.963966   -0.067087
     11          6           0       -0.511580   -2.408144    1.438243
     12          6           0       -0.893974   -1.147165    0.915974
     13          6           0        0.896409   -2.491161    1.354832
     14          6           0        1.377502   -1.231129    0.768826
     15          6           0       -3.860304    1.392918    0.242195
     16          6           0       -2.470397    0.748214    0.495758
     17          6           0       -2.232233   -0.567791    0.769970
     18          6           0       -3.682033    2.632090   -0.042179
     19          6           0       -1.366372   -3.389827    1.997120
     20          6           0        5.656933   -2.537086   -1.380645
     21          6           0        3.701381   -1.694252   -0.201594
     22          6           0       -2.245694    2.978658    0.090577
     23          6           0        5.094147   -1.495413   -0.527935
     24          6           0       -5.226186    0.568929    0.292016
     25          6           0        2.709022   -0.825994    0.214826
     26          6           0        1.700932   -3.597461    1.909005
     27          6           0        4.559220   -3.628574   -1.271098
     28          6           0       -1.695512   -4.588641    1.104730
     29          6           0       -5.400098   -0.182509   -0.995296
     30          6           0       -4.728961    3.587187   -0.489553
     31          6           0       -1.534196    4.075813   -0.223727
     32          6           0        6.938814   -3.057143   -1.063900
     33          6           0        5.840124   -0.384213   -0.167202
     34          6           0       -0.130141    4.030467   -0.246613
     35          6           0        0.729701    5.278102   -0.418961
     36          6           0        2.020119    4.842941   -0.216130
     37          6           0       -2.803745   -4.266475    0.033799
     38          6           0        5.489713    0.765530    0.619260
     39          6           0       -6.717141   -1.105099   -0.829140
     40          6           0        3.351302    5.538811   -0.246610
     41          6           0        2.023681    3.344477    0.011966
     42          6           0        0.198623    6.490852   -0.847031
     43          6           0        3.839750    5.720639    1.250001
     44          1           0        0.206765    0.483136    0.127157
     45          1           0       -2.820352   -1.423729    0.883607
     46          1           0       -2.349948   -3.002908    2.372904
     47          1           0       -0.733722   -3.526883    2.860463
     48          1           0        5.716280   -2.216372   -2.275915
     49          1           0       -4.809098   -0.212305    1.104244
     50          1           0       -5.997636    1.151404    0.746075
     51          1           0        2.951815    0.278889    0.101613
     52          1           0       -0.683133    1.870222    0.484822
     53          1           0        1.748709   -4.410981    1.205775
     54          1           0        2.711622   -3.328523    2.168148
     55          1           0        1.157194   -3.937196    2.744693
     56          1           0        2.600399   -3.473520   -0.432908
     57          1           0       -0.794726   -4.888300    0.534170
     58          1           0       -2.127750   -5.511637    1.569724
     59          1           0       -4.572823   -0.820830   -1.223319
     60          1           0       -5.712403    0.472374   -2.004839
     61          1           0       -4.551136    4.717930   -0.024572
     62          1           0       -5.783237    3.265232   -0.105981
     63          1           0       -4.995986    3.557894   -1.659093
     64          1           0       -2.251607    5.066461   -0.600413
     65          1           0        7.745379   -2.466220   -1.379813
     66          1           0        7.064766   -4.105235   -1.494060
     67          1           0        6.995941   -3.215683    0.049461
     68          1           0        7.021554   -0.602678   -0.692132
     69          1           0        4.792730    1.456800    0.107177
     70          1           0        6.305742    1.236481    1.118193
     71          1           0        5.022881    0.354786    1.411262
     72          1           0        3.043772    6.506985   -0.673082
     73          1           0        4.166681    4.919454   -0.666966
     74          1           0       -0.257968    6.704974   -1.944976
     75          1           0        0.779665    7.579632   -0.533113
     76          1           0       -0.868896    6.690834   -0.244207
     77          1           0        3.276942    6.234596    1.781974
     78          1           0        4.814162    6.089620    1.199491
     79          1           0        3.883096    4.852926    1.588869
     80          1           0       -3.353790   -4.696954   -1.838492
     81          1           0       -7.624242   -2.330459   -1.689713
 ---------------------------------------------------------------------

 SCF Done:  E(RB3LYP) =  -1949.02412929     A.U. after   16 cycles

 Excitation energies and oscillator strengths:

 Excited State   1:      Singlet-A      1.6030 eV  773.46 nm  f=0.2514  <S**2>=0.000
     156 ->157         0.70911
     156 <-157        -0.11014
 This state for optimization and/or second-order correction.
 Total Energy, E(TD-HF/TD-DFT) =  -1948.96522088
 Copying the excited state density for this state as the 1-particle RhoCI density.

 The electronic state is 1-A.
 Alpha  occ. eigenvalues --  -19.19964 -19.19878 -19.13594 -19.12751 -19.11293
 Alpha  occ. eigenvalues --  -19.11237 -14.36847 -14.36362 -14.35441 -14.28777
 Alpha  occ. eigenvalues --  -10.33702 -10.31742 -10.29081 -10.26862 -10.24523
 Alpha  occ. eigenvalues --  -10.24255 -10.23855 -10.23797 -10.23478 -10.22738
 Alpha  occ. eigenvalues --  -10.22486 -10.22464 -10.22177 -10.21785 -10.21255
 Alpha  occ. eigenvalues --  -10.20699 -10.20622 -10.20569 -10.20364 -10.20290
 Alpha  occ. eigenvalues --  -10.20058 -10.19741 -10.19384 -10.19301 -10.19104
 Alpha  occ. eigenvalues --  -10.18911 -10.18879 -10.18757 -10.18629 -10.17962
 Alpha  occ. eigenvalues --  -10.17494 -10.16178 -10.14119  -1.13708  -1.10617
 Alpha  occ. eigenvalues --   -1.03172  -1.02567  -1.02362  -1.00475  -0.99310
 Alpha  occ. eigenvalues --   -0.96001  -0.93432  -0.91363  -0.83660  -0.83170
 Alpha  occ. eigenvalues --   -0.82890  -0.81297  -0.79839  -0.78567  -0.77724
 Alpha  occ. eigenvalues --   -0.77387  -0.77056  -0.76058  -0.74339  -0.72893
 Alpha  occ. eigenvalues --   -0.70765  -0.70079  -0.69743  -0.68941  -0.67830
 Alpha  occ. eigenvalues --   -0.66887  -0.65002  -0.64304  -0.62715  -0.62194
 Alpha  occ. eigenvalues --   -0.61973  -0.60415  -0.59212  -0.58155  -0.57248
 Alpha  occ. eigenvalues --   -0.56312  -0.54801  -0.54754  -0.53612  -0.52293
 Alpha  occ. eigenvalues --   -0.51597  -0.50976  -0.50786  -0.50549  -0.50044
 Alpha  occ. eigenvalues --   -0.49829  -0.49664  -0.49232  -0.48568  -0.48393
 Alpha  occ. eigenvalues --   -0.48031  -0.47319  -0.46765  -0.46119  -0.45816
 Alpha  occ. eigenvalues --   -0.44965  -0.44868  -0.44536  -0.44036  -0.43791
 Alpha  occ. eigenvalues --   -0.43682  -0.43374  -0.43238  -0.42947  -0.42378
 Alpha  occ. eigenvalues --   -0.42030  -0.41731  -0.41306  -0.41172  -0.41083
 Alpha  occ. eigenvalues --   -0.40774  -0.40495  -0.40253  -0.40111  -0.39921
 Alpha  occ. eigenvalues --   -0.39734  -0.39343  -0.39143  -0.38783  -0.38443
 Alpha  occ. eigenvalues --   -0.38230  -0.37867  -0.37230  -0.37091  -0.36600
 Alpha  occ. eigenvalues --   -0.36088  -0.35999  -0.35542  -0.35376  -0.34791
 Alpha  occ. eigenvalues --   -0.34064  -0.33792  -0.33531  -0.33349  -0.33177
 Alpha  occ. eigenvalues --   -0.33043  -0.32726  -0.31476  -0.29546  -0.28987
 Alpha  occ. eigenvalues --   -0.28428  -0.27254  -0.26757  -0.26254  -0.25741
 Alpha  occ. eigenvalues --   -0.24703  -0.24477  -0.24335  -0.22799  -0.21611
 Alpha  occ. eigenvalues --   -0.17157
 Alpha virt. eigenvalues --   -0.10558  -0.05531  -0.03510  -0.01078   0.00432
 Alpha virt. eigenvalues --    0.01482   0.01618   0.02074   0.02685   0.03579
 Alpha virt. eigenvalues --    0.04211   0.04359   0.04679   0.05272   0.05601

 Mulliken charges:
               1
     1  O   -0.195621
     2  O   -0.195712
     3  O   -0.105308
     4  O   -0.250807
     5  O   -0.212348
     6  O   -0.194955
     7  N   -0.096736
     8  N   -0.018851
     9  N   -0.149960
    10  N   -0.301327
    11  C   -0.074718
    12  C   -0.069143
    13  C   -0.228767
    14  C    0.065943
    15  C   -0.089609
    16  C    0.167673
    17  C   -0.019966
    18  C   -0.078380
    19  C    0.071257
    20  C    0.083794
    21  C    0.086663
    22  C    0.077127
    23  C   -0.069920
    24  C    0.087626
    25  C   -0.086820
    26  C    0.177553
    27  C    0.131505
    28  C    0.046523
    29  C   -0.033379
    30  C   -0.025268
    31  C   -0.177291
    32  C    0.047322
    33  C   -0.200368
    34  C    0.099930
    35  C    0.017235
    36  C   -0.215822
    37  C    0.110301
    38  C    0.167864
    39  C    0.098059
    40  C    0.075652
    41  C    0.169055
    42  C   -0.120113
    43  C    0.207322
    44  H    0.122263
    45  H   -0.037766
    46  H    0.019676
    47  H    0.015309
    48  H   -0.034846
    49  H    0.046534
    50  H    0.023356
    51  H    0.030561
    52  H    0.069601
    53  H    0.003903
    54  H    0.026122
    55  H   -0.015795
    56  H    0.089218
    57  H    0.030946
    58  H    0.050702
    59  H    0.035384
    60  H    0.052203
    61  H    0.050020
    62  H    0.023784
    63  H    0.050872
    64  H    0.045209
    65  H    0.005004
    66  H    0.031772
    67  H    0.005829
    68  H    0.006794
    69  H    0.082028
    70  H   -0.007825
    71  H   -0.012506
    72  H   -0.003466
    73  H    0.018216
    74  H    0.061150
    75  H    0.044568
    76  H    0.029471
    77  H   -0.059749
    78  H   -0.013161
    79  H   -0.058468
    80  H    0.227290
    81  H    0.168584
 Sum of Mulliken charges =  -0.00000

 Dipole moment (field-independent basis, Debye):
    X=             -3.9786    Y=              1.0252    Z=             -1.2546  Tot=              4.2959
 Quadrupole moment (field-independent basis, Debye-Ang):
   XX=           -251.6645   YY=           -239.7243   ZZ=           -251.0516
   XY=             15.9297   XZ=             20.3483   YZ=             -7.6280

 Normal termination of Gaussian 16 at Wed Jul  3 13:52:10 2019.
