 Gaussian 16, Revision A.03,
 Gaussian 16:  ES64L-G16RevA.03 25-Dec-2016

 --------------------------
 # td=(NStates=1) B3LYP/SVP
 --------------------------

 --
 TD
 --
 Symbolic Z-matrix:
 Charge =  0 Multiplicity = 1

                         Standard orientation:
 ---------------------------------------------------------------------
 Center     Atomic      Atomic             Coordinates (Angstroms)
 Number     Number       Type             X           Y           Z
 ---------------------------------------------------------------------
      1          8           0        4.406379   -4.732867   -1.916187
      2          8           0       -2.853291   -4.908584   -1.223507
      3          8           0       -7.238216   -1.481656   -1.667567
      4          8           0       -3.831849   -3.182685   -0.017506
      5          8           0       -7.690385   -0.264485    0.169603
      6          8           0        3.057407    2.314198    0.322191
      7          7           0        0.241032   -0.476920    0.580463
      8          7           0       -1.576078    1.779212    0.387231
      9          7           0        3.287045   -3.102330   -0.859867
     10          7           0        0.823498    2.868826    0.143876
     11          6           0       -0.712588   -2.473819    1.400342
     12          6           0       -0.979643   -1.118179    0.898046
     13          6           0        0.752758   -2.593810    1.179545
     14          6           0        1.325835   -1.370806    0.627258
     15          6           0       -3.792172    1.546850    0.220332
     16          6           0       -2.564297    0.860269    0.569710
     17          6           0       -2.226419   -0.482200    0.858800
     18          6           0       -3.475317    2.821690   -0.236217
     19          6           0       -1.603042   -3.421056    2.032720
     20          6           0        5.561474   -2.672599   -1.353749
     21          6           0        3.592292   -1.770654   -0.219921
     22          6           0       -2.070209    2.978290   -0.053987
     23          6           0        4.968763   -1.561886   -0.434659
     24          6           0       -5.161791    0.854888    0.274897
     25          6           0        2.661983   -0.930871    0.313599
     26          6           0        1.449974   -3.888652    1.701399
     27          6           0        4.392052   -3.685855   -1.331928
     28          6           0       -2.133046   -4.508619    1.051471
     29          6           0       -5.503857   -0.237917   -0.724619
     30          6           0       -4.505734    3.908562   -0.665984
     31          6           0       -1.164270    4.083534   -0.220149
     32          6           0        6.767514   -3.446841   -0.840215
     33          6           0        5.788480   -0.607282    0.113386
     34          6           0        0.249622    4.089040   -0.119474
     35          6           0        1.224705    5.081151   -0.521051
     36          6           0        2.401073    4.597568   -0.377394
     37          6           0       -2.974566   -4.102970   -0.052185
     38          6           0        5.521952    0.491827    1.005875
     39          6           0       -6.939130   -0.608143   -0.684846
     40          6           0        3.772048    5.075289   -0.354664
     41          6           0        2.175445    3.176115    0.113367
     42          6           0        0.629697    6.541756   -0.826252
     43          6           0        4.281947    5.445665    1.056607
     44          1           0        0.348923    0.507558    0.318905
     45          1           0       -2.895458   -1.165495    1.198004
     46          1           0       -2.383481   -2.705758    2.261332
     47          1           0       -1.128748   -3.730431    2.919218
     48          1           0        5.680655   -2.270369   -2.303070
     49          1           0       -5.255087    0.482800    1.380048
     50          1           0       -6.016789    1.755893    0.286187
     51          1           0        2.854038    0.085746    0.433098
     52          1           0       -0.529078    1.692163    0.455161
     53          1           0        1.328604   -4.852076    0.944411
     54          1           0        2.612763   -3.829994    1.790981
     55          1           0        1.034541   -4.103979    2.807612
     56          1           0        2.183494   -3.229446   -1.018806
     57          1           0       -1.138891   -4.996910    0.583829
     58          1           0       -2.865415   -5.235398    1.567595
     59          1           0       -4.834836   -1.258658   -0.445135
     60          1           0       -5.203676    0.011466   -1.755338
     61          1           0       -4.282427    4.880975   -0.207464
     62          1           0       -5.542283    3.563367   -0.202867
     63          1           0       -4.570639    4.079728   -1.951536
     64          1           0       -1.503714    5.201646   -0.387079
     65          1           0        7.495323   -2.787077   -1.064279
     66          1           0        6.653585   -4.327471   -1.491351
     67          1           0        6.796497   -3.628405    0.172923
     68          1           0        6.820710   -0.481790   -0.405116
     69          1           0        4.916620    1.443206    0.554392
     70          1           0        6.261131    1.027713    1.332170
     71          1           0        4.780236    0.274550    1.860984
     72          1           0        3.872125    6.089713   -1.021276
     73          1           0        4.454710    4.470539   -0.812272
     74          1           0        0.179372    6.696885   -1.749426
     75          1           0        1.390231    7.087619   -0.712829
     76          1           0       -0.004624    6.945874   -0.019873
     77          1           0        3.666505    6.069732    1.563784
     78          1           0        5.384539    5.944082    1.190597
     79          1           0        4.700808    4.445267    1.813696
     80          1           0       -3.456033   -4.444949   -1.654463
     81          1           0       -8.302281   -1.563223   -1.731240
 ---------------------------------------------------------------------

 SCF Done:  E(RB3LYP) =  -1949.02285878     A.U. after   19 cycles

 Excitation energies and oscillator strengths:

 Excited State   1:      Singlet-A      1.7206 eV  720.57 nm  f=0.3215  <S**2>=0.000
     156 ->157         0.70908
     156 <-157        -0.13189
 This state for optimization and/or second-order correction.
 Total Energy, E(TD-HF/TD-DFT) =  -1948.95962676
 Copying the excited state density for this state as the 1-particle RhoCI density.

 The electronic state is 1-A.
 Alpha  occ. eigenvalues --  -19.19313 -19.18328 -19.15813 -19.12300 -19.09835
 Alpha  occ. eigenvalues --  -19.09816 -14.38338 -14.37167 -14.36374 -14.28722
 Alpha  occ. eigenvalues --  -10.35159 -10.31305 -10.27880 -10.25958 -10.25372
 Alpha  occ. eigenvalues --  -10.24546 -10.24519 -10.24505 -10.24384 -10.23808
 Alpha  occ. eigenvalues --  -10.22848 -10.22359 -10.22122 -10.22008 -10.21809
 Alpha  occ. eigenvalues --  -10.21749 -10.21735 -10.21393 -10.21115 -10.21016
 Alpha  occ. eigenvalues --  -10.20706 -10.20620 -10.20226 -10.20033 -10.19884
 Alpha  occ. eigenvalues --  -10.19840 -10.19471 -10.19372 -10.19074 -10.18897
 Alpha  occ. eigenvalues --  -10.18076 -10.17035 -10.16369  -1.11389  -1.09055
 Alpha  occ. eigenvalues --   -1.03559  -1.01893  -1.00519  -0.99918  -0.98827
 Alpha  occ. eigenvalues --   -0.96779  -0.93273  -0.91658  -0.84311  -0.81660
 Alpha  occ. eigenvalues --   -0.81429  -0.81229  -0.80485  -0.78884  -0.78283
 Alpha  occ. eigenvalues --   -0.76909  -0.76378  -0.75676  -0.74803  -0.72819
 Alpha  occ. eigenvalues --   -0.71191  -0.70431  -0.69928  -0.68960  -0.67244
 Alpha  occ. eigenvalues --   -0.67033  -0.65692  -0.63985  -0.62970  -0.61314
 Alpha  occ. eigenvalues --   -0.60129  -0.59146  -0.58641  -0.58419  -0.57046
 Alpha  occ. eigenvalues --   -0.55827  -0.55174  -0.54439  -0.53402  -0.52552
 Alpha  occ. eigenvalues --   -0.52145  -0.51970  -0.51664  -0.50869  -0.50510
 Alpha  occ. eigenvalues --   -0.50166  -0.49330  -0.48800  -0.48558  -0.47806
 Alpha  occ. eigenvalues --   -0.47612  -0.46932  -0.46149  -0.46022  -0.45404
 Alpha  occ. eigenvalues --   -0.45088  -0.44716  -0.44304  -0.44234  -0.43787
 Alpha  occ. eigenvalues --   -0.43631  -0.43322  -0.42882  -0.42347  -0.42261
 Alpha  occ. eigenvalues --   -0.41980  -0.41844  -0.41472  -0.41353  -0.40866
 Alpha  occ. eigenvalues --   -0.40691  -0.40518  -0.40075  -0.39809  -0.39377
 Alpha  occ. eigenvalues --   -0.39210  -0.38827  -0.38727  -0.38621  -0.38425
 Alpha  occ. eigenvalues --   -0.38158  -0.37677  -0.37146  -0.36859  -0.36551
 Alpha  occ. eigenvalues --   -0.36372  -0.35988  -0.35806  -0.35097  -0.35033
 Alpha  occ. eigenvalues --   -0.34416  -0.34247  -0.33836  -0.32929  -0.32556
 Alpha  occ. eigenvalues --   -0.32075  -0.31810  -0.30857  -0.30455  -0.30175
 Alpha  occ. eigenvalues --   -0.28274  -0.28113  -0.26769  -0.25852  -0.25679
 Alpha  occ. eigenvalues --   -0.25315  -0.24830  -0.24176  -0.24018  -0.21476
 Alpha  occ. eigenvalues --   -0.17955
 Alpha virt. eigenvalues --   -0.11157  -0.06238  -0.04785  -0.04220   0.00433
 Alpha virt. eigenvalues --    0.00525   0.01419   0.01836   0.02645   0.03348
 Alpha virt. eigenvalues --    0.03447   0.04645   0.04989   0.05576   0.05964

 Mulliken charges:
               1
     1  O   -0.209060
     2  O   -0.146481
     3  O   -0.239016
     4  O   -0.263279
     5  O   -0.203300
     6  O   -0.249447
     7  N   -0.125660
     8  N   -0.092373
     9  N   -0.174110
    10  N   -0.328009
    11  C   -0.146165
    12  C    0.025632
    13  C   -0.153517
    14  C    0.086570
    15  C   -0.065469
    16  C    0.116037
    17  C    0.024692
    18  C   -0.108455
    19  C    0.201470
    20  C   -0.084491
    21  C    0.133749
    22  C    0.118329
    23  C   -0.029260
    24  C    0.012576
    25  C   -0.061617
    26  C   -0.050010
    27  C    0.105664
    28  C    0.015080
    29  C   -0.055556
    30  C    0.005339
    31  C   -0.117512
    32  C    0.160616
    33  C   -0.124243
    34  C    0.027325
    35  C   -0.084137
    36  C   -0.153175
    37  C    0.141130
    38  C    0.065262
    39  C    0.133494
    40  C    0.119536
    41  C    0.158780
    42  C    0.219886
    43  C   -0.070881
    44  H    0.129592
    45  H   -0.065451
    46  H    0.005505
    47  H    0.002893
    48  H    0.022236
    49  H    0.034771
    50  H    0.032713
    51  H   -0.018646
    52  H    0.140831
    53  H    0.053982
    54  H    0.048129
    55  H    0.048256
    56  H    0.180546
    57  H    0.071854
    58  H    0.080000
    59  H    0.112018
    60  H    0.030908
    61  H    0.031360
    62  H    0.037533
    63  H    0.055689
    64  H   -0.005718
    65  H   -0.028439
    66  H    0.042643
    67  H   -0.012385
    68  H    0.010815
    69  H    0.084638
    70  H   -0.049767
    71  H    0.030412
    72  H    0.008291
    73  H   -0.014125
    74  H    0.014427
    75  H   -0.069179
    76  H    0.016319
    77  H    0.001157
    78  H    0.022170
    79  H    0.037787
    80  H    0.118318
    81  H    0.221972
 Sum of Mulliken charges =  -0.00000

 Dipole moment (field-independent basis, Debye):
    X=             -2.5829    Y=              1.4503    Z=              0.3908  Tot=              2.9878
 Quadrupole moment (field-independent basis, Debye-Ang):
   XX=           -254.6362   YY=           -244.5406   ZZ=           -253.5374
   XY=             22.9608   XZ=             15.4665   YZ=            -17.4419

 Normal termination of Gaussian 16 at Wed Jul  3 12:08:56 2019.
