 Gaussian 16, Revision A.03,
 Gaussian 16:  ES64L-G16RevA.03 25-Dec-2016

 --------------------------
 # td=(NStates=1) B3LYP/SVP
 --------------------------

 --
 TD
 --
 Symbolic Z-matrix:
 Charge =  0 Multiplicity = 1

                         Standard orientation:
 ---------------------------------------------------------------------
 Center     Atomic      Atomic             Coordinates (Angstroms)
 Number     Number       Type             X           Y           Z
 ---------------------------------------------------------------------
      1          8           0        4.444696   -4.838900   -1.734939
      2          8           0       -2.839847   -4.753171   -1.274176
      3          8           0       -7.041285   -1.503570   -1.911060
      4          8           0       -3.698705   -3.164334   -0.011100
      5          8           0       -7.561212   -0.643371    0.131246
      6          8           0        3.077006    2.451733    0.364608
      7          7           0        0.268462   -0.524654    0.498359
      8          7           0       -1.625222    1.859453    0.477066
      9          7           0        3.324064   -3.079237   -0.658686
     10          7           0        0.821257    2.856105    0.091203
     11          6           0       -0.586032   -2.361907    1.408057
     12          6           0       -0.961446   -1.121773    0.917212
     13          6           0        0.804715   -2.570722    1.233788
     14          6           0        1.260054   -1.357993    0.658167
     15          6           0       -3.833204    1.494545    0.293445
     16          6           0       -2.500883    0.840643    0.596227
     17          6           0       -2.177927   -0.467344    0.930210
     18          6           0       -3.605845    2.783856   -0.098733
     19          6           0       -1.635648   -3.418394    2.036814
     20          6           0        5.512863   -2.790711   -1.313132
     21          6           0        3.614457   -1.756961   -0.211389
     22          6           0       -2.226354    3.018751   -0.036820
     23          6           0        4.934418   -1.562642   -0.485242
     24          6           0       -5.130352    0.773330    0.332757
     25          6           0        2.620403   -0.997254    0.390219
     26          6           0        1.518949   -3.747708    1.866886
     27          6           0        4.405703   -3.731242   -1.202967
     28          6           0       -2.029184   -4.536717    1.103326
     29          6           0       -5.310339   -0.310262   -0.804913
     30          6           0       -4.540379    3.788765   -0.609378
     31          6           0       -1.362419    4.010808   -0.393978
     32          6           0        6.856307   -3.354500   -1.039585
     33          6           0        5.746860   -0.573957   -0.108075
     34          6           0        0.081261    4.024280   -0.342124
     35          6           0        1.065551    5.188560   -0.473006
     36          6           0        2.273971    4.635057   -0.360873
     37          6           0       -2.937153   -4.179285   -0.037357
     38          6           0        5.442960    0.551357    0.824528
     39          6           0       -6.780686   -0.781385   -0.806249
     40          6           0        3.675567    5.267093   -0.329875
     41          6           0        2.200916    3.188478    0.040301
     42          6           0        0.685299    6.610947   -0.720000
     43          6           0        4.071048    5.695564    1.196989
     44          1           0        0.464234    0.493600    0.185040
     45          1           0       -3.218181   -0.943410    1.129566
     46          1           0       -2.662787   -2.826543    2.306995
     47          1           0       -1.129704   -3.909936    2.917968
     48          1           0        5.638206   -2.433886   -2.360816
     49          1           0       -5.329134    0.204925    1.204274
     50          1           0       -5.859042    1.496178    0.410626
     51          1           0        2.751897    0.146969    0.446405
     52          1           0       -0.524729    1.939016    0.499021
     53          1           0        1.555461   -4.591446    1.001865
     54          1           0        2.436174   -3.595411    2.127567
     55          1           0        1.008550   -4.170174    2.727983
     56          1           0        2.437588   -3.550254   -0.548966
     57          1           0       -1.133203   -4.914088    0.631606
     58          1           0       -2.483403   -5.185575    1.802371
     59          1           0       -4.630551   -1.179824   -0.608819
     60          1           0       -5.099146    0.026709   -1.734737
     61          1           0       -4.527578    4.691937   -0.025504
     62          1           0       -5.470048    3.379777   -0.650057
     63          1           0       -4.313049    4.053036   -1.577229
     64          1           0       -1.705125    4.990988   -0.619907
     65          1           0        7.615963   -2.492939   -1.237003
     66          1           0        7.053099   -4.207669   -1.695324
     67          1           0        6.793815   -3.757975   -0.063687
     68          1           0        6.768582   -0.453443   -0.411309
     69          1           0        4.749328    1.205982    0.267358
     70          1           0        6.127048    1.302321    1.204170
     71          1           0        4.782426    0.048376    1.542468
     72          1           0        3.729086    6.238255   -0.980021
     73          1           0        4.365038    4.426779   -0.948974
     74          1           0       -0.130671    6.628301   -1.576399
     75          1           0        1.664966    7.099881   -0.799046
     76          1           0       -0.060981    6.931491    0.064247
     77          1           0        3.282678    6.738555    1.406739
     78          1           0        5.213253    5.871175    1.222374
     79          1           0        3.763689    4.755798    1.952110
     80          1           0       -3.522124   -4.179512   -1.725503
     81          1           0       -7.887466   -1.954414   -1.591070
 ---------------------------------------------------------------------

 SCF Done:  E(RB3LYP) =  -1949.12325724     A.U. after   16 cycles

 Excitation energies and oscillator strengths:

 Excited State   1:      Singlet-A      1.7657 eV  702.18 nm  f=0.3186  <S**2>=0.000
     156 ->157         0.71015
     156 <-157        -0.12659
 This state for optimization and/or second-order correction.
 Total Energy, E(TD-HF/TD-DFT) =  -1949.05836880
 Copying the excited state density for this state as the 1-particle RhoCI density.

 The electronic state is 1-A.
 Alpha  occ. eigenvalues --  -19.20093 -19.19364 -19.14130 -19.13130 -19.10868
 Alpha  occ. eigenvalues --  -19.10026 -14.38006 -14.36964 -14.34812 -14.29205
 Alpha  occ. eigenvalues --  -10.34391 -10.32328 -10.28124 -10.26495 -10.24611
 Alpha  occ. eigenvalues --  -10.23916 -10.23627 -10.23172 -10.23109 -10.23044
 Alpha  occ. eigenvalues --  -10.22954 -10.22605 -10.22383 -10.21594 -10.21534
 Alpha  occ. eigenvalues --  -10.21007 -10.20572 -10.20372 -10.20324 -10.20224
 Alpha  occ. eigenvalues --  -10.19933 -10.19920 -10.19694 -10.19612 -10.19366
 Alpha  occ. eigenvalues --  -10.19267 -10.19199 -10.19005 -10.18903 -10.18667
 Alpha  occ. eigenvalues --  -10.18435 -10.17903 -10.16836  -1.10774  -1.10062
 Alpha  occ. eigenvalues --   -1.03338  -1.02445  -1.00358  -0.99267  -0.99166
 Alpha  occ. eigenvalues --   -0.97025  -0.95204  -0.89094  -0.82775  -0.82249
 Alpha  occ. eigenvalues --   -0.82219  -0.81558  -0.79452  -0.79064  -0.78752
 Alpha  occ. eigenvalues --   -0.77688  -0.76876  -0.74957  -0.73682  -0.72476
 Alpha  occ. eigenvalues --   -0.71971  -0.70886  -0.68901  -0.68403  -0.67773
 Alpha  occ. eigenvalues --   -0.67479  -0.65574  -0.64710  -0.62652  -0.60417
 Alpha  occ. eigenvalues --   -0.59828  -0.59030  -0.58428  -0.57628  -0.57147
 Alpha  occ. eigenvalues --   -0.56198  -0.55610  -0.54872  -0.54144  -0.53438
 Alpha  occ. eigenvalues --   -0.52930  -0.51678  -0.50604  -0.50481  -0.50056
 Alpha  occ. eigenvalues --   -0.49777  -0.49509  -0.49378  -0.48830  -0.48172
 Alpha  occ. eigenvalues --   -0.47187  -0.47032  -0.46141  -0.45983  -0.45571
 Alpha  occ. eigenvalues --   -0.45308  -0.44936  -0.44897  -0.44118  -0.43904
 Alpha  occ. eigenvalues --   -0.43646  -0.43217  -0.42781  -0.42672  -0.42478
 Alpha  occ. eigenvalues --   -0.42233  -0.42015  -0.41924  -0.41503  -0.40968
 Alpha  occ. eigenvalues --   -0.40809  -0.40531  -0.40380  -0.40052  -0.39964
 Alpha  occ. eigenvalues --   -0.39529  -0.39413  -0.39059  -0.38797  -0.38478
 Alpha  occ. eigenvalues --   -0.38068  -0.38000  -0.37531  -0.36947  -0.36800
 Alpha  occ. eigenvalues --   -0.36662  -0.36177  -0.35412  -0.35216  -0.34941
 Alpha  occ. eigenvalues --   -0.34572  -0.33935  -0.33325  -0.32916  -0.32740
 Alpha  occ. eigenvalues --   -0.32546  -0.32331  -0.32128  -0.30341  -0.29391
 Alpha  occ. eigenvalues --   -0.28617  -0.28117  -0.26650  -0.25792  -0.25244
 Alpha  occ. eigenvalues --   -0.25133  -0.24953  -0.24418  -0.22886  -0.21586
 Alpha  occ. eigenvalues --   -0.17591
 Alpha virt. eigenvalues --   -0.10551  -0.05756  -0.04106  -0.03796  -0.00306
 Alpha virt. eigenvalues --   -0.00244   0.02264   0.02791   0.02981   0.03879
 Alpha virt. eigenvalues --    0.04407   0.05160   0.05451   0.05649   0.05924

 Mulliken charges:
               1
     1  O   -0.236892
     2  O   -0.182362
     3  O   -0.186993
     4  O   -0.298690
     5  O   -0.252694
     6  O   -0.180785
     7  N   -0.083564
     8  N   -0.144071
     9  N   -0.127771
    10  N   -0.409651
    11  C   -0.106848
    12  C    0.150092
    13  C   -0.183793
    14  C    0.030538
    15  C   -0.073149
    16  C   -0.011140
    17  C   -0.062445
    18  C   -0.146121
    19  C    0.021449
    20  C   -0.040338
    21  C    0.148486
    22  C    0.131517
    23  C    0.030622
    24  C    0.130830
    25  C   -0.164883
    26  C    0.151820
    27  C    0.112375
    28  C    0.111541
    29  C    0.025625
    30  C    0.243652
    31  C   -0.089628
    32  C    0.069535
    33  C   -0.185144
    34  C    0.057222
    35  C   -0.080104
    36  C   -0.187497
    37  C    0.153209
    38  C    0.070549
    39  C    0.140306
    40  C   -0.027654
    41  C    0.181453
    42  C    0.103665
    43  C   -0.097766
    44  H    0.165684
    45  H    0.034680
    46  H    0.052910
    47  H    0.019397
    48  H    0.042771
    49  H   -0.000485
    50  H   -0.025465
    51  H    0.044908
    52  H    0.168774
    53  H    0.025155
    54  H   -0.027524
    55  H    0.011036
    56  H    0.120360
    57  H    0.027677
    58  H    0.037494
    59  H    0.069428
    60  H   -0.011368
    61  H    0.011856
    62  H   -0.034727
    63  H   -0.009993
    64  H   -0.061777
    65  H    0.030836
    66  H    0.031001
    67  H   -0.005961
    68  H   -0.017478
    69  H    0.058400
    70  H    0.010255
    71  H    0.022464
    72  H    0.019109
    73  H    0.045040
    74  H    0.031023
    75  H    0.037247
    76  H    0.023737
    77  H    0.044046
    78  H    0.051687
    79  H    0.066584
    80  H    0.197590
    81  H    0.189122
 Sum of Mulliken charges =  -0.00000

 Dipole moment (field-independent basis, Debye):
    X=             -2.2082    Y=              0.9848    Z=              0.1799  Tot=              2.4246
 Quadrupole moment (field-independent basis, Debye-Ang):
   XX=           -253.5402   YY=           -241.6031   ZZ=           -256.4151
   XY=             17.9909   XZ=             11.9403   YZ=            -18.7072

 Normal termination of Gaussian 16 at Wed Jul  3 17:49:38 2019.
