 Gaussian 16, Revision A.03,
 Gaussian 16:  ES64L-G16RevA.03 25-Dec-2016

 --------------------------
 # td=(NStates=1) B3LYP/SVP
 --------------------------

 --
 TD
 --
 Symbolic Z-matrix:
 Charge =  0 Multiplicity = 1

                         Standard orientation:
 ---------------------------------------------------------------------
 Center     Atomic      Atomic             Coordinates (Angstroms)
 Number     Number       Type             X           Y           Z
 ---------------------------------------------------------------------
      1          8           0        4.449755   -4.830756   -1.767646
      2          8           0       -3.096700   -5.088336   -1.166705
      3          8           0       -6.912083   -1.731234   -1.813742
      4          8           0       -3.703007   -3.240859    0.082998
      5          8           0       -7.563348   -0.724679    0.029200
      6          8           0        3.002911    2.526317    0.176687
      7          7           0        0.242478   -0.459271    0.484298
      8          7           0       -1.611951    1.875378    0.343132
      9          7           0        3.411091   -3.066399   -0.640550
     10          7           0        0.687423    2.935067   -0.090907
     11          6           0       -0.634549   -2.371509    1.330857
     12          6           0       -0.909868   -1.061114    0.706590
     13          6           0        0.749311   -2.566793    1.214046
     14          6           0        1.356040   -1.430039    0.670719
     15          6           0       -3.831161    1.433459    0.353999
     16          6           0       -2.578368    0.862783    0.539383
     17          6           0       -2.204583   -0.431550    0.844548
     18          6           0       -3.658322    2.799121   -0.028187
     19          6           0       -1.634527   -3.340332    1.880057
     20          6           0        5.729354   -2.830876   -1.267594
     21          6           0        3.634529   -1.868692   -0.189253
     22          6           0       -2.204482    3.004185    0.013704
     23          6           0        5.096928   -1.621897   -0.457479
     24          6           0       -5.091147    0.597107    0.468734
     25          6           0        2.669723   -1.010372    0.357086
     26          6           0        1.598966   -3.653782    1.856644
     27          6           0        4.436390   -3.732531   -1.359374
     28          6           0       -1.915514   -4.624736    1.004062
     29          6           0       -5.396273   -0.235624   -0.815466
     30          6           0       -4.653516    3.847518   -0.355649
     31          6           0       -1.429013    4.171172   -0.266915
     32          6           0        6.881394   -3.515471   -0.551289
     33          6           0        5.927943   -0.487321   -0.148827
     34          6           0       -0.026282    4.133571   -0.179822
     35          6           0        0.957589    5.276807   -0.384134
     36          6           0        2.203245    4.740242   -0.302742
     37          6           0       -2.996427   -4.258482    0.013040
     38          6           0        5.504259    0.772453    0.667578
     39          6           0       -6.730850   -0.834260   -0.802472
     40          6           0        3.491401    5.373479   -0.335766
     41          6           0        2.074773    3.332203   -0.000024
     42          6           0        0.581736    6.732080   -0.794460
     43          6           0        4.204249    5.621801    1.024507
     44          1           0        0.288810    0.297830   -0.108145
     45          1           0       -2.917423   -1.099058    1.095240
     46          1           0       -2.494264   -2.842111    2.345597
     47          1           0       -1.311663   -3.604054    2.803085
     48          1           0        6.084456   -2.272811   -2.373471
     49          1           0       -4.959473   -0.024190    1.392574
     50          1           0       -5.842884    1.553045    0.432168
     51          1           0        2.957832    0.234946    0.467843
     52          1           0       -0.471995    1.937705    0.580892
     53          1           0        1.459306   -4.594492    1.213436
     54          1           0        2.620826   -3.493393    1.785205
     55          1           0        1.554240   -4.053851    2.928855
     56          1           0        2.461903   -3.524875   -0.987237
     57          1           0       -0.959914   -5.071938    0.573097
     58          1           0       -2.462509   -5.494181    1.550373
     59          1           0       -4.758328   -0.880308   -0.796732
     60          1           0       -5.346204    0.301979   -1.710029
     61          1           0       -4.742862    4.680259    0.619904
     62          1           0       -5.645136    3.426128   -0.680967
     63          1           0       -4.214886    4.641116   -1.322517
     64          1           0       -1.834236    5.147700   -0.266688
     65          1           0        7.891591   -2.968821   -0.542722
     66          1           0        7.039137   -4.434542   -0.921957
     67          1           0        6.439590   -3.575160    0.622379
     68          1           0        6.962981   -0.789594   -0.547104
     69          1           0        5.041682    1.367307   -0.112860
     70          1           0        6.324832    1.181227    1.171544
     71          1           0        4.804973    0.377157    1.433267
     72          1           0        3.432765    6.396527   -0.771563
     73          1           0        4.165940    4.611787   -1.106734
     74          1           0       -0.296309    6.655475   -1.534638
     75          1           0        1.426757    7.251822   -1.221245
     76          1           0        0.160077    7.282897    0.217133
     77          1           0        3.477434    6.178558    1.871955
     78          1           0        5.320634    6.043251    0.942873
     79          1           0        4.268975    4.563180    1.328585
     80          1           0       -3.806166   -4.589447   -1.741707
     81          1           0       -7.861690   -2.029718   -1.864428
 ---------------------------------------------------------------------

 SCF Done:  E(RB3LYP) =  -1949.02360581     A.U. after   16 cycles

 Excitation energies and oscillator strengths:

 Excited State   1:      Singlet-A      1.7456 eV  710.27 nm  f=0.3638  <S**2>=0.000
     156 ->157         0.70728
     156 <-157        -0.11737
 This state for optimization and/or second-order correction.
 Total Energy, E(TD-HF/TD-DFT) =  -1948.95945648
 Copying the excited state density for this state as the 1-particle RhoCI density.

 The electronic state is 1-A.
 Alpha  occ. eigenvalues --  -19.18654 -19.16950 -19.14821 -19.13294 -19.11956
 Alpha  occ. eigenvalues --  -19.10014 -14.38694 -14.36851 -14.34964 -14.28585
 Alpha  occ. eigenvalues --  -10.34162 -10.30997 -10.30496 -10.25908 -10.25133
 Alpha  occ. eigenvalues --  -10.24293 -10.24032 -10.23435 -10.23332 -10.23269
 Alpha  occ. eigenvalues --  -10.22642 -10.22550 -10.22262 -10.21450 -10.21349
 Alpha  occ. eigenvalues --  -10.21192 -10.20841 -10.20778 -10.20732 -10.20697
 Alpha  occ. eigenvalues --  -10.20396 -10.20378 -10.20314 -10.20265 -10.20104
 Alpha  occ. eigenvalues --  -10.20070 -10.20013 -10.19755 -10.19665 -10.18311
 Alpha  occ. eigenvalues --  -10.18229 -10.18056 -10.17877  -1.09258  -1.07373
 Alpha  occ. eigenvalues --   -1.07220  -1.00016  -0.99918  -0.99205  -0.98300
 Alpha  occ. eigenvalues --   -0.97912  -0.97066  -0.89417  -0.82649  -0.82498
 Alpha  occ. eigenvalues --   -0.80881  -0.79941  -0.79626  -0.78584  -0.77901
 Alpha  occ. eigenvalues --   -0.77267  -0.75466  -0.74179  -0.73426  -0.72314
 Alpha  occ. eigenvalues --   -0.71055  -0.69843  -0.69253  -0.68022  -0.67612
 Alpha  occ. eigenvalues --   -0.66588  -0.65046  -0.63445  -0.62324  -0.60578
 Alpha  occ. eigenvalues --   -0.59575  -0.58926  -0.58401  -0.57445  -0.57027
 Alpha  occ. eigenvalues --   -0.55788  -0.55424  -0.54206  -0.52850  -0.52419
 Alpha  occ. eigenvalues --   -0.51770  -0.51590  -0.50900  -0.50431  -0.49880
 Alpha  occ. eigenvalues --   -0.48731  -0.48551  -0.48161  -0.47623  -0.47015
 Alpha  occ. eigenvalues --   -0.46913  -0.46417  -0.45782  -0.45174  -0.45016
 Alpha  occ. eigenvalues --   -0.44388  -0.44007  -0.43693  -0.43395  -0.42840
 Alpha  occ. eigenvalues --   -0.42778  -0.42598  -0.42346  -0.42208  -0.41887
 Alpha  occ. eigenvalues --   -0.41641  -0.41535  -0.41209  -0.40759  -0.40603
 Alpha  occ. eigenvalues --   -0.40398  -0.39925  -0.39629  -0.39528  -0.39438
 Alpha  occ. eigenvalues --   -0.39248  -0.38743  -0.38724  -0.38571  -0.38368
 Alpha  occ. eigenvalues --   -0.38191  -0.37899  -0.37316  -0.37121  -0.37044
 Alpha  occ. eigenvalues --   -0.36677  -0.36333  -0.36058  -0.35477  -0.34775
 Alpha  occ. eigenvalues --   -0.34195  -0.33795  -0.33363  -0.32792  -0.32573
 Alpha  occ. eigenvalues --   -0.32495  -0.31937  -0.31261  -0.29797  -0.29461
 Alpha  occ. eigenvalues --   -0.27704  -0.27292  -0.27161  -0.26650  -0.25804
 Alpha  occ. eigenvalues --   -0.24703  -0.24125  -0.23593  -0.23015  -0.20810
 Alpha  occ. eigenvalues --   -0.17450
 Alpha virt. eigenvalues --   -0.10415  -0.06212  -0.04443  -0.02895  -0.01918
 Alpha virt. eigenvalues --    0.01485   0.01705   0.02280   0.02784   0.03197
 Alpha virt. eigenvalues --    0.03374   0.03992   0.04849   0.05180   0.05355

 Mulliken charges:
               1
     1  O   -0.147484
     2  O   -0.281704
     3  O   -0.230018
     4  O   -0.241006
     5  O   -0.191902
     6  O   -0.243017
     7  N   -0.046424
     8  N   -0.149494
     9  N   -0.127812
    10  N   -0.385680
    11  C   -0.155570
    12  C    0.025712
    13  C   -0.118873
    14  C    0.088183
    15  C   -0.095960
    16  C    0.127774
    17  C   -0.011563
    18  C   -0.094874
    19  C    0.191006
    20  C   -0.142116
    21  C    0.104201
    22  C    0.085818
    23  C   -0.145197
    24  C    0.030047
    25  C   -0.196037
    26  C    0.078704
    27  C    0.123467
    28  C    0.005009
    29  C    0.231863
    30  C   -0.064596
    31  C   -0.084276
    32  C    0.055495
    33  C   -0.135252
    34  C    0.069206
    35  C   -0.084392
    36  C   -0.128764
    37  C    0.175468
    38  C    0.118411
    39  C    0.093765
    40  C    0.006184
    41  C    0.183790
    42  C    0.045058
    43  C   -0.064287
    44  H    0.118653
    45  H   -0.061976
    46  H   -0.001196
    47  H   -0.041702
    48  H    0.072472
    49  H    0.044074
    50  H    0.032031
    51  H    0.118712
    52  H    0.209758
    53  H    0.002646
    54  H   -0.006684
    55  H    0.037349
    56  H    0.174628
    57  H    0.064652
    58  H    0.061730
    59  H   -0.081465
    60  H    0.008135
    61  H    0.060645
    62  H    0.043824
    63  H    0.047143
    64  H   -0.039855
    65  H    0.037388
    66  H    0.005287
    67  H    0.034647
    68  H    0.003544
    69  H    0.075300
    70  H    0.004411
    71  H    0.040470
    72  H   -0.006832
    73  H    0.037484
    74  H    0.042123
    75  H    0.025611
    76  H    0.047858
    77  H    0.035913
    78  H    0.040059
    79  H    0.030323
    80  H    0.218440
    81  H    0.191537
 Sum of Mulliken charges =  -0.00000

 Dipole moment (field-independent basis, Debye):
    X=             -1.0459    Y=             -0.8523    Z=             -0.3031  Tot=              1.3829
 Quadrupole moment (field-independent basis, Debye-Ang):
   XX=           -251.0284   YY=           -242.4453   ZZ=           -252.2796
   XY=              7.4290   XZ=             13.2229   YZ=            -11.6449

 Normal termination of Gaussian 16 at Sun Jun 30 15:17:47 2019.
