 Gaussian 16, Revision A.03,
 Gaussian 16:  ES64L-G16RevA.03 25-Dec-2016

 --------------------------
 # td=(NStates=1) B3LYP/SVP
 --------------------------

 --
 TD
 --
 Symbolic Z-matrix:
 Charge =  0 Multiplicity = 1

                         Standard orientation:
 ---------------------------------------------------------------------
 Center     Atomic      Atomic             Coordinates (Angstroms)
 Number     Number       Type             X           Y           Z
 ---------------------------------------------------------------------
      1          8           0        3.827138   -5.040174   -1.930311
      2          8           0       -3.237867   -4.717697   -0.890387
      3          8           0       -6.794734   -1.376339   -1.842961
      4          8           0       -4.036587   -2.940738    0.123170
      5          8           0       -7.473500   -0.379449    0.012735
      6          8           0        3.134709    2.220208    0.375130
      7          7           0        0.178230   -0.446161    0.626751
      8          7           0       -1.467068    1.990892    0.522370
      9          7           0        2.993125   -3.243014   -0.661055
     10          7           0        0.958699    2.845207    0.057137
     11          6           0       -0.694905   -2.379567    1.454305
     12          6           0       -1.034648   -0.927924    1.095000
     13          6           0        0.681785   -2.534564    1.164885
     14          6           0        1.211119   -1.367216    0.636495
     15          6           0       -3.661779    1.742486    0.222042
     16          6           0       -2.411808    0.940603    0.592448
     17          6           0       -2.319529   -0.361773    0.922366
     18          6           0       -3.321802    2.957097   -0.210537
     19          6           0       -1.711156   -3.237442    2.090233
     20          6           0        5.208949   -3.070719   -1.349980
     21          6           0        3.503570   -1.929909   -0.178480
     22          6           0       -1.908970    3.200533   -0.052695
     23          6           0        4.917507   -1.876548   -0.566578
     24          6           0       -5.045457    1.037308    0.295315
     25          6           0        2.485304   -0.970204    0.200268
     26          6           0        1.341740   -3.732666    1.682681
     27          6           0        3.949449   -3.947996   -1.265302
     28          6           0       -2.272889   -4.332893    1.126437
     29          6           0       -5.250217    0.098533   -0.886308
     30          6           0       -4.267941    4.065353   -0.811184
     31          6           0       -0.998302    4.173729   -0.328490
     32          6           0        6.432374   -3.859919   -1.072345
     33          6           0        5.707591   -0.884275   -0.090191
     34          6           0        0.404065    4.018727   -0.239410
     35          6           0        1.350973    5.033246   -0.408583
     36          6           0        2.565736    4.506655   -0.187115
     37          6           0       -3.274378   -3.860987    0.132358
     38          6           0        5.415369    0.275078    0.832053
     39          6           0       -6.649989   -0.486819   -0.860747
     40          6           0        3.929495    5.113301   -0.306544
     41          6           0        2.302398    3.110063    0.174962
     42          6           0        1.054961    6.502180   -0.750322
     43          6           0        4.648798    5.190221    1.063700
     44          1           0        0.170889    0.532020   -0.106569
     45          1           0       -3.256072   -0.978263    0.996288
     46          1           0       -2.563583   -2.757882    2.364028
     47          1           0       -1.150000   -3.707565    2.990605
     48          1           0        5.051616   -2.956341   -2.476952
     49          1           0       -5.213236    0.529924    1.240861
     50          1           0       -5.857071    1.756866    0.464297
     51          1           0        2.809341    0.109897    0.004800
     52          1           0       -0.285978    1.911257    0.700553
     53          1           0        1.001242   -4.677941    1.105203
     54          1           0        2.284912   -3.540200    1.917430
     55          1           0        0.858013   -4.125416    2.727866
     56          1           0        2.003702   -3.508593   -0.675440
     57          1           0       -1.302580   -4.582469    0.768261
     58          1           0       -2.725706   -5.155179    1.985192
     59          1           0       -4.813598   -0.927294   -0.735442
     60          1           0       -5.161539    0.550835   -1.849498
     61          1           0       -3.934298    5.043799   -0.138204
     62          1           0       -5.339699    3.838883   -0.549746
     63          1           0       -4.101279    4.366941   -1.793230
     64          1           0       -1.385689    5.105989   -0.811693
     65          1           0        7.444250   -3.149822   -1.439839
     66          1           0        6.595583   -4.799651   -1.522048
     67          1           0        6.420493   -4.036473    0.029718
     68          1           0        6.859240   -0.981680   -0.676476
     69          1           0        5.029971    1.195371    0.330411
     70          1           0        6.193121    0.678697    1.368902
     71          1           0        4.605489   -0.090093    1.489313
     72          1           0        3.854364    6.136277   -0.815922
     73          1           0        4.418138    4.496399   -1.089790
     74          1           0        0.546923    6.815309   -1.590319
     75          1           0        2.064467    7.018153   -0.453813
     76          1           0        0.239107    6.876354   -0.010406
     77          1           0        4.198671    5.735968    1.967371
     78          1           0        5.723958    5.409275    1.163916
     79          1           0        4.762053    4.231680    1.540211
     80          1           0       -3.877120   -4.346549   -1.611683
     81          1           0       -7.886757   -1.395596   -2.128001
 ---------------------------------------------------------------------

 SCF Done:  E(RB3LYP) =  -1949.04572597     A.U. after   19 cycles

 Excitation energies and oscillator strengths:

 Excited State   1:      Singlet-A      1.5463 eV  801.83 nm  f=0.2797  <S**2>=0.000
     156 ->157         0.71379
     156 <-157        -0.14197
 This state for optimization and/or second-order correction.
 Total Energy, E(TD-HF/TD-DFT) =  -1948.98890190
 Copying the excited state density for this state as the 1-particle RhoCI density.

 The electronic state is 1-A.
 Alpha  occ. eigenvalues --  -19.19627 -19.18352 -19.15186 -19.11997 -19.10709
 Alpha  occ. eigenvalues --  -19.08782 -14.38381 -14.37092 -14.35732 -14.29530
 Alpha  occ. eigenvalues --  -10.34038 -10.31163 -10.27908 -10.26628 -10.25222
 Alpha  occ. eigenvalues --  -10.24312 -10.23692 -10.23571 -10.23429 -10.22839
 Alpha  occ. eigenvalues --  -10.22836 -10.21860 -10.21340 -10.21135 -10.20838
 Alpha  occ. eigenvalues --  -10.20660 -10.20641 -10.20527 -10.20463 -10.20397
 Alpha  occ. eigenvalues --  -10.20385 -10.20374 -10.20336 -10.20211 -10.20147
 Alpha  occ. eigenvalues --  -10.20141 -10.19930 -10.19756 -10.19686 -10.19369
 Alpha  occ. eigenvalues --  -10.19181 -10.18458 -10.17522  -1.12096  -1.08812
 Alpha  occ. eigenvalues --   -1.02512  -1.01828  -0.99843  -0.99355  -0.97120
 Alpha  occ. eigenvalues --   -0.95657  -0.93710  -0.92640  -0.82914  -0.82346
 Alpha  occ. eigenvalues --   -0.82177  -0.81181  -0.80475  -0.79195  -0.77759
 Alpha  occ. eigenvalues --   -0.77298  -0.76779  -0.75367  -0.74471  -0.72049
 Alpha  occ. eigenvalues --   -0.70717  -0.70022  -0.69580  -0.68148  -0.67501
 Alpha  occ. eigenvalues --   -0.66812  -0.66120  -0.65056  -0.63624  -0.61802
 Alpha  occ. eigenvalues --   -0.60378  -0.58524  -0.57968  -0.57631  -0.56730
 Alpha  occ. eigenvalues --   -0.55986  -0.55365  -0.54730  -0.53957  -0.52801
 Alpha  occ. eigenvalues --   -0.52607  -0.51911  -0.51224  -0.51110  -0.49837
 Alpha  occ. eigenvalues --   -0.49567  -0.49340  -0.48764  -0.47867  -0.47482
 Alpha  occ. eigenvalues --   -0.47181  -0.46756  -0.46429  -0.45544  -0.45347
 Alpha  occ. eigenvalues --   -0.45073  -0.44509  -0.44293  -0.44135  -0.43750
 Alpha  occ. eigenvalues --   -0.43052  -0.43021  -0.42874  -0.42584  -0.42433
 Alpha  occ. eigenvalues --   -0.42186  -0.41794  -0.41444  -0.41013  -0.40832
 Alpha  occ. eigenvalues --   -0.40550  -0.40437  -0.39987  -0.39637  -0.39495
 Alpha  occ. eigenvalues --   -0.39174  -0.38985  -0.38661  -0.38575  -0.38038
 Alpha  occ. eigenvalues --   -0.37697  -0.37551  -0.37203  -0.36759  -0.36408
 Alpha  occ. eigenvalues --   -0.36007  -0.35706  -0.34677  -0.34624  -0.34242
 Alpha  occ. eigenvalues --   -0.34029  -0.33888  -0.33727  -0.33177  -0.32924
 Alpha  occ. eigenvalues --   -0.32429  -0.32061  -0.31597  -0.30789  -0.30515
 Alpha  occ. eigenvalues --   -0.28553  -0.27425  -0.26460  -0.25549  -0.25465
 Alpha  occ. eigenvalues --   -0.24876  -0.24701  -0.24261  -0.23670  -0.22031
 Alpha  occ. eigenvalues --   -0.17350
 Alpha virt. eigenvalues --   -0.11248  -0.06765  -0.04550  -0.02771  -0.00823
 Alpha virt. eigenvalues --    0.00639   0.01003   0.01943   0.02947   0.03266
 Alpha virt. eigenvalues --    0.03822   0.04060   0.04191   0.04922   0.05055

 Mulliken charges:
               1
     1  O   -0.307649
     2  O   -0.195078
     3  O   -0.264984
     4  O   -0.201244
     5  O   -0.218922
     6  O   -0.224801
     7  N   -0.190858
     8  N   -0.268882
     9  N   -0.117303
    10  N   -0.278187
    11  C   -0.152169
    12  C    0.074675
    13  C   -0.158850
    14  C    0.124142
    15  C   -0.090093
    16  C    0.115561
    17  C   -0.079524
    18  C   -0.107899
    19  C    0.128279
    20  C   -0.016071
    21  C    0.028075
    22  C    0.150330
    23  C    0.008217
    24  C    0.104585
    25  C   -0.106227
    26  C    0.090883
    27  C    0.094317
    28  C   -0.035075
    29  C    0.020549
    30  C    0.065686
    31  C   -0.150899
    32  C    0.031372
    33  C   -0.186903
    34  C    0.107794
    35  C   -0.102191
    36  C   -0.174494
    37  C    0.157075
    38  C    0.106157
    39  C    0.093551
    40  C    0.104980
    41  C    0.142002
    42  C    0.096567
    43  C   -0.010999
    44  H    0.215287
    45  H    0.043870
    46  H   -0.025518
    47  H    0.022889
    48  H    0.057304
    49  H    0.005026
    50  H   -0.000741
    51  H    0.054157
    52  H    0.219483
    53  H    0.041631
    54  H   -0.003667
    55  H    0.013542
    56  H    0.142303
    57  H    0.023740
    58  H    0.086612
    59  H    0.070542
    60  H    0.024012
    61  H    0.028809
    62  H    0.030863
    63  H    0.020444
    64  H   -0.021728
    65  H    0.023941
    66  H    0.025692
    67  H    0.015773
    68  H    0.020622
    69  H    0.065890
    70  H   -0.012793
    71  H    0.031994
    72  H    0.006192
    73  H    0.024712
    74  H    0.005044
    75  H    0.044543
    76  H    0.013775
    77  H    0.016166
    78  H    0.000473
    79  H    0.005019
    80  H    0.210648
    81  H    0.247950
 Sum of Mulliken charges =  -0.00000

 Dipole moment (field-independent basis, Debye):
    X=             -3.3619    Y=              3.0251    Z=             -0.9518  Tot=              4.6216
 Quadrupole moment (field-independent basis, Debye-Ang):
   XX=           -251.7501   YY=           -250.9308   ZZ=           -251.4055
   XY=             19.0688   XZ=             23.5167   YZ=            -18.6892

 Normal termination of Gaussian 16 at Mon Jul  1 10:19:03 2019.
