 Gaussian 16, Revision A.03,
 Gaussian 16:  ES64L-G16RevA.03 25-Dec-2016

 --------------------------
 # td=(NStates=1) B3LYP/SVP
 --------------------------

 --
 TD
 --
 Symbolic Z-matrix:
 Charge =  0 Multiplicity = 1

                         Standard orientation:
 ---------------------------------------------------------------------
 Center     Atomic      Atomic             Coordinates (Angstroms)
 Number     Number       Type             X           Y           Z
 ---------------------------------------------------------------------
      1          8           0        4.259454   -4.792831   -1.904240
      2          8           0       -2.975325   -4.814641   -1.024320
      3          8           0       -6.989622   -1.720259   -1.770848
      4          8           0       -3.722130   -3.096961    0.040446
      5          8           0       -7.618015   -0.264106   -0.013937
      6          8           0        2.962966    2.337230    0.400864
      7          7           0        0.239231   -0.505985    0.663351
      8          7           0       -1.555686    1.732212    0.319723
      9          7           0        3.261120   -3.074234   -0.573640
     10          7           0        0.820331    2.849405   -0.064518
     11          6           0       -0.583900   -2.394350    1.454567
     12          6           0       -0.959447   -1.146247    1.035509
     13          6           0        0.783466   -2.597844    1.274776
     14          6           0        1.361138   -1.439868    0.646096
     15          6           0       -3.754851    1.390014    0.230790
     16          6           0       -2.469319    0.768661    0.494032
     17          6           0       -2.249515   -0.528571    0.962384
     18          6           0       -3.574083    2.762558   -0.088040
     19          6           0       -1.522551   -3.454969    2.158696
     20          6           0        5.498197   -2.671899   -1.369736
     21          6           0        3.674819   -1.788608   -0.147760
     22          6           0       -2.190965    3.032399   -0.086695
     23          6           0        5.037998   -1.580190   -0.580489
     24          6           0       -5.122532    0.765468    0.203721
     25          6           0        2.652893   -0.990891    0.323563
     26          6           0        1.584840   -3.747289    1.740374
     27          6           0        4.383592   -3.697252   -1.388409
     28          6           0       -2.016432   -4.433267    1.078024
     29          6           0       -5.376590   -0.196459   -0.917701
     30          6           0       -4.484277    3.777132   -0.450139
     31          6           0       -1.352676    4.167921   -0.278989
     32          6           0        6.895710   -3.383477   -1.074676
     33          6           0        5.771329   -0.533799   -0.087685
     34          6           0        0.127780    4.010332   -0.342349
     35          6           0        1.091093    5.141121   -0.452277
     36          6           0        2.277668    4.672564   -0.231238
     37          6           0       -2.997230   -4.069768    0.003700
     38          6           0        5.464458    0.538864    0.850375
     39          6           0       -6.799352   -0.701171   -0.865182
     40          6           0        3.733337    5.210389   -0.243962
     41          6           0        2.136274    3.148267    0.041719
     42          6           0        0.673562    6.616919   -0.870699
     43          6           0        4.111822    5.619943    1.247115
     44          1           0        0.242497    0.279257   -0.040455
     45          1           0       -3.199804   -1.182546    1.240936
     46          1           0       -2.589169   -3.010508    2.539691
     47          1           0       -1.065595   -3.984949    2.994758
     48          1           0        5.240327   -2.554960   -2.512676
     49          1           0       -5.247501    0.255561    1.270149
     50          1           0       -5.867431    1.386639    0.495181
     51          1           0        2.815512    0.204264    0.521170
     52          1           0       -0.428273    1.814701    0.356067
     53          1           0        1.521347   -4.467110    0.944967
     54          1           0        2.496651   -3.430700    2.026495
     55          1           0        0.939819   -4.085039    2.647159
     56          1           0        2.330051   -3.327576   -0.863397
     57          1           0       -1.222511   -4.871613    0.662377
     58          1           0       -2.510931   -5.371618    1.611036
     59          1           0       -4.896094   -1.198267   -0.932157
     60          1           0       -5.460215    0.348329   -1.853039
     61          1           0       -4.605261    4.664242    0.487291
     62          1           0       -5.671198    3.541794   -0.500292
     63          1           0       -4.396305    4.281444   -1.449913
     64          1           0       -1.705815    5.074685   -0.698042
     65          1           0        7.495938   -2.695221   -1.346909
     66          1           0        7.065710   -4.374636   -1.501392
     67          1           0        6.995749   -3.476320    0.087897
     68          1           0        6.847289   -0.697350   -0.228153
     69          1           0        5.091170    1.414810    0.269240
     70          1           0        6.321617    1.013803    1.371792
     71          1           0        4.491022    0.331248    1.517763
     72          1           0        3.769462    6.127824   -0.912120
     73          1           0        4.240342    4.323406   -0.620464
     74          1           0       -0.040420    6.486966   -1.786470
     75          1           0        1.710392    7.130165   -1.027041
     76          1           0        0.122864    7.337893   -0.110351
     77          1           0        3.301117    6.335140    1.684227
     78          1           0        5.230572    6.135095    1.287376
     79          1           0        4.472207    4.713627    1.718882
     80          1           0       -3.549378   -4.470571   -1.761903
     81          1           0       -7.816900   -1.798956   -1.444317
 ---------------------------------------------------------------------

 SCF Done:  E(RB3LYP) =  -1949.05275770     A.U. after   17 cycles

 Excitation energies and oscillator strengths:

 Excited State   1:      Singlet-A      1.6350 eV  758.33 nm  f=0.3347  <S**2>=0.000
     156 ->157         0.71434
     156 <-157        -0.14345
 This state for optimization and/or second-order correction.
 Total Energy, E(TD-HF/TD-DFT) =  -1948.99267404
 Copying the excited state density for this state as the 1-particle RhoCI density.

 The electronic state is 1-A.
 Alpha  occ. eigenvalues --  -19.20435 -19.19449 -19.13626 -19.12789 -19.12538
 Alpha  occ. eigenvalues --  -19.10419 -14.36328 -14.35406 -14.34322 -14.28856
 Alpha  occ. eigenvalues --  -10.33067 -10.32716 -10.30260 -10.26145 -10.23977
 Alpha  occ. eigenvalues --  -10.23690 -10.23543 -10.23220 -10.22745 -10.22600
 Alpha  occ. eigenvalues --  -10.22505 -10.22419 -10.21697 -10.21597 -10.21292
 Alpha  occ. eigenvalues --  -10.21274 -10.20543 -10.20383 -10.20248 -10.20107
 Alpha  occ. eigenvalues --  -10.19847 -10.19733 -10.19674 -10.19587 -10.19552
 Alpha  occ. eigenvalues --  -10.19401 -10.19203 -10.19189 -10.19174 -10.19119
 Alpha  occ. eigenvalues --  -10.18806 -10.18413 -10.18358  -1.13832  -1.11970
 Alpha  occ. eigenvalues --   -1.03607  -1.02077  -1.01433  -1.00400  -0.95812
 Alpha  occ. eigenvalues --   -0.94464  -0.93608  -0.91275  -0.82933  -0.81812
 Alpha  occ. eigenvalues --   -0.81351  -0.80460  -0.78924  -0.78835  -0.78044
 Alpha  occ. eigenvalues --   -0.77074  -0.76113  -0.74134  -0.73255  -0.71997
 Alpha  occ. eigenvalues --   -0.70991  -0.70962  -0.69012  -0.67806  -0.67445
 Alpha  occ. eigenvalues --   -0.66642  -0.65674  -0.64268  -0.62111  -0.61910
 Alpha  occ. eigenvalues --   -0.60517  -0.58481  -0.57836  -0.56317  -0.55952
 Alpha  occ. eigenvalues --   -0.55017  -0.54440  -0.54231  -0.53386  -0.52392
 Alpha  occ. eigenvalues --   -0.52070  -0.51402  -0.51242  -0.50729  -0.50190
 Alpha  occ. eigenvalues --   -0.49792  -0.49468  -0.48980  -0.48413  -0.47632
 Alpha  occ. eigenvalues --   -0.46998  -0.46463  -0.45815  -0.45463  -0.45118
 Alpha  occ. eigenvalues --   -0.44561  -0.44319  -0.44224  -0.43856  -0.43644
 Alpha  occ. eigenvalues --   -0.43204  -0.42991  -0.42634  -0.42388  -0.42039
 Alpha  occ. eigenvalues --   -0.41938  -0.41364  -0.41239  -0.40944  -0.40595
 Alpha  occ. eigenvalues --   -0.40278  -0.39957  -0.39865  -0.39598  -0.39232
 Alpha  occ. eigenvalues --   -0.39125  -0.38819  -0.38641  -0.38339  -0.38062
 Alpha  occ. eigenvalues --   -0.37534  -0.37228  -0.37003  -0.36605  -0.36125
 Alpha  occ. eigenvalues --   -0.35941  -0.35843  -0.35381  -0.35094  -0.34831
 Alpha  occ. eigenvalues --   -0.34385  -0.33547  -0.33300  -0.33238  -0.33117
 Alpha  occ. eigenvalues --   -0.32624  -0.32089  -0.31543  -0.29361  -0.28775
 Alpha  occ. eigenvalues --   -0.28168  -0.27272  -0.27201  -0.26269  -0.25102
 Alpha  occ. eigenvalues --   -0.24917  -0.24330  -0.24144  -0.23059  -0.21287
 Alpha  occ. eigenvalues --   -0.17029
 Alpha virt. eigenvalues --   -0.10623  -0.05777  -0.04194  -0.00807  -0.00380
 Alpha virt. eigenvalues --   -0.00261   0.02038   0.02702   0.03602   0.03945
 Alpha virt. eigenvalues --    0.04213   0.04904   0.05032   0.06175   0.06345

 Mulliken charges:
               1
     1  O   -0.198323
     2  O   -0.118493
     3  O   -0.128097
     4  O   -0.240915
     5  O   -0.273290
     6  O   -0.211013
     7  N   -0.170808
     8  N   -0.227716
     9  N   -0.232747
    10  N   -0.295762
    11  C   -0.079734
    12  C    0.068137
    13  C   -0.235287
    14  C    0.082975
    15  C   -0.093613
    16  C    0.122322
    17  C   -0.085457
    18  C   -0.007813
    19  C    0.089816
    20  C   -0.024616
    21  C    0.119855
    22  C    0.116808
    23  C   -0.024951
    24  C    0.091243
    25  C   -0.208419
    26  C    0.220100
    27  C    0.099329
    28  C    0.026466
    29  C    0.097795
    30  C   -0.078207
    31  C   -0.046415
    32  C    0.119421
    33  C   -0.134591
    34  C    0.039828
    35  C   -0.083021
    36  C   -0.201002
    37  C    0.086872
    38  C    0.050512
    39  C    0.110392
    40  C    0.075479
    41  C    0.139643
    42  C   -0.004966
    43  C   -0.041841
    44  H    0.155484
    45  H    0.058819
    46  H    0.035762
    47  H    0.017153
    48  H    0.062334
    49  H    0.007386
    50  H   -0.029160
    51  H    0.098709
    52  H    0.193502
    53  H    0.016946
    54  H   -0.002639
    55  H    0.006882
    56  H    0.138506
    57  H   -0.025512
    58  H    0.045728
    59  H    0.061616
    60  H    0.025787
    61  H    0.041502
    62  H    0.023025
    63  H    0.042058
    64  H   -0.032311
    65  H   -0.022361
    66  H    0.044505
    67  H    0.033465
    68  H   -0.013854
    69  H    0.056065
    70  H    0.012276
    71  H    0.060383
    72  H    0.012570
    73  H    0.022846
    74  H    0.047740
    75  H    0.032546
    76  H    0.048628
    77  H    0.053674
    78  H    0.009647
    79  H    0.028728
    80  H    0.208593
    81  H    0.113073
 Sum of Mulliken charges =  -0.00000

 Dipole moment (field-independent basis, Debye):
    X=             -0.4992    Y=             -0.9745    Z=             -1.6869  Tot=              2.0111
 Quadrupole moment (field-independent basis, Debye-Ang):
   XX=           -244.5087   YY=           -241.9786   ZZ=           -253.1539
   XY=             14.3163   XZ=             11.6645   YZ=            -10.5541

 Normal termination of Gaussian 16 at Mon Jul  1 10:59:37 2019.
