 Gaussian 16, Revision A.03,
 Gaussian 16:  ES64L-G16RevA.03 25-Dec-2016

 --------------------------
 # td=(NStates=1) B3LYP/SVP
 --------------------------

 --
 TD
 --
 Symbolic Z-matrix:
 Charge =  0 Multiplicity = 1

                         Standard orientation:
 ---------------------------------------------------------------------
 Center     Atomic      Atomic             Coordinates (Angstroms)
 Number     Number       Type             X           Y           Z
 ---------------------------------------------------------------------
      1          8           0        4.113838   -4.883982   -1.884323
      2          8           0       -3.150039   -4.677832   -1.144863
      3          8           0       -7.174114   -1.470081   -1.837755
      4          8           0       -4.007988   -3.148331    0.292857
      5          8           0       -7.491086   -0.527325    0.176210
      6          8           0        3.040482    2.199400    0.464280
      7          7           0        0.271588   -0.498227    0.462005
      8          7           0       -1.555533    1.873685    0.341494
      9          7           0        3.237208   -3.055207   -0.700378
     10          7           0        0.812965    2.862067    0.133350
     11          6           0       -0.617851   -2.284198    1.389008
     12          6           0       -0.933054   -0.953047    0.930461
     13          6           0        0.745788   -2.603592    1.234394
     14          6           0        1.321949   -1.376763    0.646032
     15          6           0       -3.721116    1.581127    0.266306
     16          6           0       -2.459889    0.970879    0.459512
     17          6           0       -2.248579   -0.404344    0.843925
     18          6           0       -3.427154    2.968399   -0.116498
     19          6           0       -1.668091   -3.271465    1.921472
     20          6           0        5.572496   -2.925341   -1.303901
     21          6           0        3.580660   -1.835552   -0.104574
     22          6           0       -2.018340    3.124427   -0.033117
     23          6           0        4.999949   -1.675319   -0.512662
     24          6           0       -5.086103    0.775815    0.311891
     25          6           0        2.601903   -1.013060    0.415286
     26          6           0        1.438240   -3.790387    1.787157
     27          6           0        4.259792   -3.814456   -1.382455
     28          6           0       -2.211741   -4.409923    0.992755
     29          6           0       -5.360546   -0.149371   -0.867558
     30          6           0       -4.429894    3.943402   -0.545292
     31          6           0       -1.127110    4.163833   -0.281908
     32          6           0        6.771239   -3.656365   -0.692232
     33          6           0        5.834080   -0.648444   -0.209842
     34          6           0        0.204960    3.993065   -0.249367
     35          6           0        1.240574    5.088403   -0.523650
     36          6           0        2.407811    4.545932   -0.254285
     37          6           0       -3.253652   -4.005056    0.013739
     38          6           0        5.585523    0.560530    0.666046
     39          6           0       -6.763584   -0.672910   -0.765142
     40          6           0        3.704242    5.267685   -0.230197
     41          6           0        2.205444    3.145135    0.183272
     42          6           0        0.732567    6.528314   -0.831232
     43          6           0        4.355795    5.322511    1.121156
     44          1           0        0.505261    0.264187   -0.108796
     45          1           0       -3.138942   -1.040409    1.000749
     46          1           0       -2.679074   -2.789293    2.419515
     47          1           0       -1.387862   -3.800381    2.815312
     48          1           0        5.802973   -2.724504   -2.411026
     49          1           0       -4.961095    0.217764    1.296437
     50          1           0       -5.951636    1.562624    0.344980
     51          1           0        2.880510    0.107858    0.732176
     52          1           0       -0.394567    1.966116    0.601736
     53          1           0        2.012160   -4.669232    0.974864
     54          1           0        2.422757   -3.423398    2.070894
     55          1           0        0.811728   -4.555249    2.454270
     56          1           0        2.191413   -3.300002   -0.878608
     57          1           0       -1.247319   -4.654334    0.344330
     58          1           0       -2.656448   -5.187998    1.398494
     59          1           0       -4.480570   -0.916530   -1.012303
     60          1           0       -5.333020    0.256343   -1.788582
     61          1           0       -4.438987    4.871793   -0.018391
     62          1           0       -5.446934    3.693534   -0.509414
     63          1           0       -4.227248    4.239165   -1.662001
     64          1           0       -1.710294    5.016905   -0.907266
     65          1           0        7.874053   -3.299517   -0.938211
     66          1           0        6.987239   -4.604009   -1.291824
     67          1           0        6.407603   -3.758159    0.341423
     68          1           0        6.871601   -0.669757   -0.793556
     69          1           0        5.276879    1.461422    0.138241
     70          1           0        6.498518    0.774755    1.175975
     71          1           0        4.727428    0.453254    1.294973
     72          1           0        3.589355    6.217105   -0.774769
     73          1           0        4.435900    4.766420   -0.866911
     74          1           0        0.297123    6.701420   -1.840614
     75          1           0        1.758548    7.204304   -0.886306
     76          1           0        0.311707    6.798035    0.098318
     77          1           0        3.326706    5.694608    1.706926
     78          1           0        5.196531    5.976391    1.081308
     79          1           0        4.461839    4.229798    1.400292
     80          1           0       -3.949527   -4.309480   -1.475960
     81          1           0       -8.074481   -1.921755   -1.384206
 ---------------------------------------------------------------------

 SCF Done:  E(RB3LYP) =  -1949.07706137     A.U. after   17 cycles

 Excitation energies and oscillator strengths:

 Excited State   1:      Singlet-A      1.7193 eV  721.14 nm  f=0.3642  <S**2>=0.000
     156 ->157         0.71301
     156 <-157        -0.14256
 This state for optimization and/or second-order correction.
 Total Energy, E(TD-HF/TD-DFT) =  -1949.01387906
 Copying the excited state density for this state as the 1-particle RhoCI density.

 The electronic state is 1-A.
 Alpha  occ. eigenvalues --  -19.20319 -19.17911 -19.14850 -19.12983 -19.12842
 Alpha  occ. eigenvalues --  -19.10184 -14.38127 -14.37711 -14.33815 -14.29383
 Alpha  occ. eigenvalues --  -10.32889 -10.31821 -10.30501 -10.27207 -10.25731
 Alpha  occ. eigenvalues --  -10.24388 -10.24193 -10.22441 -10.22408 -10.22376
 Alpha  occ. eigenvalues --  -10.22273 -10.22058 -10.21678 -10.21665 -10.21355
 Alpha  occ. eigenvalues --  -10.21353 -10.21070 -10.21013 -10.20977 -10.20834
 Alpha  occ. eigenvalues --  -10.20689 -10.20686 -10.20553 -10.19940 -10.19805
 Alpha  occ. eigenvalues --  -10.19535 -10.19255 -10.18913 -10.18778 -10.18546
 Alpha  occ. eigenvalues --  -10.18476 -10.17920 -10.17263  -1.13779  -1.08196
 Alpha  occ. eigenvalues --   -1.05325  -1.04959  -0.99270  -0.98895  -0.98357
 Alpha  occ. eigenvalues --   -0.97737  -0.94737  -0.91299  -0.82175  -0.81695
 Alpha  occ. eigenvalues --   -0.80922  -0.80620  -0.80098  -0.79344  -0.78363
 Alpha  occ. eigenvalues --   -0.76955  -0.76559  -0.75211  -0.74587  -0.72246
 Alpha  occ. eigenvalues --   -0.70671  -0.69935  -0.69370  -0.68582  -0.67674
 Alpha  occ. eigenvalues --   -0.66331  -0.65273  -0.64018  -0.62065  -0.60653
 Alpha  occ. eigenvalues --   -0.60517  -0.59203  -0.57373  -0.56979  -0.56737
 Alpha  occ. eigenvalues --   -0.55689  -0.55519  -0.54562  -0.52918  -0.52472
 Alpha  occ. eigenvalues --   -0.52237  -0.51649  -0.51302  -0.50941  -0.50273
 Alpha  occ. eigenvalues --   -0.49720  -0.49388  -0.48637  -0.48251  -0.47512
 Alpha  occ. eigenvalues --   -0.47455  -0.46737  -0.46511  -0.45679  -0.45520
 Alpha  occ. eigenvalues --   -0.44787  -0.44592  -0.44441  -0.44238  -0.44105
 Alpha  occ. eigenvalues --   -0.43879  -0.43265  -0.43007  -0.42599  -0.42379
 Alpha  occ. eigenvalues --   -0.42212  -0.41943  -0.41420  -0.41275  -0.40989
 Alpha  occ. eigenvalues --   -0.40789  -0.40592  -0.40068  -0.39902  -0.39842
 Alpha  occ. eigenvalues --   -0.39472  -0.39021  -0.38520  -0.38154  -0.37574
 Alpha  occ. eigenvalues --   -0.37373  -0.37057  -0.36737  -0.36403  -0.36101
 Alpha  occ. eigenvalues --   -0.35985  -0.35650  -0.35587  -0.35272  -0.35071
 Alpha  occ. eigenvalues --   -0.34617  -0.33967  -0.33884  -0.33372  -0.33286
 Alpha  occ. eigenvalues --   -0.32757  -0.31867  -0.30890  -0.29744  -0.29412
 Alpha  occ. eigenvalues --   -0.28440  -0.27142  -0.26956  -0.26657  -0.25904
 Alpha  occ. eigenvalues --   -0.25363  -0.24665  -0.24259  -0.23160  -0.21962
 Alpha  occ. eigenvalues --   -0.17685
 Alpha virt. eigenvalues --   -0.11016  -0.05925  -0.04375  -0.01018  -0.00824
 Alpha virt. eigenvalues --    0.00069   0.01760   0.02612   0.03043   0.04051
 Alpha virt. eigenvalues --    0.04150   0.04828   0.04959   0.05391   0.05545

 Mulliken charges:
               1
     1  O   -0.164410
     2  O   -0.131683
     3  O   -0.290748
     4  O   -0.197553
     5  O   -0.217106
     6  O   -0.299158
     7  N   -0.035782
     8  N   -0.122846
     9  N   -0.226703
    10  N   -0.321047
    11  C   -0.088342
    12  C    0.120975
    13  C   -0.079910
    14  C    0.049675
    15  C   -0.134509
    16  C    0.038067
    17  C   -0.083651
    18  C   -0.104231
    19  C    0.027937
    20  C   -0.084941
    21  C    0.158926
    22  C    0.037512
    23  C   -0.054122
    24  C    0.060126
    25  C   -0.204328
    26  C   -0.008089
    27  C    0.151679
    28  C    0.053361
    29  C    0.061048
    30  C    0.103038
    31  C   -0.149229
    32  C    0.023581
    33  C   -0.165135
    34  C    0.095167
    35  C   -0.105365
    36  C   -0.187023
    37  C    0.087284
    38  C    0.117096
    39  C    0.159216
    40  C    0.101531
    41  C    0.205719
    42  C    0.102603
    43  C   -0.031495
    44  H    0.121114
    45  H    0.038135
    46  H    0.026911
    47  H   -0.003864
    48  H    0.047442
    49  H    0.044414
    50  H    0.031693
    51  H    0.103670
    52  H    0.215341
    53  H    0.024729
    54  H    0.026594
    55  H    0.056996
    56  H    0.170303
    57  H    0.048966
    58  H   -0.007090
    59  H    0.055483
    60  H   -0.015491
    61  H    0.004649
    62  H   -0.015966
    63  H    0.021263
    64  H    0.020185
    65  H    0.030428
    66  H    0.029330
    67  H    0.037777
    68  H    0.020408
    69  H    0.048203
    70  H    0.005271
    71  H    0.014899
    72  H   -0.018683
    73  H   -0.015433
    74  H    0.050312
    75  H    0.012456
    76  H    0.034421
    77  H    0.017825
    78  H    0.023109
    79  H    0.053346
    80  H    0.145335
    81  H    0.228384
 Sum of Mulliken charges =  -0.00000

 Dipole moment (field-independent basis, Debye):
    X=             -0.5066    Y=             -0.2534    Z=             -1.3556  Tot=              1.4692
 Quadrupole moment (field-independent basis, Debye-Ang):
   XX=           -244.6249   YY=           -241.9690   ZZ=           -258.6794
   XY=             12.9416   XZ=              6.2292   YZ=            -15.7057

 Normal termination of Gaussian 16 at Tue Jul  2 09:13:15 2019.
