 Gaussian 16, Revision A.03,
 Gaussian 16:  ES64L-G16RevA.03 25-Dec-2016

 --------------------------
 # td=(NStates=1) B3LYP/SVP
 --------------------------

 --
 TD
 --
 Symbolic Z-matrix:
 Charge =  0 Multiplicity = 1

                         Standard orientation:
 ---------------------------------------------------------------------
 Center     Atomic      Atomic             Coordinates (Angstroms)
 Number     Number       Type             X           Y           Z
 ---------------------------------------------------------------------
      1          8           0        4.271459   -4.840975   -1.889107
      2          8           0       -3.098497   -4.569294   -1.192324
      3          8           0       -6.931038   -1.700028   -1.789137
      4          8           0       -3.946960   -2.969076    0.058477
      5          8           0       -7.647638   -0.602282    0.053138
      6          8           0        3.063509    2.344517    0.330478
      7          7           0        0.212516   -0.496313    0.444070
      8          7           0       -1.537261    1.873326    0.354213
      9          7           0        3.317092   -3.265945   -0.584983
     10          7           0        0.848026    2.877308    0.130740
     11          6           0       -0.677606   -2.316160    1.412253
     12          6           0       -0.969432   -1.037534    0.972624
     13          6           0        0.719394   -2.564271    1.220100
     14          6           0        1.329529   -1.411846    0.644274
     15          6           0       -3.832461    1.498782    0.353995
     16          6           0       -2.477596    0.911526    0.584497
     17          6           0       -2.255346   -0.442715    0.929439
     18          6           0       -3.566247    2.766149   -0.090076
     19          6           0       -1.766279   -3.249107    2.015123
     20          6           0        5.529410   -2.908726   -1.299762
     21          6           0        3.632462   -1.917833   -0.199754
     22          6           0       -2.070904    2.995844    0.015223
     23          6           0        5.027032   -1.715258   -0.305493
     24          6           0       -5.142279    0.859543    0.370431
     25          6           0        2.675783   -1.074101    0.301259
     26          6           0        1.554204   -3.683264    1.724212
     27          6           0        4.307249   -3.767969   -1.355081
     28          6           0       -2.272575   -4.356632    1.043632
     29          6           0       -5.450137   -0.057902   -0.924533
     30          6           0       -4.390564    3.997849   -0.457748
     31          6           0       -1.280274    4.160428   -0.277523
     32          6           0        6.770195   -3.603995   -0.776839
     33          6           0        5.729937   -0.622896   -0.060550
     34          6           0        0.204361    4.040904   -0.162654
     35          6           0        1.183542    5.126525   -0.629797
     36          6           0        2.445988    4.604306   -0.338823
     37          6           0       -3.234947   -3.868399   -0.044457
     38          6           0        5.488245    0.497947    0.916391
     39          6           0       -6.789370   -0.816129   -0.779144
     40          6           0        3.769157    5.239884   -0.378513
     41          6           0        2.206030    3.104893    0.006341
     42          6           0        0.695288    6.431009   -0.802502
     43          6           0        4.419269    5.407760    1.038290
     44          1           0        0.411342    0.307914   -0.089942
     45          1           0       -3.085088   -1.060901    1.232122
     46          1           0       -2.622025   -2.630245    2.364757
     47          1           0       -1.226615   -3.809400    2.857811
     48          1           0        5.692556   -2.350703   -2.280820
     49          1           0       -5.187485    0.226086    1.336822
     50          1           0       -5.855091    1.612392    0.416846
     51          1           0        2.854963    0.027907    0.366006
     52          1           0       -0.530185    1.909908    0.541403
     53          1           0        1.690866   -4.634092    1.162269
     54          1           0        2.500957   -3.422345    2.103784
     55          1           0        0.850302   -4.054320    2.655508
     56          1           0        2.315340   -3.661165   -0.671612
     57          1           0       -1.357095   -4.837402    0.384900
     58          1           0       -2.727092   -5.089117    1.569734
     59          1           0       -4.624783   -0.781036   -1.008684
     60          1           0       -5.356255    0.509945   -1.807875
     61          1           0       -4.445312    4.913024    0.370206
     62          1           0       -5.341950    3.601240   -0.585761
     63          1           0       -3.992638    4.625230   -1.505221
     64          1           0       -1.760694    5.107782   -0.736796
     65          1           0        7.693574   -2.942671   -1.041426
     66          1           0        6.936395   -4.519391   -1.734003
     67          1           0        6.559055   -3.918603    0.223935
     68          1           0        6.895961   -0.801687   -0.237861
     69          1           0        5.151874    1.301844    0.221288
     70          1           0        6.413768    0.908756    1.663538
     71          1           0        4.752611    0.106666    1.435524
     72          1           0        3.709757    6.074551   -0.936166
     73          1           0        4.600941    4.532567   -0.994334
     74          1           0        0.192141    6.744182   -1.773052
     75          1           0        1.583623    7.154223   -1.000862
     76          1           0        0.126859    6.825902    0.247994
     77          1           0        4.242318    6.640952    1.485445
     78          1           0        5.542610    5.312828    0.656566
     79          1           0        4.187362    4.547105    1.614252
     80          1           0       -3.659263   -4.094217   -1.875742
     81          1           0       -7.769228   -1.976927   -1.600022
 ---------------------------------------------------------------------

 SCF Done:  E(RB3LYP) =  -1949.06800067     A.U. after   16 cycles

 Excitation energies and oscillator strengths:

 Excited State   1:      Singlet-A      1.8709 eV  662.71 nm  f=0.3258  <S**2>=0.000
     156 ->157         0.70556
     156 <-157        -0.10165
 This state for optimization and/or second-order correction.
 Total Energy, E(TD-HF/TD-DFT) =  -1948.99924765
 Copying the excited state density for this state as the 1-particle RhoCI density.

 The electronic state is 1-A.
 Alpha  occ. eigenvalues --  -19.19016 -19.18889 -19.14562 -19.13745 -19.11079
 Alpha  occ. eigenvalues --  -19.09790 -14.37002 -14.36717 -14.36655 -14.29481
 Alpha  occ. eigenvalues --  -10.33013 -10.32802 -10.27848 -10.26990 -10.24217
 Alpha  occ. eigenvalues --  -10.24163 -10.24123 -10.24109 -10.23240 -10.22968
 Alpha  occ. eigenvalues --  -10.22138 -10.22124 -10.21760 -10.21505 -10.21194
 Alpha  occ. eigenvalues --  -10.21173 -10.21040 -10.20865 -10.20784 -10.20713
 Alpha  occ. eigenvalues --  -10.20654 -10.20650 -10.20231 -10.20099 -10.20091
 Alpha  occ. eigenvalues --  -10.19954 -10.19846 -10.19692 -10.19634 -10.19614
 Alpha  occ. eigenvalues --  -10.19463 -10.18993 -10.18112  -1.12542  -1.12075
 Alpha  occ. eigenvalues --   -1.03802  -1.03633  -1.03338  -1.01890  -1.00591
 Alpha  occ. eigenvalues --   -0.95803  -0.94580  -0.91304  -0.83007  -0.81706
 Alpha  occ. eigenvalues --   -0.81416  -0.80748  -0.80174  -0.78454  -0.77391
 Alpha  occ. eigenvalues --   -0.77049  -0.76333  -0.75656  -0.74305  -0.71950
 Alpha  occ. eigenvalues --   -0.70970  -0.69613  -0.68716  -0.68039  -0.67877
 Alpha  occ. eigenvalues --   -0.66687  -0.64779  -0.64219  -0.61846  -0.61463
 Alpha  occ. eigenvalues --   -0.60632  -0.60244  -0.58863  -0.57100  -0.57008
 Alpha  occ. eigenvalues --   -0.55966  -0.55542  -0.54676  -0.53387  -0.52793
 Alpha  occ. eigenvalues --   -0.52306  -0.51424  -0.50747  -0.50453  -0.50070
 Alpha  occ. eigenvalues --   -0.49778  -0.49556  -0.49008  -0.48817  -0.48174
 Alpha  occ. eigenvalues --   -0.47210  -0.46943  -0.46051  -0.45674  -0.45181
 Alpha  occ. eigenvalues --   -0.44804  -0.44585  -0.44198  -0.43874  -0.43808
 Alpha  occ. eigenvalues --   -0.43589  -0.43187  -0.43129  -0.42452  -0.42315
 Alpha  occ. eigenvalues --   -0.42164  -0.41750  -0.41143  -0.41072  -0.40704
 Alpha  occ. eigenvalues --   -0.40557  -0.40411  -0.39997  -0.39865  -0.39676
 Alpha  occ. eigenvalues --   -0.39304  -0.39211  -0.39089  -0.38971  -0.38458
 Alpha  occ. eigenvalues --   -0.38213  -0.37719  -0.37231  -0.37174  -0.36659
 Alpha  occ. eigenvalues --   -0.36619  -0.36445  -0.35706  -0.35338  -0.35099
 Alpha  occ. eigenvalues --   -0.34528  -0.34121  -0.33688  -0.33467  -0.32936
 Alpha  occ. eigenvalues --   -0.32562  -0.31665  -0.30008  -0.29862  -0.29755
 Alpha  occ. eigenvalues --   -0.29256  -0.28074  -0.26636  -0.26149  -0.25261
 Alpha  occ. eigenvalues --   -0.25132  -0.24822  -0.24456  -0.23297  -0.21680
 Alpha  occ. eigenvalues --   -0.17853
 Alpha virt. eigenvalues --   -0.10230  -0.06473  -0.04419  -0.00687   0.00214
 Alpha virt. eigenvalues --    0.00613   0.01509   0.02426   0.03135   0.03638
 Alpha virt. eigenvalues --    0.03840   0.04193   0.04373   0.04825   0.05354

 Mulliken charges:
               1
     1  O   -0.198582
     2  O   -0.202200
     3  O   -0.125899
     4  O   -0.165281
     5  O   -0.230259
     6  O   -0.179358
     7  N   -0.139176
     8  N    0.027954
     9  N   -0.140948
    10  N   -0.308549
    11  C   -0.117579
    12  C    0.114643
    13  C   -0.153135
    14  C    0.066822
    15  C   -0.104584
    16  C    0.069523
    17  C   -0.067943
    18  C   -0.110160
    19  C    0.084644
    20  C   -0.106630
    21  C    0.129407
    22  C    0.024634
    23  C    0.001744
    24  C    0.117181
    25  C   -0.140456
    26  C    0.046705
    27  C    0.100219
    28  C    0.016691
    29  C    0.011755
    30  C    0.007015
    31  C   -0.111198
    32  C    0.009121
    33  C   -0.202497
    34  C    0.035022
    35  C   -0.060946
    36  C   -0.150768
    37  C    0.100104
    38  C    0.089257
    39  C    0.155527
    40  C    0.048997
    41  C    0.148618
    42  C   -0.000300
    43  C   -0.035585
    44  H    0.113142
    45  H   -0.004375
    46  H    0.027237
    47  H    0.019613
    48  H    0.053752
    49  H    0.032888
    50  H   -0.006024
    51  H    0.032419
    52  H    0.134316
    53  H    0.026269
    54  H    0.022615
    55  H    0.009978
    56  H    0.168688
    57  H    0.059270
    58  H    0.013052
    59  H    0.034823
    60  H    0.021104
    61  H    0.059013
    62  H   -0.000550
    63  H    0.049284
    64  H    0.015244
    65  H    0.043171
    66  H    0.049298
    67  H    0.031472
    68  H    0.012012
    69  H    0.063757
    70  H    0.042104
    71  H   -0.008380
    72  H   -0.035793
    73  H    0.029321
    74  H    0.031754
    75  H    0.004832
    76  H    0.068263
    77  H    0.045435
    78  H    0.026771
    79  H    0.036913
    80  H    0.195021
    81  H    0.128744
 Sum of Mulliken charges =  -0.00000

 Dipole moment (field-independent basis, Debye):
    X=             -2.7212    Y=              1.9271    Z=             -0.9533  Tot=              3.4680
 Quadrupole moment (field-independent basis, Debye-Ang):
   XX=           -255.4183   YY=           -247.5009   ZZ=           -255.0780
   XY=             18.9576   XZ=             13.2924   YZ=            -16.3492

 Normal termination of Gaussian 16 at Wed Jul  3 04:29:39 2019.
