 Gaussian 16, Revision A.03,
 Gaussian 16:  ES64L-G16RevA.03 25-Dec-2016

 --------------------------
 # td=(NStates=1) B3LYP/SVP
 --------------------------

 --
 TD
 --
 Symbolic Z-matrix:
 Charge =  0 Multiplicity = 1

                         Standard orientation:
 ---------------------------------------------------------------------
 Center     Atomic      Atomic             Coordinates (Angstroms)
 Number     Number       Type             X           Y           Z
 ---------------------------------------------------------------------
      1          8           0        4.217532   -5.082889   -1.551341
      2          8           0       -2.764521   -4.607624   -1.347273
      3          8           0       -7.044082   -1.426237   -1.948435
      4          8           0       -3.978660   -3.080722    0.068243
      5          8           0       -7.509790   -0.605348    0.180624
      6          8           0        3.140327    2.368431    0.478486
      7          7           0        0.208775   -0.530500    0.547765
      8          7           0       -1.577925    1.771322    0.330228
      9          7           0        3.200232   -3.117304   -0.589540
     10          7           0        0.906537    2.841925   -0.005789
     11          6           0       -0.631953   -2.400682    1.392058
     12          6           0       -0.949245   -1.170988    0.951869
     13          6           0        0.754545   -2.640442    1.291042
     14          6           0        1.278532   -1.406465    0.753779
     15          6           0       -3.760504    1.529637    0.343075
     16          6           0       -2.486510    0.875604    0.478110
     17          6           0       -2.279539   -0.514157    0.846669
     18          6           0       -3.462640    2.842568   -0.057875
     19          6           0       -1.759229   -3.315363    1.958948
     20          6           0        5.464806   -2.815147   -1.413367
     21          6           0        3.526751   -1.842530   -0.283241
     22          6           0       -2.040962    2.926430   -0.091289
     23          6           0        4.962900   -1.608545   -0.552127
     24          6           0       -5.172545    0.848349    0.325006
     25          6           0        2.594357   -1.026201    0.451000
     26          6           0        1.414709   -3.765193    1.871203
     27          6           0        4.179895   -3.822809   -1.244021
     28          6           0       -2.207524   -4.405450    1.101188
     29          6           0       -5.448252    0.055682   -0.911587
     30          6           0       -4.396061    3.968951   -0.461674
     31          6           0       -1.163805    4.047006   -0.223498
     32          6           0        6.754990   -3.448614   -0.973855
     33          6           0        5.759321   -0.556736   -0.178887
     34          6           0        0.215433    3.947691   -0.287978
     35          6           0        1.147004    5.101849   -0.439730
     36          6           0        2.366537    4.652286   -0.331032
     37          6           0       -3.034474   -3.961939   -0.141110
     38          6           0        5.548443    0.646716    0.707301
     39          6           0       -6.764882   -0.656997   -0.762603
     40          6           0        3.783731    5.188575   -0.332564
     41          6           0        2.233076    3.202192    0.019195
     42          6           0        0.685409    6.542628   -0.705979
     43          6           0        4.333672    5.367313    1.057111
     44          1           0        0.440335    0.135470   -0.139052
     45          1           0       -3.022108   -1.232676    1.257344
     46          1           0       -2.494548   -2.562819    2.191301
     47          1           0       -1.700198   -3.531035    2.981110
     48          1           0        5.421199   -2.687967   -2.477149
     49          1           0       -5.335389    0.329678    1.379610
     50          1           0       -6.010738    1.511061    0.546550
     51          1           0        2.797201    0.172178    0.418581
     52          1           0       -0.616343    1.509615    0.766362
     53          1           0        1.334461   -4.524926    1.069305
     54          1           0        2.609555   -3.688336    2.122576
     55          1           0        0.943604   -4.107043    2.909845
     56          1           0        2.314964   -3.397294   -0.487266
     57          1           0       -1.246167   -4.969849    0.666179
     58          1           0       -2.798621   -5.242267    1.677409
     59          1           0       -4.488734   -0.587550   -1.107832
     60          1           0       -5.552619    0.712840   -1.882376
     61          1           0       -4.393636    4.785758    0.358429
     62          1           0       -5.388315    3.667582   -0.474525
     63          1           0       -3.899453    4.332620   -1.443782
     64          1           0       -1.873727    4.861405   -0.340120
     65          1           0        7.624175   -3.033705   -1.396034
     66          1           0        6.857467   -4.564804   -1.335967
     67          1           0        7.035457   -3.521431    0.037850
     68          1           0        6.886006   -0.676392   -0.407086
     69          1           0        4.859595    1.525883    0.128373
     70          1           0        6.500249    1.032555    0.959355
     71          1           0        4.973073    0.403306    1.734369
     72          1           0        3.612474    6.324796   -0.622859
     73          1           0        4.464512    4.649164   -1.011657
     74          1           0        0.168792    6.427793   -1.758289
     75          1           0        1.552474    7.122143   -0.933100
     76          1           0        0.075362    7.004493    0.020724
     77          1           0        3.877969    6.198180    1.523522
     78          1           0        5.406819    5.593530    0.963290
     79          1           0        4.260816    4.439974    1.753798
     80          1           0       -3.419263   -4.320961   -1.929351
     81          1           0       -8.102390   -1.685266   -1.671331
 ---------------------------------------------------------------------

 SCF Done:  E(RB3LYP) =  -1949.07912986     A.U. after   20 cycles

 Excitation energies and oscillator strengths:

 Excited State   1:      Singlet-A      1.5869 eV  781.29 nm  f=0.2552  <S**2>=0.000
     156 ->157         0.70738
     156 <-157        -0.12478
 This state for optimization and/or second-order correction.
 Total Energy, E(TD-HF/TD-DFT) =  -1949.02081203
 Copying the excited state density for this state as the 1-particle RhoCI density.

 The electronic state is 1-A.
 Alpha  occ. eigenvalues --  -19.21263 -19.18125 -19.14897 -19.14480 -19.11411
 Alpha  occ. eigenvalues --  -19.09365 -14.38366 -14.37412 -14.37158 -14.27943
 Alpha  occ. eigenvalues --  -10.35425 -10.32673 -10.30248 -10.25673 -10.25411
 Alpha  occ. eigenvalues --  -10.24041 -10.23793 -10.23703 -10.23615 -10.23572
 Alpha  occ. eigenvalues --  -10.22990 -10.22304 -10.22151 -10.21653 -10.21425
 Alpha  occ. eigenvalues --  -10.21035 -10.20888 -10.20854 -10.20848 -10.20647
 Alpha  occ. eigenvalues --  -10.20543 -10.20349 -10.20194 -10.20092 -10.19472
 Alpha  occ. eigenvalues --  -10.19379 -10.19361 -10.19198 -10.18824 -10.18265
 Alpha  occ. eigenvalues --  -10.17990 -10.17897 -10.17007  -1.10201  -1.07742
 Alpha  occ. eigenvalues --   -1.02228  -1.01636  -0.99398  -0.98778  -0.98750
 Alpha  occ. eigenvalues --   -0.97106  -0.95548  -0.90900  -0.83733  -0.81899
 Alpha  occ. eigenvalues --   -0.81474  -0.81086  -0.79947  -0.79416  -0.78488
 Alpha  occ. eigenvalues --   -0.77376  -0.75927  -0.74978  -0.73806  -0.72844
 Alpha  occ. eigenvalues --   -0.71542  -0.70245  -0.69512  -0.69347  -0.68242
 Alpha  occ. eigenvalues --   -0.66975  -0.65812  -0.64123  -0.62814  -0.62077
 Alpha  occ. eigenvalues --   -0.60664  -0.60038  -0.59444  -0.58025  -0.57208
 Alpha  occ. eigenvalues --   -0.56508  -0.55722  -0.54891  -0.54050  -0.53215
 Alpha  occ. eigenvalues --   -0.51823  -0.51459  -0.50864  -0.49943  -0.49640
 Alpha  occ. eigenvalues --   -0.49143  -0.48924  -0.48393  -0.48331  -0.47406
 Alpha  occ. eigenvalues --   -0.47345  -0.46797  -0.46206  -0.45747  -0.45179
 Alpha  occ. eigenvalues --   -0.44824  -0.44646  -0.44147  -0.43890  -0.43225
 Alpha  occ. eigenvalues --   -0.43157  -0.42851  -0.42810  -0.42449  -0.41892
 Alpha  occ. eigenvalues --   -0.41668  -0.41626  -0.41217  -0.41096  -0.40962
 Alpha  occ. eigenvalues --   -0.40527  -0.40426  -0.40141  -0.39992  -0.39778
 Alpha  occ. eigenvalues --   -0.39303  -0.39192  -0.38597  -0.38314  -0.37901
 Alpha  occ. eigenvalues --   -0.37590  -0.37370  -0.37228  -0.36919  -0.36559
 Alpha  occ. eigenvalues --   -0.36238  -0.35712  -0.35642  -0.34441  -0.34315
 Alpha  occ. eigenvalues --   -0.33556  -0.33346  -0.32972  -0.32692  -0.32133
 Alpha  occ. eigenvalues --   -0.32000  -0.31750  -0.31287  -0.29612  -0.29489
 Alpha  occ. eigenvalues --   -0.29180  -0.26839  -0.26320  -0.26266  -0.25785
 Alpha  occ. eigenvalues --   -0.25405  -0.24747  -0.23855  -0.23416  -0.21255
 Alpha  occ. eigenvalues --   -0.17745
 Alpha virt. eigenvalues --   -0.11199  -0.05925  -0.04981  -0.04555  -0.01211
 Alpha virt. eigenvalues --   -0.01044   0.02019   0.02257   0.03143   0.03547
 Alpha virt. eigenvalues --    0.04308   0.04693   0.05020   0.05294   0.06028

 Mulliken charges:
               1
     1  O   -0.284145
     2  O   -0.152678
     3  O   -0.313675
     4  O   -0.306522
     5  O   -0.210323
     6  O   -0.319022
     7  N   -0.086539
     8  N    0.028398
     9  N    0.016214
    10  N   -0.246376
    11  C   -0.121408
    12  C   -0.004733
    13  C   -0.124468
    14  C    0.030315
    15  C   -0.081971
    16  C   -0.009868
    17  C   -0.003263
    18  C   -0.141537
    19  C    0.151646
    20  C   -0.033279
    21  C    0.023006
    22  C   -0.000161
    23  C    0.005894
    24  C    0.049360
    25  C   -0.158945
    26  C   -0.023716
    27  C    0.140957
    28  C    0.022607
    29  C   -0.022697
    30  C    0.107479
    31  C   -0.116342
    32  C    0.060667
    33  C   -0.153882
    34  C    0.136260
    35  C   -0.146722
    36  C   -0.137342
    37  C    0.185427
    38  C   -0.015519
    39  C    0.202794
    40  C    0.071733
    41  C    0.159705
    42  C    0.135244
    43  C    0.005449
    44  H    0.134684
    45  H    0.031640
    46  H   -0.025679
    47  H   -0.017791
    48  H    0.034320
    49  H    0.034721
    50  H   -0.005927
    51  H    0.089598
    52  H    0.182051
    53  H    0.036143
    54  H    0.057521
    55  H    0.052553
    56  H    0.084077
    57  H    0.043536
    58  H    0.070499
    59  H    0.073728
    60  H    0.055980
    61  H    0.037457
    62  H   -0.006075
    63  H    0.051900
    64  H   -0.040560
    65  H   -0.006127
    66  H    0.032802
    67  H   -0.002238
    68  H    0.015599
    69  H    0.119939
    70  H   -0.004763
    71  H    0.051237
    72  H   -0.005589
    73  H    0.024862
    74  H    0.028504
    75  H   -0.007039
    76  H    0.025840
    77  H   -0.005792
    78  H    0.002206
    79  H    0.043118
    80  H    0.168888
    81  H    0.226155
 Sum of Mulliken charges =  -0.00000

 Dipole moment (field-independent basis, Debye):
    X=             -3.5898    Y=              1.0111    Z=             -0.4479  Tot=              3.7563
 Quadrupole moment (field-independent basis, Debye-Ang):
   XX=           -252.0406   YY=           -249.2988   ZZ=           -252.0251
   XY=             11.2290   XZ=              8.5118   YZ=            -12.9365

 Normal termination of Gaussian 16 at Sat Jun 29 08:15:16 2019.
