 Gaussian 16, Revision A.03,
 Gaussian 16:  ES64L-G16RevA.03 25-Dec-2016

 --------------------------
 # td=(NStates=1) B3LYP/SVP
 --------------------------

 --
 TD
 --
 Symbolic Z-matrix:
 Charge =  0 Multiplicity = 1

                         Standard orientation:
 ---------------------------------------------------------------------
 Center     Atomic      Atomic             Coordinates (Angstroms)
 Number     Number       Type             X           Y           Z
 ---------------------------------------------------------------------
      1          8           0        4.160415   -4.923739   -1.852199
      2          8           0       -3.004024   -4.745207   -1.129398
      3          8           0       -6.900555   -1.642752   -1.828430
      4          8           0       -3.875805   -3.121569    0.062400
      5          8           0       -7.580745   -0.512617    0.078471
      6          8           0        3.063402    2.314909    0.343014
      7          7           0        0.337959   -0.452312    0.710700
      8          7           0       -1.497692    1.794862    0.208452
      9          7           0        3.229924   -3.134148   -0.667934
     10          7           0        0.750269    2.926790    0.168509
     11          6           0       -0.669698   -2.362583    1.402486
     12          6           0       -0.935579   -1.083010    1.021528
     13          6           0        0.751155   -2.549016    1.317533
     14          6           0        1.290229   -1.378231    0.769817
     15          6           0       -3.797734    1.565553    0.273447
     16          6           0       -2.529592    0.862972    0.496807
     17          6           0       -2.207358   -0.462894    0.838625
     18          6           0       -3.591605    2.849897   -0.036789
     19          6           0       -1.621804   -3.328601    2.012729
     20          6           0        5.426879   -2.753677   -1.317912
     21          6           0        3.551664   -1.804983   -0.247307
     22          6           0       -2.113602    3.073146   -0.071478
     23          6           0        5.033809   -1.630675   -0.434331
     24          6           0       -5.133420    0.866352    0.334918
     25          6           0        2.614328   -0.981149    0.362059
     26          6           0        1.519276   -3.787645    1.780308
     27          6           0        4.314156   -3.818288   -1.307168
     28          6           0       -2.057217   -4.460993    1.052802
     29          6           0       -5.411088   -0.009192   -0.869761
     30          6           0       -4.518394    3.987454   -0.358321
     31          6           0       -1.296855    4.104989   -0.275013
     32          6           0        6.744575   -3.577955   -0.838278
     33          6           0        5.766744   -0.559628   -0.138321
     34          6           0        0.196798    3.981771   -0.295125
     35          6           0        1.182458    5.086831   -0.496443
     36          6           0        2.384360    4.589656   -0.293332
     37          6           0       -3.061497   -4.026922   -0.058797
     38          6           0        5.448055    0.588752    0.706795
     39          6           0       -6.772178   -0.704783   -0.806230
     40          6           0        3.760961    5.204195   -0.309867
     41          6           0        2.194173    3.133307    0.139471
     42          6           0        0.727070    6.461723   -0.965325
     43          6           0        4.341289    5.427854    1.162459
     44          1           0        0.470741    0.589110    0.429485
     45          1           0       -3.138717   -0.934285    0.874375
     46          1           0       -2.524871   -2.762912    2.258124
     47          1           0       -1.221541   -3.892366    2.935632
     48          1           0        5.359617   -2.533980   -2.464215
     49          1           0       -5.028167    0.053582    1.233644
     50          1           0       -5.975251    1.549067    0.401222
     51          1           0        2.940048    0.075565    0.623336
     52          1           0       -0.326725    1.996682    0.124388
     53          1           0        1.300560   -4.508612    0.935499
     54          1           0        2.563733   -3.737975    1.851240
     55          1           0        1.052219   -4.257485    2.597274
     56          1           0        2.398925   -3.460159   -0.845116
     57          1           0       -1.231525   -4.822565    0.542266
     58          1           0       -2.673015   -5.187747    1.557845
     59          1           0       -4.609924   -0.857262   -0.959973
     60          1           0       -5.362238    0.693115   -1.759101
     61          1           0       -4.029307    4.930029    0.156838
     62          1           0       -5.606323    3.558894   -0.078163
     63          1           0       -4.413048    4.067809   -1.430669
     64          1           0       -1.625454    5.045169   -0.520802
     65          1           0        7.574281   -2.957337   -0.465894
     66          1           0        6.980560   -4.230455   -1.818430
     67          1           0        6.287992   -4.445808   -0.044567
     68          1           0        6.716018   -0.648971   -0.696997
     69          1           0        5.090205    1.416070   -0.046018
     70          1           0        6.232273    1.033769    1.278535
     71          1           0        4.795169    0.358368    1.462617
     72          1           0        3.579417    6.225782   -0.800570
     73          1           0        4.576912    4.692246   -0.925042
     74          1           0        0.421607    6.443562   -2.195859
     75          1           0        1.599036    7.327387   -0.822646
     76          1           0       -0.046705    6.886403   -0.374259
     77          1           0        3.689765    6.337339    1.701840
     78          1           0        5.389855    5.861481    1.195851
     79          1           0        4.399906    4.479733    1.757241
     80          1           0       -3.676832   -4.319314   -1.716733
     81          1           0       -7.756068   -1.987808   -1.593063
 ---------------------------------------------------------------------

 SCF Done:  E(RB3LYP) =  -1949.13710747     A.U. after   16 cycles

 Excitation energies and oscillator strengths:

 Excited State   1:      Singlet-A      1.6593 eV  747.23 nm  f=0.2373  <S**2>=0.000
     156 ->157         0.70808
     156 <-157        -0.12217
 This state for optimization and/or second-order correction.
 Total Energy, E(TD-HF/TD-DFT) =  -1949.07613110
 Copying the excited state density for this state as the 1-particle RhoCI density.

 The electronic state is 1-A.
 Alpha  occ. eigenvalues --  -19.20341 -19.18300 -19.13610 -19.13351 -19.12972
 Alpha  occ. eigenvalues --  -19.11496 -14.36820 -14.35276 -14.32980 -14.31857
 Alpha  occ. eigenvalues --  -10.32638 -10.32392 -10.29483 -10.29322 -10.24231
 Alpha  occ. eigenvalues --  -10.24056 -10.22845 -10.22756 -10.22627 -10.22358
 Alpha  occ. eigenvalues --  -10.22231 -10.21683 -10.21580 -10.21375 -10.21339
 Alpha  occ. eigenvalues --  -10.21264 -10.20922 -10.20710 -10.20641 -10.20599
 Alpha  occ. eigenvalues --  -10.20523 -10.20117 -10.19970 -10.19869 -10.19783
 Alpha  occ. eigenvalues --  -10.19741 -10.19678 -10.18693 -10.18589 -10.18586
 Alpha  occ. eigenvalues --  -10.18556 -10.18470 -10.17649  -1.13098  -1.09169
 Alpha  occ. eigenvalues --   -1.04344  -1.02065  -1.01128  -1.00941  -0.96977
 Alpha  occ. eigenvalues --   -0.95768  -0.93753  -0.92791  -0.82200  -0.82019
 Alpha  occ. eigenvalues --   -0.81799  -0.80753  -0.79981  -0.77788  -0.77204
 Alpha  occ. eigenvalues --   -0.76820  -0.76168  -0.74885  -0.74002  -0.71852
 Alpha  occ. eigenvalues --   -0.70614  -0.69496  -0.69096  -0.68170  -0.66577
 Alpha  occ. eigenvalues --   -0.66105  -0.65571  -0.64512  -0.62198  -0.61965
 Alpha  occ. eigenvalues --   -0.61077  -0.58584  -0.57989  -0.56568  -0.56280
 Alpha  occ. eigenvalues --   -0.55591  -0.54668  -0.54242  -0.53724  -0.53400
 Alpha  occ. eigenvalues --   -0.52046  -0.51321  -0.50640  -0.50139  -0.49573
 Alpha  occ. eigenvalues --   -0.49328  -0.48834  -0.48608  -0.48502  -0.47369
 Alpha  occ. eigenvalues --   -0.47134  -0.46724  -0.46240  -0.45395  -0.45321
 Alpha  occ. eigenvalues --   -0.44803  -0.44643  -0.44345  -0.44022  -0.43680
 Alpha  occ. eigenvalues --   -0.43320  -0.42805  -0.42722  -0.42051  -0.41707
 Alpha  occ. eigenvalues --   -0.41660  -0.41370  -0.41188  -0.41067  -0.40937
 Alpha  occ. eigenvalues --   -0.40540  -0.40274  -0.40149  -0.39871  -0.39511
 Alpha  occ. eigenvalues --   -0.39377  -0.38883  -0.38703  -0.38281  -0.38029
 Alpha  occ. eigenvalues --   -0.37897  -0.37634  -0.37199  -0.37120  -0.36851
 Alpha  occ. eigenvalues --   -0.36527  -0.36024  -0.35501  -0.35052  -0.34810
 Alpha  occ. eigenvalues --   -0.34397  -0.34119  -0.33940  -0.33802  -0.33667
 Alpha  occ. eigenvalues --   -0.33044  -0.32864  -0.32492  -0.30140  -0.29787
 Alpha  occ. eigenvalues --   -0.28661  -0.28541  -0.26817  -0.26428  -0.26133
 Alpha  occ. eigenvalues --   -0.25537  -0.25227  -0.24368  -0.23244  -0.21240
 Alpha  occ. eigenvalues --   -0.17041
 Alpha virt. eigenvalues --   -0.10332  -0.05719  -0.03643  -0.00495  -0.00270
 Alpha virt. eigenvalues --    0.00274   0.02313   0.03020   0.03526   0.03912
 Alpha virt. eigenvalues --    0.04102   0.04513   0.05244   0.05630   0.06411

 Mulliken charges:
               1
     1  O   -0.233090
     2  O   -0.119004
     3  O   -0.192509
     4  O   -0.258577
     5  O   -0.222312
     6  O   -0.181058
     7  N   -0.128706
     8  N   -0.310575
     9  N   -0.105957
    10  N   -0.297035
    11  C   -0.092109
    12  C    0.151683
    13  C   -0.211554
    14  C    0.093761
    15  C   -0.032247
    16  C    0.036213
    17  C   -0.011914
    18  C   -0.127911
    19  C    0.094337
    20  C   -0.115025
    21  C    0.079636
    22  C    0.141633
    23  C    0.022421
    24  C    0.046307
    25  C   -0.152279
    26  C    0.182103
    27  C    0.132047
    28  C    0.078688
    29  C   -0.052461
    30  C    0.077319
    31  C   -0.082840
    32  C   -0.030059
    33  C   -0.151491
    34  C    0.013364
    35  C   -0.060554
    36  C   -0.147706
    37  C    0.065908
    38  C    0.135828
    39  C    0.169173
    40  C    0.041917
    41  C    0.199773
    42  C   -0.001473
    43  C   -0.075555
    44  H    0.159217
    45  H   -0.054173
    46  H    0.010789
    47  H    0.026193
    48  H    0.068486
    49  H    0.042270
    50  H    0.007252
    51  H    0.045168
    52  H    0.230818
    53  H    0.003979
    54  H    0.012106
    55  H   -0.013722
    56  H    0.071829
    57  H    0.005542
    58  H    0.034217
    59  H    0.072157
    60  H    0.036792
    61  H    0.054082
    62  H    0.043227
    63  H    0.028321
    64  H   -0.076365
    65  H    0.040184
    66  H    0.051195
    67  H    0.053372
    68  H   -0.016114
    69  H    0.072980
    70  H   -0.006928
    71  H    0.003548
    72  H    0.008271
    73  H    0.035257
    74  H    0.066502
    75  H    0.035113
    76  H    0.029884
    77  H    0.029036
    78  H    0.023321
    79  H    0.048629
    80  H    0.189964
    81  H    0.159488
 Sum of Mulliken charges =  -0.00000

 Dipole moment (field-independent basis, Debye):
    X=             -0.5188    Y=              2.9910    Z=             -1.2446  Tot=              3.2809
 Quadrupole moment (field-independent basis, Debye-Ang):
   XX=           -252.8063   YY=           -239.0259   ZZ=           -255.7856
   XY=             22.1067   XZ=             15.0527   YZ=            -13.6462

 Normal termination of Gaussian 16 at Sun Jun 30 20:06:37 2019.
