 Gaussian 16, Revision A.03,
 Gaussian 16:  ES64L-G16RevA.03 25-Dec-2016

 --------------------------
 # td=(NStates=1) B3LYP/SVP
 --------------------------

 --
 TD
 --
 Symbolic Z-matrix:
 Charge =  0 Multiplicity = 1

                         Standard orientation:
 ---------------------------------------------------------------------
 Center     Atomic      Atomic             Coordinates (Angstroms)
 Number     Number       Type             X           Y           Z
 ---------------------------------------------------------------------
      1          8           0        3.908722   -4.850222   -1.958256
      2          8           0       -3.273638   -4.668378   -1.041485
      3          8           0       -6.895738   -1.224049   -1.855542
      4          8           0       -4.004773   -2.859259    0.155868
      5          8           0       -7.715160   -0.201553   -0.017660
      6          8           0        3.197277    2.203530    0.469460
      7          7           0        0.127940   -0.590581    0.498513
      8          7           0       -1.407122    1.843828    0.301408
      9          7           0        3.170776   -3.226768   -0.610480
     10          7           0        0.998437    2.818856    0.071051
     11          6           0       -0.712818   -2.407951    1.477200
     12          6           0       -1.019379   -1.093039    1.029410
     13          6           0        0.675630   -2.567697    1.248610
     14          6           0        1.210526   -1.465341    0.745914
     15          6           0       -3.673103    1.646237    0.328392
     16          6           0       -2.503807    0.980629    0.619767
     17          6           0       -2.203992   -0.350900    1.011957
     18          6           0       -3.410461    2.987368   -0.006184
     19          6           0       -1.811881   -3.323846    1.996458
     20          6           0        5.314099   -2.955101   -1.302207
     21          6           0        3.463054   -1.901384   -0.199035
     22          6           0       -1.898848    3.036716   -0.095641
     23          6           0        4.826149   -1.712421   -0.563336
     24          6           0       -5.024394    1.041465    0.393079
     25          6           0        2.545880   -1.077895    0.377111
     26          6           0        1.408235   -3.800651    1.664629
     27          6           0        4.102125   -3.779268   -1.414367
     28          6           0       -2.338326   -4.441987    1.026494
     29          6           0       -5.427707    0.181355   -0.823537
     30          6           0       -4.376618    3.977263   -0.496304
     31          6           0       -1.060173    4.059512   -0.435344
     32          6           0        6.708638   -3.652221   -0.945295
     33          6           0        5.748955   -0.765264   -0.169625
     34          6           0        0.352956    3.931399   -0.325420
     35          6           0        1.366616    5.087212   -0.452868
     36          6           0        2.637956    4.496156   -0.310450
     37          6           0       -3.261169   -3.898767   -0.021605
     38          6           0        5.448402    0.353082    0.898153
     39          6           0       -6.757800   -0.457346   -0.810805
     40          6           0        3.979641    5.033272   -0.285484
     41          6           0        2.349559    3.046628    0.130582
     42          6           0        0.961979    6.434668   -0.868588
     43          6           0        4.624735    5.207649    1.126068
     44          1           0        0.296378    0.234886   -0.048524
     45          1           0       -3.190909   -0.929443    1.182878
     46          1           0       -2.831120   -2.732422    2.493379
     47          1           0       -1.429126   -3.848345    2.857931
     48          1           0        5.388030   -2.684805   -2.459540
     49          1           0       -5.187857    0.310700    1.258819
     50          1           0       -5.899774    1.620781    0.468219
     51          1           0        2.602839   -0.073376    0.191155
     52          1           0       -0.316353    1.968796    0.667007
     53          1           0        1.308634   -4.387689    0.720753
     54          1           0        2.450950   -3.471661    1.924287
     55          1           0        0.917315   -4.285549    2.586004
     56          1           0        2.122350   -3.294535   -0.713503
     57          1           0       -1.379357   -4.812297    0.501530
     58          1           0       -3.117085   -5.303402    1.320308
     59          1           0       -4.640117   -0.707218   -0.875692
     60          1           0       -5.420634    0.821687   -1.861988
     61          1           0       -4.432549    4.901390    0.142275
     62          1           0       -5.468598    3.414794   -0.549862
     63          1           0       -4.275986    4.260057   -1.767383
     64          1           0       -1.382289    5.087967   -0.736153
     65          1           0        7.703553   -3.045986   -1.417717
     66          1           0        6.744504   -4.836027   -1.303876
     67          1           0        6.730982   -4.036761    0.153383
     68          1           0        6.788387   -0.994346   -0.498433
     69          1           0        4.889733    1.292603    0.506328
     70          1           0        6.530747    0.789011    1.378378
     71          1           0        4.753029    0.073179    1.806854
     72          1           0        4.075687    6.000629   -0.667496
     73          1           0        4.538525    4.311330   -0.838492
     74          1           0        0.459189    6.624548   -1.800070
     75          1           0        2.008177    7.019935   -0.836793
     76          1           0        0.360229    6.994678   -0.127095
     77          1           0        4.138607    6.009284    1.655080
     78          1           0        5.770478    5.477973    1.219130
     79          1           0        4.724377    4.187971    1.814722
     80          1           0       -3.901845   -4.537275   -1.721305
     81          1           0       -7.860795   -1.636157   -1.753400
 ---------------------------------------------------------------------

 SCF Done:  E(RB3LYP) =  -1949.08270770     A.U. after   16 cycles

 Excitation energies and oscillator strengths:

 Excited State   1:      Singlet-A      1.8170 eV  682.35 nm  f=0.3238  <S**2>=0.000
     156 ->157         0.70528
     156 <-157        -0.10995
 This state for optimization and/or second-order correction.
 Total Energy, E(TD-HF/TD-DFT) =  -1949.01593378
 Copying the excited state density for this state as the 1-particle RhoCI density.

 The electronic state is 1-A.
 Alpha  occ. eigenvalues --  -19.21419 -19.19670 -19.13120 -19.11767 -19.10661
 Alpha  occ. eigenvalues --  -19.09924 -14.36612 -14.36610 -14.35158 -14.29660
 Alpha  occ. eigenvalues --  -10.33965 -10.31855 -10.28531 -10.27187 -10.24012
 Alpha  occ. eigenvalues --  -10.23884 -10.23391 -10.23356 -10.23333 -10.23069
 Alpha  occ. eigenvalues --  -10.22908 -10.22580 -10.22481 -10.22446 -10.21732
 Alpha  occ. eigenvalues --  -10.21716 -10.21584 -10.20912 -10.20792 -10.20774
 Alpha  occ. eigenvalues --  -10.20678 -10.20291 -10.20224 -10.20077 -10.19911
 Alpha  occ. eigenvalues --  -10.19780 -10.19746 -10.19405 -10.19384 -10.19040
 Alpha  occ. eigenvalues --  -10.18901 -10.18572 -10.18195  -1.13807  -1.10250
 Alpha  occ. eigenvalues --   -1.03511  -1.00847  -0.98955  -0.98399  -0.97661
 Alpha  occ. eigenvalues --   -0.96706  -0.95423  -0.91625  -0.82562  -0.82188
 Alpha  occ. eigenvalues --   -0.81302  -0.80855  -0.80091  -0.78943  -0.78415
 Alpha  occ. eigenvalues --   -0.77200  -0.76437  -0.75375  -0.73224  -0.72503
 Alpha  occ. eigenvalues --   -0.71300  -0.70176  -0.68685  -0.68396  -0.67622
 Alpha  occ. eigenvalues --   -0.67013  -0.65251  -0.64405  -0.63266  -0.62091
 Alpha  occ. eigenvalues --   -0.61316  -0.59134  -0.58604  -0.58489  -0.56682
 Alpha  occ. eigenvalues --   -0.55647  -0.55029  -0.54767  -0.53245  -0.52517
 Alpha  occ. eigenvalues --   -0.51847  -0.51461  -0.50879  -0.49929  -0.49737
 Alpha  occ. eigenvalues --   -0.49149  -0.48644  -0.48426  -0.48209  -0.47496
 Alpha  occ. eigenvalues --   -0.46839  -0.46548  -0.46279  -0.45861  -0.45460
 Alpha  occ. eigenvalues --   -0.45420  -0.44562  -0.44124  -0.43681  -0.43456
 Alpha  occ. eigenvalues --   -0.42996  -0.42605  -0.42488  -0.42215  -0.41989
 Alpha  occ. eigenvalues --   -0.41519  -0.41334  -0.41210  -0.40868  -0.40303
 Alpha  occ. eigenvalues --   -0.40104  -0.39977  -0.39736  -0.39564  -0.39359
 Alpha  occ. eigenvalues --   -0.38714  -0.38364  -0.38170  -0.37969  -0.37641
 Alpha  occ. eigenvalues --   -0.37056  -0.36973  -0.36363  -0.36266  -0.35900
 Alpha  occ. eigenvalues --   -0.35756  -0.35315  -0.34911  -0.34400  -0.34055
 Alpha  occ. eigenvalues --   -0.33822  -0.33461  -0.33389  -0.33020  -0.32466
 Alpha  occ. eigenvalues --   -0.32240  -0.31985  -0.31185  -0.29926  -0.28347
 Alpha  occ. eigenvalues --   -0.27397  -0.27255  -0.26642  -0.25822  -0.25268
 Alpha  occ. eigenvalues --   -0.25051  -0.24870  -0.24582  -0.23390  -0.21857
 Alpha  occ. eigenvalues --   -0.18127
 Alpha virt. eigenvalues --   -0.10781  -0.06697  -0.04735  -0.01682  -0.00536
 Alpha virt. eigenvalues --   -0.00470   0.01932   0.02274   0.02583   0.03190
 Alpha virt. eigenvalues --    0.03880   0.04488   0.04683   0.04805   0.05528

 Mulliken charges:
               1
     1  O   -0.212234
     2  O   -0.088355
     3  O   -0.177267
     4  O   -0.308494
     5  O   -0.300213
     6  O   -0.237917
     7  N   -0.084110
     8  N   -0.200851
     9  N   -0.113747
    10  N   -0.289978
    11  C   -0.060963
    12  C    0.084092
    13  C   -0.238824
    14  C    0.035770
    15  C    0.024011
    16  C    0.053431
    17  C   -0.063133
    18  C   -0.074849
    19  C    0.061500
    20  C   -0.037948
    21  C    0.078886
    22  C    0.118876
    23  C   -0.018208
    24  C    0.068650
    25  C   -0.007375
    26  C    0.096186
    27  C    0.064380
    28  C   -0.034713
    29  C   -0.110253
    30  C   -0.046748
    31  C   -0.118090
    32  C   -0.055066
    33  C   -0.076534
    34  C    0.045727
    35  C   -0.096528
    36  C   -0.165132
    37  C    0.126977
    38  C   -0.075933
    39  C    0.155476
    40  C    0.162851
    41  C    0.169056
    42  C    0.057822
    43  C   -0.090416
    44  H    0.125590
    45  H    0.039764
    46  H    0.053016
    47  H   -0.003336
    48  H    0.059411
    49  H    0.028215
    50  H   -0.004854
    51  H   -0.039991
    52  H    0.214320
    53  H    0.032771
    54  H    0.041932
    55  H    0.031569
    56  H    0.153852
    57  H    0.051267
    58  H    0.074268
    59  H    0.076301
    60  H    0.059479
    61  H    0.050713
    62  H    0.041787
    63  H    0.051026
    64  H   -0.018653
    65  H    0.070239
    66  H    0.048975
    67  H    0.039684
    68  H    0.004606
    69  H    0.098158
    70  H    0.015730
    71  H    0.049174
    72  H   -0.019259
    73  H    0.007617
    74  H    0.034218
    75  H    0.020274
    76  H    0.020823
    77  H    0.011032
    78  H    0.018060
    79  H    0.048067
    80  H    0.177388
    81  H    0.216955
 Sum of Mulliken charges =  -0.00000

 Dipole moment (field-independent basis, Debye):
    X=             -2.2776    Y=             -0.1419    Z=             -1.8318  Tot=              2.9263
 Quadrupole moment (field-independent basis, Debye-Ang):
   XX=           -256.3031   YY=           -234.0283   ZZ=           -255.4071
   XY=             22.8498   XZ=             16.8797   YZ=            -10.0809

 Normal termination of Gaussian 16 at Mon Jul  1 08:41:57 2019.
