 Gaussian 16, Revision A.03,
 Gaussian 16:  ES64L-G16RevA.03 25-Dec-2016

 --------------------------
 # td=(NStates=1) B3LYP/SVP
 --------------------------

 --
 TD
 --
 Symbolic Z-matrix:
 Charge =  0 Multiplicity = 1

                         Standard orientation:
 ---------------------------------------------------------------------
 Center     Atomic      Atomic             Coordinates (Angstroms)
 Number     Number       Type             X           Y           Z
 ---------------------------------------------------------------------
      1          8           0        3.835405   -4.988962   -1.916181
      2          8           0       -2.874805   -4.549266   -1.124698
      3          8           0       -6.953675   -1.342746   -1.791961
      4          8           0       -3.877563   -2.948893    0.174846
      5          8           0       -7.559672   -0.506123    0.046412
      6          8           0        3.161809    2.291596    0.517299
      7          7           0        0.209579   -0.304601    0.849548
      8          7           0       -1.442924    1.926167    0.300942
      9          7           0        2.974679   -3.137523   -0.768631
     10          7           0        0.939198    2.902316    0.081725
     11          6           0       -0.735214   -2.368776    1.488959
     12          6           0       -0.971636   -0.995320    1.212861
     13          6           0        0.587191   -2.590655    1.251929
     14          6           0        1.240860   -1.407445    0.768156
     15          6           0       -3.641011    1.661312    0.230196
     16          6           0       -2.491649    0.932626    0.555751
     17          6           0       -2.273361   -0.299135    1.080296
     18          6           0       -3.362164    2.954656   -0.272186
     19          6           0       -1.679398   -3.347277    2.107221
     20          6           0        5.197499   -3.050229   -1.467346
     21          6           0        3.399540   -1.978842   -0.310547
     22          6           0       -2.013978    3.098557   -0.194768
     23          6           0        4.888281   -1.815614   -0.732816
     24          6           0       -4.955481    0.905720    0.297409
     25          6           0        2.614814   -1.095294    0.476231
     26          6           0        1.360751   -3.851381    1.657322
     27          6           0        3.970763   -3.834230   -1.457212
     28          6           0       -2.212540   -4.432299    1.174874
     29          6           0       -5.293672    0.032651   -0.854083
     30          6           0       -4.315892    4.010516   -0.756669
     31          6           0       -1.096982    4.130771   -0.505515
     32          6           0        6.460237   -3.726518   -1.039438
     33          6           0        5.714923   -0.893213   -0.210510
     34          6           0        0.305863    4.007693   -0.299509
     35          6           0        1.322993    5.163704   -0.424951
     36          6           0        2.538716    4.604593   -0.188789
     37          6           0       -3.082977   -3.848617    0.049668
     38          6           0        5.419132    0.198843    0.778592
     39          6           0       -6.673764   -0.551838   -0.775169
     40          6           0        3.896388    5.156062   -0.054850
     41          6           0        2.322445    3.133300    0.190847
     42          6           0        1.003087    6.503862   -0.982488
     43          6           0        4.428397    5.366458    1.385983
     44          1           0        0.362641    0.625050    0.428185
     45          1           0       -3.060657   -1.044716    1.209066
     46          1           0       -2.624308   -3.032593    2.544604
     47          1           0       -1.377503   -3.971493    2.936079
     48          1           0        5.123369   -2.728205   -2.591725
     49          1           0       -5.102322    0.278987    1.293599
     50          1           0       -5.733836    1.664280    0.368462
     51          1           0        2.997737    0.037952    0.689881
     52          1           0       -0.486400    1.931040    0.424344
     53          1           0        1.294922   -4.719791    1.100276
     54          1           0        2.344790   -3.474448    1.704086
     55          1           0        1.078317   -4.318088    2.707359
     56          1           0        1.971488   -3.404094   -0.636371
     57          1           0       -1.365245   -4.892856    0.751990
     58          1           0       -2.812677   -5.354140    1.610774
     59          1           0       -4.567900   -0.783357   -0.977012
     60          1           0       -5.285904    0.402032   -1.959102
     61          1           0       -4.199513    4.861584    0.075177
     62          1           0       -5.368810    3.619308   -0.626346
     63          1           0       -4.262914    4.324452   -1.751219
     64          1           0       -1.476399    5.150340   -0.907565
     65          1           0        7.279329   -3.196684   -1.483673
     66          1           0        6.631036   -4.734152   -1.496764
     67          1           0        6.257118   -3.593044    0.179705
     68          1           0        6.735580   -0.680385   -0.678492
     69          1           0        4.858049    1.003229    0.170478
     70          1           0        6.282131    0.435198    1.169903
     71          1           0        4.783242   -0.197965    1.627215
     72          1           0        3.947105    5.985752   -0.827850
     73          1           0        4.601884    4.317890   -0.580626
     74          1           0        0.593554    6.417471   -2.065850
     75          1           0        1.928704    7.233261   -1.167252
     76          1           0        0.213840    7.236094   -0.551314
     77          1           0        3.903261    6.091119    1.872290
     78          1           0        5.340821    5.862654    1.599776
     79          1           0        4.472237    4.465584    1.791883
     80          1           0       -3.390699   -4.157926   -1.903307
     81          1           0       -7.734757   -1.656540   -1.618201
 ---------------------------------------------------------------------

 SCF Done:  E(RB3LYP) =  -1949.11077548     A.U. after   17 cycles

 Excitation energies and oscillator strengths:

 Excited State   1:      Singlet-A      1.6924 eV  732.61 nm  f=0.3303  <S**2>=0.000
     156 ->157         0.71025
     156 <-157        -0.12051
 This state for optimization and/or second-order correction.
 Total Energy, E(TD-HF/TD-DFT) =  -1949.04858190
 Copying the excited state density for this state as the 1-particle RhoCI density.

 The electronic state is 1-A.
 Alpha  occ. eigenvalues --  -19.19372 -19.16322 -19.14982 -19.11611 -19.11177
 Alpha  occ. eigenvalues --  -19.11131 -14.38369 -14.37488 -14.34276 -14.28837
 Alpha  occ. eigenvalues --  -10.33772 -10.31366 -10.29810 -10.26998 -10.24996
 Alpha  occ. eigenvalues --  -10.24502 -10.24245 -10.23451 -10.23222 -10.23211
 Alpha  occ. eigenvalues --  -10.21976 -10.21791 -10.21259 -10.21242 -10.21240
 Alpha  occ. eigenvalues --  -10.21052 -10.20939 -10.20716 -10.20704 -10.20701
 Alpha  occ. eigenvalues --  -10.20495 -10.20430 -10.20422 -10.20415 -10.20323
 Alpha  occ. eigenvalues --  -10.20081 -10.19843 -10.19757 -10.19656 -10.19487
 Alpha  occ. eigenvalues --  -10.18789 -10.17074 -10.15853  -1.12781  -1.09599
 Alpha  occ. eigenvalues --   -1.03163  -1.01816  -1.01209  -0.99782  -0.96905
 Alpha  occ. eigenvalues --   -0.96688  -0.94582  -0.91274  -0.83491  -0.83145
 Alpha  occ. eigenvalues --   -0.82607  -0.80968  -0.79545  -0.79104  -0.78359
 Alpha  occ. eigenvalues --   -0.77946  -0.76287  -0.75058  -0.73955  -0.72516
 Alpha  occ. eigenvalues --   -0.71805  -0.69957  -0.69567  -0.68872  -0.68555
 Alpha  occ. eigenvalues --   -0.67925  -0.66131  -0.64753  -0.63099  -0.61957
 Alpha  occ. eigenvalues --   -0.60720  -0.60470  -0.58917  -0.58745  -0.57853
 Alpha  occ. eigenvalues --   -0.55761  -0.55674  -0.54620  -0.53617  -0.53040
 Alpha  occ. eigenvalues --   -0.52408  -0.51987  -0.51049  -0.50386  -0.50065
 Alpha  occ. eigenvalues --   -0.49849  -0.49220  -0.48824  -0.48574  -0.47993
 Alpha  occ. eigenvalues --   -0.47547  -0.47083  -0.46399  -0.45755  -0.45622
 Alpha  occ. eigenvalues --   -0.45317  -0.44961  -0.44487  -0.43757  -0.43642
 Alpha  occ. eigenvalues --   -0.43433  -0.42843  -0.42659  -0.42566  -0.42273
 Alpha  occ. eigenvalues --   -0.41983  -0.41343  -0.41309  -0.40949  -0.40801
 Alpha  occ. eigenvalues --   -0.40631  -0.40284  -0.40136  -0.39883  -0.39627
 Alpha  occ. eigenvalues --   -0.39409  -0.38973  -0.38875  -0.38680  -0.38290
 Alpha  occ. eigenvalues --   -0.38130  -0.37690  -0.37210  -0.37139  -0.36811
 Alpha  occ. eigenvalues --   -0.36591  -0.36379  -0.35582  -0.35446  -0.35138
 Alpha  occ. eigenvalues --   -0.34037  -0.33921  -0.33768  -0.33540  -0.33039
 Alpha  occ. eigenvalues --   -0.32706  -0.32284  -0.31610  -0.30124  -0.29995
 Alpha  occ. eigenvalues --   -0.27601  -0.27505  -0.26662  -0.26462  -0.26305
 Alpha  occ. eigenvalues --   -0.25236  -0.24869  -0.24262  -0.23539  -0.21405
 Alpha  occ. eigenvalues --   -0.17757
 Alpha virt. eigenvalues --   -0.10915  -0.05994  -0.04256  -0.01833  -0.01000
 Alpha virt. eigenvalues --    0.00632   0.01235   0.02708   0.03596   0.04178
 Alpha virt. eigenvalues --    0.04335   0.04670   0.05252   0.05729   0.06837

 Mulliken charges:
               1
     1  O   -0.236938
     2  O   -0.230223
     3  O   -0.084621
     4  O   -0.209753
     5  O   -0.242464
     6  O   -0.225021
     7  N   -0.185736
     8  N   -0.134136
     9  N   -0.058599
    10  N   -0.307507
    11  C   -0.016128
    12  C    0.035054
    13  C   -0.170685
    14  C    0.065401
    15  C   -0.067041
    16  C    0.166918
    17  C   -0.026799
    18  C   -0.132172
    19  C    0.122202
    20  C    0.023239
    21  C    0.003812
    22  C    0.121407
    23  C   -0.026643
    24  C    0.065953
    25  C   -0.163686
    26  C    0.089801
    27  C    0.081638
    28  C   -0.029325
    29  C    0.004575
    30  C    0.094495
    31  C   -0.129989
    32  C    0.077612
    33  C   -0.247779
    34  C    0.061140
    35  C   -0.024655
    36  C   -0.190121
    37  C    0.145442
    38  C    0.114618
    39  C    0.089229
    40  C    0.021519
    41  C    0.186936
    42  C   -0.028020
    43  C    0.133991
    44  H    0.151221
    45  H    0.008266
    46  H    0.006660
    47  H   -0.004468
    48  H    0.052431
    49  H    0.049508
    50  H   -0.000217
    51  H    0.097569
    52  H    0.078956
    53  H    0.014148
    54  H    0.022239
    55  H    0.027951
    56  H    0.154560
    57  H    0.001573
    58  H    0.064815
    59  H    0.036766
    60  H    0.038023
    61  H    0.048168
    62  H    0.009549
    63  H    0.023188
    64  H   -0.005519
    65  H    0.008347
    66  H    0.033984
    67  H    0.056651
    68  H    0.014141
    69  H    0.099658
    70  H   -0.037374
    71  H    0.031035
    72  H   -0.001060
    73  H    0.018187
    74  H    0.033899
    75  H    0.029889
    76  H    0.035268
    77  H   -0.022364
    78  H   -0.016531
    79  H   -0.004720
    80  H    0.206807
    81  H    0.101851
 Sum of Mulliken charges =  -0.00000

 Dipole moment (field-independent basis, Debye):
    X=             -0.5658    Y=              0.4152    Z=             -1.2693  Tot=              1.4504
 Quadrupole moment (field-independent basis, Debye-Ang):
   XX=           -255.9356   YY=           -241.5834   ZZ=           -251.6856
   XY=             10.2649   XZ=             11.7373   YZ=            -15.2518

 Normal termination of Gaussian 16 at Tue Jul  2 14:41:45 2019.
