 Gaussian 16, Revision A.03,
 Gaussian 16:  ES64L-G16RevA.03 25-Dec-2016

 --------------------------
 # td=(NStates=1) B3LYP/SVP
 --------------------------

 --
 TD
 --
 Symbolic Z-matrix:
 Charge =  0 Multiplicity = 1

                         Standard orientation:
 ---------------------------------------------------------------------
 Center     Atomic      Atomic             Coordinates (Angstroms)
 Number     Number       Type             X           Y           Z
 ---------------------------------------------------------------------
      1          8           0        4.383861   -4.782594   -1.862136
      2          8           0       -2.839261   -4.878930   -1.080250
      3          8           0       -7.106681   -1.776447   -1.826450
      4          8           0       -3.665725   -3.212022    0.215034
      5          8           0       -7.612136   -0.548122    0.035922
      6          8           0        2.967031    2.512983    0.292661
      7          7           0        0.329118   -0.413759    0.628293
      8          7           0       -1.616225    1.789684    0.307241
      9          7           0        3.319170   -3.061664   -0.790292
     10          7           0        0.721737    2.888613    0.003437
     11          6           0       -0.531508   -2.383575    1.438039
     12          6           0       -0.854477   -1.037961    1.040680
     13          6           0        0.861757   -2.591224    1.394065
     14          6           0        1.351297   -1.314919    0.714774
     15          6           0       -3.890355    1.343441    0.202781
     16          6           0       -2.487931    0.828794    0.440580
     17          6           0       -2.161133   -0.516890    0.811793
     18          6           0       -3.679016    2.643515   -0.147915
     19          6           0       -1.427541   -3.400127    2.036935
     20          6           0        5.556896   -2.604136   -1.479351
     21          6           0        3.585176   -1.792774   -0.233786
     22          6           0       -2.232042    2.933749   -0.195625
     23          6           0        5.019553   -1.470118   -0.544666
     24          6           0       -5.125261    0.572092    0.316182
     25          6           0        2.756390   -0.907736    0.348253
     26          6           0        1.651871   -3.687979    1.902762
     27          6           0        4.394550   -3.650123   -1.471038
     28          6           0       -1.946761   -4.515772    1.107495
     29          6           0       -5.339611   -0.279387   -0.818564
     30          6           0       -4.660286    3.757386   -0.459900
     31          6           0       -1.414504    4.023805   -0.418756
     32          6           0        6.865164   -3.354551   -1.031980
     33          6           0        5.865355   -0.472624   -0.121441
     34          6           0        0.062901    4.006884   -0.346573
     35          6           0        0.903304    5.159410   -0.466517
     36          6           0        2.177994    4.736570   -0.173785
     37          6           0       -2.914626   -4.144221    0.081691
     38          6           0        5.502871    0.616992    0.821906
     39          6           0       -6.792253   -0.873330   -0.848934
     40          6           0        3.499526    5.397377   -0.103500
     41          6           0        2.080996    3.291471    0.011859
     42          6           0        0.519111    6.613403   -0.896173
     43          6           0        4.028601    5.582859    1.307743
     44          1           0        0.431492    0.494939    0.197870
     45          1           0       -2.862784   -1.221877    0.993805
     46          1           0       -2.171131   -2.690464    2.491157
     47          1           0       -0.936855   -3.732727    3.036096
     48          1           0        5.756768   -2.263652   -2.406360
     49          1           0       -5.009426   -0.053975    1.320255
     50          1           0       -5.975097    1.197051    0.628384
     51          1           0        3.045895    0.119035    0.545656
     52          1           0       -0.621142    1.812293    0.273605
     53          1           0        1.948070   -4.697912    1.246679
     54          1           0        2.648124   -3.442429    2.025746
     55          1           0        1.219778   -3.986239    2.763192
     56          1           0        2.285383   -3.469900   -0.649309
     57          1           0       -1.192757   -5.037405    0.752157
     58          1           0       -2.693188   -5.452676    1.531188
     59          1           0       -4.775085   -1.168435   -0.908439
     60          1           0       -5.211790    0.318756   -1.790452
     61          1           0       -4.220514    4.665550    0.180358
     62          1           0       -5.640802    3.569752   -0.100410
     63          1           0       -4.524973    3.912929   -1.585283
     64          1           0       -1.784873    5.064601   -0.576037
     65          1           0        7.783407   -2.549843   -1.190551
     66          1           0        7.134085   -4.208805   -1.504505
     67          1           0        7.193925   -3.747037   -0.067222
     68          1           0        6.938562   -0.352889   -0.415298
     69          1           0        4.983111    1.577443    0.339019
     70          1           0        6.456727    0.809048    1.236149
     71          1           0        4.989629    0.210485    1.608801
     72          1           0        3.338604    6.242836   -0.789881
     73          1           0        3.999669    4.649282   -0.775849
     74          1           0       -0.368116    6.512517   -1.576113
     75          1           0        1.304130    7.144690   -1.305893
     76          1           0        0.163222    7.385892   -0.104288
     77          1           0        3.127542    5.904016    2.063866
     78          1           0        4.978268    6.225760    1.330956
     79          1           0        4.157970    4.561424    1.799619
     80          1           0       -3.481640   -4.429013   -1.628221
     81          1           0       -8.063543   -1.873886   -1.543644
 ---------------------------------------------------------------------

 SCF Done:  E(RB3LYP) =  -1949.11782294     A.U. after   18 cycles

 Excitation energies and oscillator strengths:

 Excited State   1:      Singlet-A      1.7182 eV  721.61 nm  f=0.3255  <S**2>=0.000
     156 ->157         0.71275
     156 <-157        -0.15037
 This state for optimization and/or second-order correction.
 Total Energy, E(TD-HF/TD-DFT) =  -1949.05468148
 Copying the excited state density for this state as the 1-particle RhoCI density.

 The electronic state is 1-A.
 Alpha  occ. eigenvalues --  -19.19711 -19.19371 -19.14271 -19.13112 -19.11229
 Alpha  occ. eigenvalues --  -19.10750 -14.38485 -14.37487 -14.35876 -14.28813
 Alpha  occ. eigenvalues --  -10.33493 -10.32775 -10.29453 -10.26006 -10.24659
 Alpha  occ. eigenvalues --  -10.24312 -10.23855 -10.23505 -10.23253 -10.22979
 Alpha  occ. eigenvalues --  -10.22650 -10.21970 -10.21035 -10.20718 -10.20686
 Alpha  occ. eigenvalues --  -10.20461 -10.20388 -10.20323 -10.20309 -10.20264
 Alpha  occ. eigenvalues --  -10.20231 -10.20219 -10.20196 -10.20185 -10.20117
 Alpha  occ. eigenvalues --  -10.19774 -10.19533 -10.19523 -10.19139 -10.18779
 Alpha  occ. eigenvalues --  -10.18763 -10.18583 -10.16487  -1.11131  -1.09614
 Alpha  occ. eigenvalues --   -1.04044  -1.02442  -1.02342  -0.99513  -0.99469
 Alpha  occ. eigenvalues --   -0.97704  -0.93867  -0.92010  -0.83422  -0.83172
 Alpha  occ. eigenvalues --   -0.80784  -0.80318  -0.80108  -0.79174  -0.78449
 Alpha  occ. eigenvalues --   -0.77531  -0.76183  -0.75003  -0.74381  -0.72897
 Alpha  occ. eigenvalues --   -0.71194  -0.69632  -0.69252  -0.68907  -0.67656
 Alpha  occ. eigenvalues --   -0.67354  -0.65530  -0.63722  -0.62483  -0.61215
 Alpha  occ. eigenvalues --   -0.60663  -0.59658  -0.58932  -0.58601  -0.58077
 Alpha  occ. eigenvalues --   -0.56223  -0.55132  -0.54837  -0.53655  -0.52961
 Alpha  occ. eigenvalues --   -0.52659  -0.52046  -0.51179  -0.50249  -0.49972
 Alpha  occ. eigenvalues --   -0.49625  -0.49424  -0.49061  -0.48425  -0.48095
 Alpha  occ. eigenvalues --   -0.47437  -0.46665  -0.46008  -0.45759  -0.45344
 Alpha  occ. eigenvalues --   -0.44921  -0.44668  -0.44409  -0.44341  -0.43993
 Alpha  occ. eigenvalues --   -0.43729  -0.43413  -0.43212  -0.42894  -0.42625
 Alpha  occ. eigenvalues --   -0.42456  -0.42022  -0.41598  -0.41528  -0.41281
 Alpha  occ. eigenvalues --   -0.41239  -0.40977  -0.40679  -0.40374  -0.39888
 Alpha  occ. eigenvalues --   -0.39376  -0.39337  -0.39197  -0.39044  -0.38515
 Alpha  occ. eigenvalues --   -0.38058  -0.37603  -0.37321  -0.37174  -0.36920
 Alpha  occ. eigenvalues --   -0.36178  -0.35834  -0.35508  -0.34927  -0.34778
 Alpha  occ. eigenvalues --   -0.34374  -0.34026  -0.33673  -0.33311  -0.32911
 Alpha  occ. eigenvalues --   -0.32426  -0.31861  -0.31660  -0.29920  -0.29405
 Alpha  occ. eigenvalues --   -0.28866  -0.28359  -0.26300  -0.26142  -0.25803
 Alpha  occ. eigenvalues --   -0.25560  -0.24896  -0.24436  -0.23096  -0.21724
 Alpha  occ. eigenvalues --   -0.17055
 Alpha virt. eigenvalues --   -0.10513  -0.05806  -0.03703  -0.01366  -0.00700
 Alpha virt. eigenvalues --    0.00466   0.01628   0.01934   0.03859   0.04183
 Alpha virt. eigenvalues --    0.04330   0.04732   0.05344   0.05675   0.05882

 Mulliken charges:
               1
     1  O   -0.185522
     2  O   -0.183789
     3  O   -0.195248
     4  O   -0.221177
     5  O   -0.275228
     6  O   -0.193163
     7  N   -0.059978
     8  N   -0.000112
     9  N   -0.191307
    10  N   -0.327360
    11  C   -0.141071
    12  C    0.057721
    13  C   -0.137063
    14  C    0.006269
    15  C   -0.088682
    16  C    0.055534
    17  C    0.005851
    18  C   -0.147280
    19  C    0.061737
    20  C    0.005968
    21  C    0.152525
    22  C    0.123495
    23  C    0.010809
    24  C    0.090627
    25  C   -0.113037
    26  C    0.125631
    27  C    0.146791
    28  C    0.124849
    29  C    0.051682
    30  C    0.083288
    31  C   -0.135207
    32  C    0.011368
    33  C   -0.200581
    34  C    0.037955
    35  C   -0.085979
    36  C   -0.230118
    37  C    0.099050
    38  C    0.086789
    39  C    0.141789
    40  C    0.123045
    41  C    0.141133
    42  C    0.087053
    43  C   -0.028675
    44  H    0.131691
    45  H   -0.067653
    46  H    0.019254
    47  H    0.029126
    48  H    0.008476
    49  H    0.028816
    50  H    0.019028
    51  H    0.033049
    52  H    0.102981
    53  H    0.028365
    54  H   -0.002073
    55  H   -0.017170
    56  H    0.179341
    57  H   -0.024406
    58  H    0.067402
    59  H    0.026728
    60  H    0.043008
    61  H    0.041528
    62  H    0.011899
    63  H    0.048639
    64  H   -0.021014
    65  H    0.010079
    66  H   -0.001032
    67  H    0.001610
    68  H    0.009038
    69  H    0.107087
    70  H   -0.022410
    71  H   -0.006077
    72  H   -0.018365
    73  H    0.020671
    74  H    0.024563
    75  H   -0.005065
    76  H    0.031196
    77  H    0.027745
    78  H    0.043776
    79  H    0.037717
    80  H    0.173245
    81  H    0.188826
 Sum of Mulliken charges =  -0.00000

 Dipole moment (field-independent basis, Debye):
    X=             -2.0078    Y=              0.9625    Z=             -0.1330  Tot=              2.2305
 Quadrupole moment (field-independent basis, Debye-Ang):
   XX=           -252.9393   YY=           -241.9287   ZZ=           -254.3456
   XY=             14.7271   XZ=             14.2379   YZ=            -15.5333

 Normal termination of Gaussian 16 at Sun Jun 30 04:19:30 2019.
