 Gaussian 16, Revision A.03,
 Gaussian 16:  ES64L-G16RevA.03 25-Dec-2016

 --------------------------
 # td=(NStates=1) B3LYP/SVP
 --------------------------

 --
 TD
 --
 Symbolic Z-matrix:
 Charge =  0 Multiplicity = 1

                         Standard orientation:
 ---------------------------------------------------------------------
 Center     Atomic      Atomic             Coordinates (Angstroms)
 Number     Number       Type             X           Y           Z
 ---------------------------------------------------------------------
      1          8           0        4.269820   -5.023648   -1.860862
      2          8           0       -3.145859   -5.008177   -0.850662
      3          8           0       -6.995981   -1.402231   -1.811184
      4          8           0       -3.907495   -3.098146    0.089326
      5          8           0       -7.492659   -0.531784    0.194887
      6          8           0        3.068195    2.290901    0.399558
      7          7           0        0.349129   -0.516632    0.605027
      8          7           0       -1.493023    1.896416    0.233545
      9          7           0        3.239313   -3.244977   -0.744589
     10          7           0        0.839125    2.972956   -0.046228
     11          6           0       -0.726099   -2.291978    1.421251
     12          6           0       -0.936772   -0.939148    0.896400
     13          6           0        0.688070   -2.638361    1.236129
     14          6           0        1.279899   -1.563347    0.704935
     15          6           0       -3.701623    1.606079    0.246225
     16          6           0       -2.501431    0.920838    0.491691
     17          6           0       -2.172766   -0.305367    0.833525
     18          6           0       -3.453815    2.964573   -0.139986
     19          6           0       -1.638985   -3.263391    2.093117
     20          6           0        5.429761   -2.875476   -1.456295
     21          6           0        3.574424   -2.003217   -0.275760
     22          6           0       -2.115025    3.002110   -0.113790
     23          6           0        4.950847   -1.709282   -0.493310
     24          6           0       -5.094029    0.910355    0.170859
     25          6           0        2.648489   -1.150686    0.408811
     26          6           0        1.299786   -3.905413    1.709829
     27          6           0        4.283401   -3.885640   -1.416514
     28          6           0       -2.125026   -4.375865    1.161048
     29          6           0       -5.493524    0.001001   -0.981247
     30          6           0       -4.445608    4.044322   -0.485391
     31          6           0       -1.209776    4.134602   -0.449865
     32          6           0        6.715674   -3.441865   -0.953928
     33          6           0        5.761982   -0.701459   -0.016822
     34          6           0        0.174007    4.067714   -0.300019
     35          6           0        1.237306    5.170174   -0.474201
     36          6           0        2.407098    4.651987   -0.153299
     37          6           0       -3.055804   -4.031866    0.105045
     38          6           0        5.427358    0.465587    0.791396
     39          6           0       -6.710887   -0.700733   -0.836427
     40          6           0        3.756038    5.290883   -0.241429
     41          6           0        2.211355    3.143356    0.074697
     42          6           0        0.800128    6.514612   -0.726288
     43          6           0        4.399602    5.512430    1.254387
     44          1           0        0.717124    0.316876    0.151156
     45          1           0       -3.056530   -1.027706    0.887989
     46          1           0       -2.799230   -2.770258    2.218062
     47          1           0       -1.432568   -3.611493    2.966111
     48          1           0        5.455989   -2.410284   -2.416714
     49          1           0       -5.367918    0.576707    1.172193
     50          1           0       -5.964345    1.776993    0.073252
     51          1           0        2.913017   -0.110872    0.382463
     52          1           0       -0.604622    1.835703    0.302226
     53          1           0        0.979436   -4.892340    1.213153
     54          1           0        2.331150   -3.657950    1.690189
     55          1           0        0.973470   -4.157711    2.696017
     56          1           0        2.364930   -3.655623   -0.866237
     57          1           0       -1.237616   -4.811072    0.785850
     58          1           0       -2.666444   -5.141429    1.810935
     59          1           0       -4.623441   -0.765270   -0.924967
     60          1           0       -5.323354    0.387524   -1.824579
     61          1           0       -4.232403    4.738301    0.186804
     62          1           0       -5.470624    3.642237   -0.387902
     63          1           0       -4.183507    4.346751   -1.592756
     64          1           0       -1.640432    5.070182   -0.716342
     65          1           0        7.512226   -2.594822   -1.069330
     66          1           0        6.964772   -4.370553   -1.270548
     67          1           0        6.755743   -3.631034    0.188342
     68          1           0        6.901621   -0.466533   -0.236678
     69          1           0        4.958472    1.267769    0.300183
     70          1           0        6.401950    0.993046    1.116904
     71          1           0        4.754520    0.350014    1.608469
     72          1           0        3.693952    6.369778   -0.736633
     73          1           0        4.490771    4.716671   -0.883985
     74          1           0        0.241711    6.457457   -1.640037
     75          1           0        1.578077    7.254611   -0.860336
     76          1           0        0.106387    6.808846    0.062180
     77          1           0        3.744570    6.290797    1.795902
     78          1           0        5.306389    6.051038    1.135325
     79          1           0        4.388602    4.629937    1.865381
     80          1           0       -3.970628   -4.986964   -1.524729
     81          1           0       -7.855534   -2.094160   -1.788726
 ---------------------------------------------------------------------

 SCF Done:  E(RB3LYP) =  -1949.05884621     A.U. after   16 cycles

 Excitation energies and oscillator strengths:

 Excited State   1:      Singlet-A      1.7850 eV  694.60 nm  f=0.3182  <S**2>=0.000
     156 ->157         0.70808
     156 <-157        -0.10932
 This state for optimization and/or second-order correction.
 Total Energy, E(TD-HF/TD-DFT) =  -1948.99324998
 Copying the excited state density for this state as the 1-particle RhoCI density.

 The electronic state is 1-A.
 Alpha  occ. eigenvalues --  -19.20752 -19.19797 -19.14291 -19.11973 -19.09951
 Alpha  occ. eigenvalues --  -19.09783 -14.37573 -14.37260 -14.34392 -14.26949
 Alpha  occ. eigenvalues --  -10.34399 -10.31404 -10.29702 -10.26115 -10.25012
 Alpha  occ. eigenvalues --  -10.24142 -10.23251 -10.23178 -10.22535 -10.22300
 Alpha  occ. eigenvalues --  -10.21390 -10.21321 -10.21291 -10.21218 -10.21200
 Alpha  occ. eigenvalues --  -10.20960 -10.20631 -10.20518 -10.20487 -10.19857
 Alpha  occ. eigenvalues --  -10.19840 -10.19707 -10.19563 -10.19368 -10.19183
 Alpha  occ. eigenvalues --  -10.18965 -10.18632 -10.17946 -10.17782 -10.17663
 Alpha  occ. eigenvalues --  -10.17424 -10.17027 -10.16502  -1.12286  -1.08585
 Alpha  occ. eigenvalues --   -1.03928  -0.99801  -0.99245  -0.99082  -0.97576
 Alpha  occ. eigenvalues --   -0.96491  -0.95195  -0.91109  -0.83409  -0.82666
 Alpha  occ. eigenvalues --   -0.82490  -0.81915  -0.79879  -0.79509  -0.78733
 Alpha  occ. eigenvalues --   -0.78015  -0.76486  -0.74911  -0.73991  -0.72621
 Alpha  occ. eigenvalues --   -0.72151  -0.70653  -0.70075  -0.69618  -0.68326
 Alpha  occ. eigenvalues --   -0.67567  -0.65618  -0.64700  -0.62833  -0.62064
 Alpha  occ. eigenvalues --   -0.61301  -0.60384  -0.59088  -0.58573  -0.57761
 Alpha  occ. eigenvalues --   -0.57251  -0.56296  -0.55696  -0.54582  -0.54263
 Alpha  occ. eigenvalues --   -0.52848  -0.52566  -0.51407  -0.50905  -0.50077
 Alpha  occ. eigenvalues --   -0.49874  -0.49306  -0.48632  -0.48186  -0.48042
 Alpha  occ. eigenvalues --   -0.47479  -0.46665  -0.46229  -0.46032  -0.45923
 Alpha  occ. eigenvalues --   -0.45278  -0.44914  -0.44372  -0.43867  -0.43577
 Alpha  occ. eigenvalues --   -0.43442  -0.43304  -0.42842  -0.42663  -0.42192
 Alpha  occ. eigenvalues --   -0.41966  -0.41573  -0.41418  -0.41315  -0.40902
 Alpha  occ. eigenvalues --   -0.40560  -0.40264  -0.40082  -0.39852  -0.39771
 Alpha  occ. eigenvalues --   -0.39555  -0.39401  -0.38942  -0.38785  -0.38066
 Alpha  occ. eigenvalues --   -0.38042  -0.37724  -0.37501  -0.37206  -0.36824
 Alpha  occ. eigenvalues --   -0.36609  -0.35538  -0.35252  -0.34897  -0.34014
 Alpha  occ. eigenvalues --   -0.33638  -0.33084  -0.32827  -0.32675  -0.32450
 Alpha  occ. eigenvalues --   -0.31369  -0.31139  -0.30630  -0.29410  -0.29290
 Alpha  occ. eigenvalues --   -0.26991  -0.26519  -0.25838  -0.25644  -0.25396
 Alpha  occ. eigenvalues --   -0.25146  -0.24618  -0.23067  -0.22737  -0.20654
 Alpha  occ. eigenvalues --   -0.17791
 Alpha virt. eigenvalues --   -0.10507  -0.05413  -0.04346  -0.03591  -0.01088
 Alpha virt. eigenvalues --   -0.00189   0.00390   0.00960   0.02029   0.03490
 Alpha virt. eigenvalues --    0.04520   0.04660   0.05422   0.05582   0.06361

 Mulliken charges:
               1
     1  O   -0.208983
     2  O   -0.254795
     3  O   -0.148602
     4  O   -0.270816
     5  O   -0.337718
     6  O   -0.251961
     7  N   -0.109271
     8  N    0.059429
     9  N   -0.075027
    10  N   -0.286458
    11  C   -0.090784
    12  C    0.125614
    13  C   -0.161154
    14  C    0.066757
    15  C   -0.076871
    16  C    0.120569
    17  C   -0.120767
    18  C   -0.172331
    19  C    0.104136
    20  C   -0.040910
    21  C    0.064236
    22  C    0.051467
    23  C    0.014771
    24  C    0.008252
    25  C   -0.101312
    26  C    0.118509
    27  C    0.118073
    28  C    0.026596
    29  C    0.125856
    30  C    0.184642
    31  C   -0.105381
    32  C    0.064642
    33  C   -0.187424
    34  C    0.059495
    35  C   -0.101838
    36  C   -0.155142
    37  C    0.172607
    38  C    0.065523
    39  C    0.134589
    40  C   -0.010253
    41  C    0.181901
    42  C    0.154106
    43  C    0.001389
    44  H    0.148786
    45  H    0.046239
    46  H    0.031748
    47  H   -0.048203
    48  H    0.040715
    49  H    0.028704
    50  H    0.008924
    51  H    0.011325
    52  H    0.000500
    53  H    0.030036
    54  H    0.025781
    55  H   -0.002548
    56  H    0.115924
    57  H    0.008241
    58  H    0.064588
    59  H    0.050427
    60  H   -0.052039
    61  H   -0.000791
    62  H    0.017352
    63  H    0.044642
    64  H   -0.059841
    65  H    0.029122
    66  H    0.002813
    67  H    0.011093
    68  H    0.032045
    69  H    0.042651
    70  H   -0.003848
    71  H    0.020228
    72  H    0.005024
    73  H    0.026238
    74  H    0.004557
    75  H   -0.003188
    76  H    0.024217
    77  H    0.003618
    78  H    0.001018
    79  H    0.034957
    80  H    0.240817
    81  H    0.262767
 Sum of Mulliken charges =  -0.00000

 Dipole moment (field-independent basis, Debye):
    X=             -3.4487    Y=             -2.0742    Z=             -2.0234  Tot=              4.5044
 Quadrupole moment (field-independent basis, Debye-Ang):
   XX=           -250.4751   YY=           -237.4187   ZZ=           -250.9476
   XY=             25.5821   XZ=             22.7596   YZ=            -10.2049

 Normal termination of Gaussian 16 at Thu Jun 27 11:24:22 2019.
