 Gaussian 16, Revision A.03,
 Gaussian 16:  ES64L-G16RevA.03 25-Dec-2016

 --------------------------
 # td=(NStates=1) B3LYP/SVP
 --------------------------

 --
 TD
 --
 Symbolic Z-matrix:
 Charge =  0 Multiplicity = 1

                         Standard orientation:
 ---------------------------------------------------------------------
 Center     Atomic      Atomic             Coordinates (Angstroms)
 Number     Number       Type             X           Y           Z
 ---------------------------------------------------------------------
      1          8           0        4.281366   -4.914896   -1.761351
      2          8           0       -2.927117   -4.730156   -1.125179
      3          8           0       -7.019052   -1.514314   -1.999136
      4          8           0       -3.792544   -3.177416    0.181383
      5          8           0       -7.576391   -0.564681   -0.007792
      6          8           0        3.091129    2.410356    0.495210
      7          7           0        0.256848   -0.504009    0.709707
      8          7           0       -1.623059    1.898700    0.506282
      9          7           0        3.196068   -3.229164   -0.726820
     10          7           0        0.817655    2.825137    0.120588
     11          6           0       -0.595737   -2.403129    1.533196
     12          6           0       -0.945043   -0.992799    1.155358
     13          6           0        0.822663   -2.636479    1.340378
     14          6           0        1.334487   -1.390935    0.745006
     15          6           0       -3.845731    1.508411    0.160774
     16          6           0       -2.555162    0.890259    0.596406
     17          6           0       -2.241369   -0.462023    0.963215
     18          6           0       -3.565267    2.796587   -0.120352
     19          6           0       -1.597640   -3.372495    2.121776
     20          6           0        5.424964   -2.791044   -1.395866
     21          6           0        3.501086   -1.864537   -0.230996
     22          6           0       -2.228361    3.146658   -0.017579
     23          6           0        4.942599   -1.615546   -0.655920
     24          6           0       -5.184941    0.753979    0.257810
     25          6           0        2.667910   -1.043940    0.369647
     26          6           0        1.335810   -3.947700    1.679724
     27          6           0        4.298069   -3.775304   -1.360328
     28          6           0       -2.025051   -4.459225    1.139378
     29          6           0       -5.408389   -0.078575   -0.881593
     30          6           0       -4.498751    3.931411   -0.659992
     31          6           0       -1.228535    4.142052   -0.260431
     32          6           0        6.819160   -3.381480   -1.143848
     33          6           0        5.760700   -0.657361   -0.069942
     34          6           0        0.158571    4.007665   -0.100342
     35          6           0        1.095684    5.138899   -0.376656
     36          6           0        2.402141    4.663611   -0.247377
     37          6           0       -2.987944   -4.118628    0.010899
     38          6           0        5.554182    0.564347    0.749613
     39          6           0       -6.726940   -0.730747   -0.862621
     40          6           0        3.775994    5.372425   -0.331342
     41          6           0        2.190432    3.146582    0.170696
     42          6           0        0.656548    6.505760   -0.856334
     43          6           0        4.379889    5.678776    1.021268
     44          1           0        0.529996    0.363947    0.354749
     45          1           0       -3.057489   -1.128761    0.828073
     46          1           0       -2.553409   -2.708000    2.286976
     47          1           0       -1.254259   -4.025878    2.988718
     48          1           0        5.456947   -2.424417   -2.415512
     49          1           0       -5.359714    0.223754    1.205304
     50          1           0       -6.015195    1.484971    0.309266
     51          1           0        2.916061    0.002136    0.608357
     52          1           0       -0.705724    1.750142    0.624969
     53          1           0        1.344307   -4.801245    1.020967
     54          1           0        2.474060   -3.769415    1.717505
     55          1           0        1.070713   -4.276744    2.686530
     56          1           0        2.322810   -3.467095   -0.735008
     57          1           0       -1.099791   -4.791628    0.537140
     58          1           0       -2.514903   -5.290285    1.719374
     59          1           0       -4.739591   -0.936474   -1.011311
     60          1           0       -5.413687    0.439896   -1.790584
     61          1           0       -4.095496    5.015332   -0.397249
     62          1           0       -5.721241    3.850425   -0.502009
     63          1           0       -4.426502    4.037399   -1.789461
     64          1           0       -1.588884    4.801796   -0.625901
     65          1           0        7.489266   -2.534474   -1.386026
     66          1           0        7.239392   -4.272003   -1.924184
     67          1           0        6.835269   -3.632551   -0.103245
     68          1           0        6.934370   -1.040630   -0.573552
     69          1           0        5.028524    1.329679    0.257134
     70          1           0        6.627872    0.964697    1.180038
     71          1           0        4.929440    0.268041    1.670326
     72          1           0        3.463521    6.159513   -0.960590
     73          1           0        4.512026    4.647385   -0.776683
     74          1           0        0.256994    6.528592   -1.737465
     75          1           0        1.489168    7.305442   -0.666486
     76          1           0       -0.137867    6.926075   -0.102458
     77          1           0        3.697262    6.380843    1.382787
     78          1           0        5.351168    5.778639    0.830818
     79          1           0        4.273475    4.777682    1.601281
     80          1           0       -3.567140   -4.340177   -1.853885
     81          1           0       -7.899619   -1.755260   -1.653824
 ---------------------------------------------------------------------

 SCF Done:  E(RB3LYP) =  -1949.01818040     A.U. after   17 cycles

 Excitation energies and oscillator strengths:

 Excited State   1:      Singlet-A      1.7469 eV  709.74 nm  f=0.3572  <S**2>=0.000
     156 ->157         0.71353
     156 <-157        -0.14713
 This state for optimization and/or second-order correction.
 Total Energy, E(TD-HF/TD-DFT) =  -1948.95398325
 Copying the excited state density for this state as the 1-particle RhoCI density.

 The electronic state is 1-A.
 Alpha  occ. eigenvalues --  -19.21185 -19.17927 -19.13613 -19.12666 -19.10871
 Alpha  occ. eigenvalues --  -19.10380 -14.38340 -14.35985 -14.34905 -14.29004
 Alpha  occ. eigenvalues --  -10.33375 -10.32167 -10.29002 -10.26738 -10.24805
 Alpha  occ. eigenvalues --  -10.24704 -10.24630 -10.24333 -10.23859 -10.23234
 Alpha  occ. eigenvalues --  -10.22439 -10.22436 -10.22050 -10.21806 -10.21651
 Alpha  occ. eigenvalues --  -10.21505 -10.21095 -10.20811 -10.20697 -10.20538
 Alpha  occ. eigenvalues --  -10.20515 -10.20508 -10.20317 -10.19998 -10.19905
 Alpha  occ. eigenvalues --  -10.19769 -10.19693 -10.19568 -10.19247 -10.19163
 Alpha  occ. eigenvalues --  -10.18709 -10.17364 -10.16169  -1.11977  -1.09224
 Alpha  occ. eigenvalues --   -1.03611  -1.02117  -1.00268  -0.99782  -0.98281
 Alpha  occ. eigenvalues --   -0.96342  -0.94239  -0.90196  -0.83427  -0.82817
 Alpha  occ. eigenvalues --   -0.82160  -0.81709  -0.80246  -0.79417  -0.78592
 Alpha  occ. eigenvalues --   -0.77870  -0.77097  -0.75655  -0.74830  -0.72448
 Alpha  occ. eigenvalues --   -0.70982  -0.70239  -0.68954  -0.68656  -0.68206
 Alpha  occ. eigenvalues --   -0.68013  -0.66037  -0.65179  -0.62489  -0.62378
 Alpha  occ. eigenvalues --   -0.61452  -0.59833  -0.59326  -0.58353  -0.56746
 Alpha  occ. eigenvalues --   -0.56238  -0.55793  -0.55298  -0.53652  -0.52490
 Alpha  occ. eigenvalues --   -0.51932  -0.51461  -0.50686  -0.50534  -0.50295
 Alpha  occ. eigenvalues --   -0.49658  -0.49555  -0.49233  -0.49084  -0.48884
 Alpha  occ. eigenvalues --   -0.48212  -0.47373  -0.46633  -0.46290  -0.45448
 Alpha  occ. eigenvalues --   -0.44784  -0.44676  -0.44453  -0.44153  -0.43894
 Alpha  occ. eigenvalues --   -0.43681  -0.43504  -0.43281  -0.43210  -0.42534
 Alpha  occ. eigenvalues --   -0.42095  -0.42026  -0.41545  -0.41328  -0.41110
 Alpha  occ. eigenvalues --   -0.40807  -0.40609  -0.40544  -0.40369  -0.39831
 Alpha  occ. eigenvalues --   -0.39619  -0.39024  -0.38720  -0.38367  -0.38151
 Alpha  occ. eigenvalues --   -0.38072  -0.37938  -0.37699  -0.37575  -0.37041
 Alpha  occ. eigenvalues --   -0.36702  -0.36533  -0.36432  -0.34931  -0.34516
 Alpha  occ. eigenvalues --   -0.34453  -0.34277  -0.33397  -0.33029  -0.32848
 Alpha  occ. eigenvalues --   -0.32651  -0.32485  -0.30841  -0.29701  -0.29034
 Alpha  occ. eigenvalues --   -0.28149  -0.28109  -0.26680  -0.26232  -0.25942
 Alpha  occ. eigenvalues --   -0.24986  -0.24886  -0.23789  -0.23022  -0.22134
 Alpha  occ. eigenvalues --   -0.17877
 Alpha virt. eigenvalues --   -0.11161  -0.05660  -0.04013  -0.01526  -0.00295
 Alpha virt. eigenvalues --    0.00155   0.00902   0.01402   0.02670   0.03636
 Alpha virt. eigenvalues --    0.03859   0.04235   0.04745   0.05243   0.06274

 Mulliken charges:
               1
     1  O   -0.198176
     2  O   -0.159403
     3  O   -0.226350
     4  O   -0.290009
     5  O   -0.239877
     6  O   -0.205003
     7  N   -0.049118
     8  N   -0.093898
     9  N   -0.090186
    10  N   -0.319199
    11  C   -0.148839
    12  C    0.117076
    13  C   -0.110723
    14  C   -0.000399
    15  C   -0.080519
    16  C    0.000958
    17  C   -0.007035
    18  C   -0.059482
    19  C    0.095838
    20  C   -0.013349
    21  C    0.113541
    22  C    0.125022
    23  C   -0.062319
    24  C    0.117545
    25  C   -0.106305
    26  C    0.047371
    27  C    0.104934
    28  C   -0.019934
    29  C    0.087295
    30  C   -0.033180
    31  C    0.081462
    32  C    0.031999
    33  C   -0.183614
    34  C    0.177973
    35  C   -0.137458
    36  C   -0.221097
    37  C    0.112496
    38  C    0.059500
    39  C    0.120912
    40  C    0.055577
    41  C    0.164501
    42  C    0.129935
    43  C    0.141427
    44  H    0.112542
    45  H    0.005896
    46  H    0.043021
    47  H    0.022638
    48  H    0.035625
    49  H    0.028720
    50  H   -0.000057
    51  H    0.026577
    52  H    0.058254
    53  H    0.036877
    54  H    0.019436
    55  H    0.020807
    56  H    0.066800
    57  H    0.041568
    58  H    0.051801
    59  H    0.035761
    60  H    0.011784
    61  H    0.040051
    62  H    0.050668
    63  H    0.031918
    64  H   -0.273113
    65  H    0.023861
    66  H    0.060988
    67  H    0.024213
    68  H    0.019460
    69  H    0.060365
    70  H    0.036554
    71  H    0.047141
    72  H   -0.005176
    73  H    0.005755
    74  H   -0.008562
    75  H    0.029117
    76  H    0.017274
    77  H   -0.004533
    78  H   -0.015998
    79  H    0.004440
    80  H    0.240075
    81  H    0.167558
 Sum of Mulliken charges =  -0.00000

 Dipole moment (field-independent basis, Debye):
    X=             -1.6047    Y=              0.5885    Z=             -1.4527  Tot=              2.2432
 Quadrupole moment (field-independent basis, Debye-Ang):
   XX=           -255.3053   YY=           -243.5707   ZZ=           -254.2237
   XY=             13.0530   XZ=             12.7826   YZ=            -13.4204

 Normal termination of Gaussian 16 at Thu Jun 27 08:17:54 2019.
