 Gaussian 16, Revision A.03,
 Gaussian 16:  ES64L-G16RevA.03 25-Dec-2016

 --------------------------
 # td=(NStates=1) B3LYP/SVP
 --------------------------

 --
 TD
 --
 Symbolic Z-matrix:
 Charge =  0 Multiplicity = 1

                         Standard orientation:
 ---------------------------------------------------------------------
 Center     Atomic      Atomic             Coordinates (Angstroms)
 Number     Number       Type             X           Y           Z
 ---------------------------------------------------------------------
      1          8           0        4.019275   -4.941784   -1.994405
      2          8           0       -3.131236   -4.716610   -1.161977
      3          8           0       -6.844372   -1.559380   -1.836574
      4          8           0       -3.855008   -2.932309    0.033110
      5          8           0       -7.556797   -0.527978    0.091305
      6          8           0        3.049762    2.394723    0.483532
      7          7           0        0.226409   -0.536106    0.612590
      8          7           0       -1.465100    1.917845    0.424929
      9          7           0        3.220050   -3.238989   -0.597514
     10          7           0        0.896020    2.957170    0.171525
     11          6           0       -0.663308   -2.382173    1.477526
     12          6           0       -0.997952   -0.984915    1.020607
     13          6           0        0.708207   -2.569733    1.300218
     14          6           0        1.266969   -1.485595    0.750571
     15          6           0       -3.734625    1.546587    0.254033
     16          6           0       -2.492960    0.911807    0.596164
     17          6           0       -2.279007   -0.383316    0.989165
     18          6           0       -3.527472    2.875741   -0.103318
     19          6           0       -1.733516   -3.235039    2.086691
     20          6           0        5.444322   -2.883716   -1.380834
     21          6           0        3.524642   -2.044943   -0.037697
     22          6           0       -1.995294    3.023556   -0.066343
     23          6           0        4.938110   -1.782419   -0.501579
     24          6           0       -5.064786    0.935995    0.331525
     25          6           0        2.594980   -1.134338    0.404872
     26          6           0        1.332640   -3.899697    1.748245
     27          6           0        4.185702   -3.894424   -1.431161
     28          6           0       -2.220458   -4.371691    1.100261
     29          6           0       -5.264198   -0.051193   -0.841236
     30          6           0       -4.328840    3.967789   -0.636654
     31          6           0       -1.180530    4.230923   -0.453049
     32          6           0        6.670401   -3.663997   -0.867343
     33          6           0        5.757666   -0.680278   -0.186389
     34          6           0        0.234250    4.045506   -0.282556
     35          6           0        1.200354    5.156385   -0.533527
     36          6           0        2.475183    4.713155   -0.122823
     37          6           0       -3.223060   -3.919601   -0.077864
     38          6           0        5.465565    0.490853    0.569334
     39          6           0       -6.664196   -0.620506   -0.778102
     40          6           0        3.785820    5.218716   -0.204178
     41          6           0        2.197714    3.209199    0.199707
     42          6           0        0.762193    6.560379   -1.025507
     43          6           0        4.484613    5.337418    1.209234
     44          1           0        0.581560    0.475330    0.534165
     45          1           0       -3.118436   -0.913841    1.074031
     46          1           0       -2.443312   -2.549436    2.388665
     47          1           0       -1.267615   -3.571270    3.060469
     48          1           0        5.602397   -2.846399   -2.534289
     49          1           0       -5.193444    0.415267    1.262338
     50          1           0       -5.688955    1.628082    0.355035
     51          1           0        2.864689   -0.205901   -0.000139
     52          1           0       -0.571883    1.885010    0.513818
     53          1           0        1.198553   -4.831907    0.938832
     54          1           0        2.388491   -3.820117    1.849004
     55          1           0        0.729029   -4.216232    2.712431
     56          1           0        2.351399   -3.723862   -0.631099
     57          1           0       -1.315450   -5.048541    0.761061
     58          1           0       -2.700320   -5.087080    1.773799
     59          1           0       -4.829388   -0.883993   -1.008508
     60          1           0       -5.118409    0.516850   -1.677456
     61          1           0       -4.135395    5.066593    0.030856
     62          1           0       -5.524224    3.798012   -0.858924
     63          1           0       -4.131808    4.273335   -1.522208
     64          1           0       -1.543594    5.180879   -0.825179
     65          1           0        7.755206   -3.225557   -0.871851
     66          1           0        6.705563   -4.746605   -1.183496
     67          1           0        6.492341   -3.662992    0.190802
     68          1           0        6.581231   -0.618827   -0.716537
     69          1           0        5.130125    1.409585   -0.031231
     70          1           0        6.340780    0.790329    1.206631
     71          1           0        4.754651    0.503966    1.314426
     72          1           0        3.791386    6.072245   -0.807567
     73          1           0        4.397161    4.648383   -0.824516
     74          1           0        0.338784    6.405006   -1.938875
     75          1           0        1.573376    7.347309   -0.984211
     76          1           0        0.074080    6.975625   -0.327621
     77          1           0        4.005407    6.060595    1.961708
     78          1           0        5.483466    5.758042    0.874761
     79          1           0        4.351986    4.344049    1.461456
     80          1           0       -3.753250   -4.334360   -1.831365
     81          1           0       -7.705601   -2.118931   -1.937826
 ---------------------------------------------------------------------

 SCF Done:  E(RB3LYP) =  -1949.02943058     A.U. after   17 cycles

 Excitation energies and oscillator strengths:

 Excited State   1:      Singlet-A      1.8098 eV  685.06 nm  f=0.3940  <S**2>=0.000
     156 ->157         0.70680
     156 <-157        -0.11438
 This state for optimization and/or second-order correction.
 Total Energy, E(TD-HF/TD-DFT) =  -1948.96292077
 Copying the excited state density for this state as the 1-particle RhoCI density.

 The electronic state is 1-A.
 Alpha  occ. eigenvalues --  -19.20713 -19.16785 -19.15453 -19.13065 -19.12950
 Alpha  occ. eigenvalues --  -19.09064 -14.37345 -14.37255 -14.36351 -14.27611
 Alpha  occ. eigenvalues --  -10.34581 -10.32766 -10.30365 -10.25428 -10.25242
 Alpha  occ. eigenvalues --  -10.24933 -10.23520 -10.23320 -10.22956 -10.22816
 Alpha  occ. eigenvalues --  -10.22651 -10.21976 -10.21680 -10.21337 -10.21096
 Alpha  occ. eigenvalues --  -10.20899 -10.20849 -10.20801 -10.20703 -10.19852
 Alpha  occ. eigenvalues --  -10.19680 -10.19575 -10.19550 -10.19485 -10.19275
 Alpha  occ. eigenvalues --  -10.18920 -10.18778 -10.18338 -10.18333 -10.17872
 Alpha  occ. eigenvalues --  -10.17646 -10.16835 -10.16692  -1.12303  -1.05317
 Alpha  occ. eigenvalues --   -1.05153  -1.04351  -1.01077  -0.98956  -0.97457
 Alpha  occ. eigenvalues --   -0.97192  -0.96177  -0.91026  -0.84402  -0.81727
 Alpha  occ. eigenvalues --   -0.81654  -0.81417  -0.79558  -0.79194  -0.78875
 Alpha  occ. eigenvalues --   -0.76935  -0.75991  -0.75657  -0.74262  -0.72479
 Alpha  occ. eigenvalues --   -0.71621  -0.70332  -0.69585  -0.68186  -0.67896
 Alpha  occ. eigenvalues --   -0.67506  -0.65298  -0.64420  -0.62909  -0.62068
 Alpha  occ. eigenvalues --   -0.61401  -0.60429  -0.59237  -0.58427  -0.58002
 Alpha  occ. eigenvalues --   -0.57156  -0.55993  -0.55391  -0.54533  -0.53010
 Alpha  occ. eigenvalues --   -0.52840  -0.51754  -0.51470  -0.51325  -0.50434
 Alpha  occ. eigenvalues --   -0.49565  -0.49140  -0.48715  -0.48142  -0.47449
 Alpha  occ. eigenvalues --   -0.47053  -0.46446  -0.45946  -0.45671  -0.45284
 Alpha  occ. eigenvalues --   -0.45117  -0.44750  -0.44539  -0.44213  -0.43966
 Alpha  occ. eigenvalues --   -0.43773  -0.43564  -0.43198  -0.42654  -0.42231
 Alpha  occ. eigenvalues --   -0.41800  -0.41584  -0.41285  -0.41218  -0.40892
 Alpha  occ. eigenvalues --   -0.40754  -0.40484  -0.40411  -0.40055  -0.39843
 Alpha  occ. eigenvalues --   -0.39672  -0.39453  -0.39370  -0.38542  -0.38395
 Alpha  occ. eigenvalues --   -0.38209  -0.37854  -0.37488  -0.37208  -0.37030
 Alpha  occ. eigenvalues --   -0.36566  -0.36405  -0.36050  -0.35280  -0.35188
 Alpha  occ. eigenvalues --   -0.35077  -0.34204  -0.34007  -0.33954  -0.33805
 Alpha  occ. eigenvalues --   -0.32751  -0.32213  -0.31221  -0.30575  -0.30356
 Alpha  occ. eigenvalues --   -0.27810  -0.27075  -0.26592  -0.26315  -0.25497
 Alpha  occ. eigenvalues --   -0.25008  -0.24310  -0.23073  -0.22216  -0.21239
 Alpha  occ. eigenvalues --   -0.17360
 Alpha virt. eigenvalues --   -0.10120  -0.05918  -0.04513  -0.01307  -0.01007
 Alpha virt. eigenvalues --   -0.00686   0.01911   0.02442   0.02859   0.02961
 Alpha virt. eigenvalues --    0.04001   0.04581   0.05106   0.06114   0.06361

 Mulliken charges:
               1
     1  O   -0.181930
     2  O   -0.176921
     3  O   -0.307650
     4  O   -0.173474
     5  O   -0.247362
     6  O   -0.228688
     7  N   -0.141216
     8  N    0.049940
     9  N   -0.134312
    10  N   -0.258627
    11  C   -0.153238
    12  C    0.089396
    13  C   -0.136931
    14  C    0.084327
    15  C   -0.157997
    16  C    0.106896
    17  C    0.013382
    18  C   -0.069386
    19  C    0.129359
    20  C   -0.082878
    21  C    0.111915
    22  C    0.030089
    23  C   -0.077240
    24  C    0.296006
    25  C   -0.038216
    26  C    0.022567
    27  C    0.115507
    28  C   -0.016164
    29  C    0.133697
    30  C    0.057426
    31  C   -0.098646
    32  C    0.013875
    33  C   -0.021769
    34  C    0.084645
    35  C   -0.158166
    36  C   -0.186156
    37  C    0.156074
    38  C    0.085082
    39  C    0.173115
    40  C    0.127856
    41  C    0.106744
    42  C    0.148098
    43  C   -0.003668
    44  H    0.177797
    45  H   -0.064343
    46  H   -0.017519
    47  H    0.016807
    48  H    0.056496
    49  H    0.006331
    50  H   -0.089528
    51  H    0.003029
    52  H    0.010803
    53  H    0.041416
    54  H    0.019059
    55  H    0.037017
    56  H    0.119927
    57  H    0.042843
    58  H    0.032650
    59  H   -0.037304
    60  H    0.003374
    61  H    0.040297
    62  H    0.030456
    63  H   -0.024141
    64  H   -0.022525
    65  H    0.034629
    66  H    0.039996
    67  H   -0.004250
    68  H   -0.055188
    69  H    0.073639
    70  H    0.001136
    71  H   -0.000745
    72  H   -0.050118
    73  H   -0.015212
    74  H    0.003368
    75  H    0.016153
    76  H    0.010752
    77  H    0.024324
    78  H    0.020221
    79  H    0.023292
    80  H    0.194237
    81  H    0.215467
 Sum of Mulliken charges =  -0.00000

 Dipole moment (field-independent basis, Debye):
    X=             -2.0967    Y=             -0.7505    Z=             -1.6382  Tot=              2.7647
 Quadrupole moment (field-independent basis, Debye-Ang):
   XX=           -251.3346   YY=           -240.4215   ZZ=           -252.5973
   XY=             13.0109   XZ=             15.1717   YZ=            -14.1575

 Normal termination of Gaussian 16 at Thu Jun 27 14:06:57 2019.
