 Gaussian 16, Revision A.03,
 Gaussian 16:  ES64L-G16RevA.03 25-Dec-2016

 --------------------------
 # td=(NStates=1) B3LYP/SVP
 --------------------------

 --
 TD
 --
 Symbolic Z-matrix:
 Charge =  0 Multiplicity = 1

                         Standard orientation:
 ---------------------------------------------------------------------
 Center     Atomic      Atomic             Coordinates (Angstroms)
 Number     Number       Type             X           Y           Z
 ---------------------------------------------------------------------
      1          8           0        4.227741   -4.911446   -1.699910
      2          8           0       -2.702566   -4.978661   -1.104054
      3          8           0       -6.933473   -1.766364   -1.759516
      4          8           0       -3.704574   -3.224342   -0.092501
      5          8           0       -7.601992   -0.715158    0.084719
      6          8           0        3.073459    2.499301    0.369253
      7          7           0        0.345937   -0.455626    0.643977
      8          7           0       -1.566502    1.911731    0.354551
      9          7           0        3.370369   -3.096396   -0.764810
     10          7           0        0.781630    2.935381    0.097735
     11          6           0       -0.697125   -2.380781    1.385490
     12          6           0       -0.895419   -0.998139    0.939465
     13          6           0        0.681403   -2.604236    1.142587
     14          6           0        1.373561   -1.416082    0.734682
     15          6           0       -3.868652    1.502572    0.262904
     16          6           0       -2.528596    0.926683    0.515775
     17          6           0       -2.199837   -0.439003    0.882667
     18          6           0       -3.614463    2.816880   -0.082458
     19          6           0       -1.601515   -3.329132    2.004788
     20          6           0        5.527434   -2.766654   -1.295413
     21          6           0        3.573502   -1.823353   -0.232003
     22          6           0       -2.222087    3.036670    0.008547
     23          6           0        4.994729   -1.635778   -0.494032
     24          6           0       -5.195651    0.738414    0.328106
     25          6           0        2.633362   -0.994444    0.311935
     26          6           0        1.430182   -3.820528    1.697247
     27          6           0        4.418792   -3.796265   -1.340200
     28          6           0       -1.966721   -4.462192    1.082850
     29          6           0       -5.360535   -0.282503   -0.839832
     30          6           0       -4.606778    3.835429   -0.427204
     31          6           0       -1.396094    4.141808   -0.370770
     32          6           0        6.894373   -3.309600   -0.800103
     33          6           0        5.806834   -0.571690   -0.100545
     34          6           0        0.047447    4.031140   -0.271982
     35          6           0        0.954658    5.206163   -0.510164
     36          6           0        2.250479    4.752967   -0.347360
     37          6           0       -2.819503   -4.054530   -0.038857
     38          6           0        5.434334    0.614053    0.783694
     39          6           0       -6.764621   -0.874578   -0.708998
     40          6           0        3.606606    5.331701   -0.314584
     41          6           0        2.191034    3.264176    0.053323
     42          6           0        0.526436    6.578569   -0.907776
     43          6           0        4.105416    5.592419    1.151895
     44          1           0        0.678947    0.417063    0.238236
     45          1           0       -3.061569   -1.133618    1.080123
     46          1           0       -2.383911   -2.752281    2.228848
     47          1           0       -1.163805   -3.681894    2.920086
     48          1           0        5.505332   -2.386187   -2.374633
     49          1           0       -5.169007    0.222298    1.384968
     50          1           0       -5.933617    1.458217    0.223484
     51          1           0        2.878549    0.125751    0.322722
     52          1           0       -0.568181    1.855049    0.332553
     53          1           0        1.680767   -4.741905    1.083217
     54          1           0        2.593305   -3.455510    1.870646
     55          1           0        1.054342   -4.182569    2.631409
     56          1           0        2.586766   -3.637130   -0.605323
     57          1           0       -0.997450   -4.922146    0.747350
     58          1           0       -2.345455   -5.263984    1.639210
     59          1           0       -4.562378   -1.080367   -0.809262
     60          1           0       -5.282422    0.364094   -1.749464
     61          1           0       -4.508747    4.838781   -0.027242
     62          1           0       -5.462656    3.608457   -0.407121
     63          1           0       -4.415539    4.061635   -1.646669
     64          1           0       -1.789578    5.072468   -0.509238
     65          1           0        7.626387   -2.353832   -0.773231
     66          1           0        7.166619   -4.213948   -1.421331
     67          1           0        6.650968   -3.546313    0.240580
     68          1           0        6.825733   -0.555990   -0.410261
     69          1           0        4.985470    1.314356    0.250659
     70          1           0        6.313436    1.000910    1.205559
     71          1           0        4.694116    0.528251    1.553987
     72          1           0        3.913277    6.390395   -0.795499
     73          1           0        4.216710    4.759705   -0.983307
     74          1           0        0.027773    6.672309   -1.889599
     75          1           0        1.460810    7.318078   -0.859728
     76          1           0       -0.275491    6.934048   -0.277528
     77          1           0        3.317033    6.189474    1.896345
     78          1           0        5.141604    6.094473    1.111270
     79          1           0        4.064427    4.617469    1.877311
     80          1           0       -3.480945   -4.830411   -1.563340
     81          1           0       -7.648311   -2.258430   -1.661924
 ---------------------------------------------------------------------

 SCF Done:  E(RB3LYP) =  -1949.12100926     A.U. after   17 cycles

 Excitation energies and oscillator strengths:

 Excited State   1:      Singlet-A      1.7410 eV  712.14 nm  f=0.3874  <S**2>=0.000
     156 ->157         0.71264
     156 <-157        -0.13786
 This state for optimization and/or second-order correction.
 Total Energy, E(TD-HF/TD-DFT) =  -1949.05702845
 Copying the excited state density for this state as the 1-particle RhoCI density.

 The electronic state is 1-A.
 Alpha  occ. eigenvalues --  -19.17985 -19.15709 -19.15693 -19.13646 -19.11864
 Alpha  occ. eigenvalues --  -19.11229 -14.37724 -14.35946 -14.35481 -14.28561
 Alpha  occ. eigenvalues --  -10.34325 -10.32018 -10.29333 -10.26966 -10.24722
 Alpha  occ. eigenvalues --  -10.24218 -10.23792 -10.23522 -10.23260 -10.22823
 Alpha  occ. eigenvalues --  -10.22070 -10.21968 -10.21265 -10.21134 -10.21068
 Alpha  occ. eigenvalues --  -10.20886 -10.20746 -10.20677 -10.20607 -10.20380
 Alpha  occ. eigenvalues --  -10.20376 -10.20360 -10.20210 -10.20043 -10.19944
 Alpha  occ. eigenvalues --  -10.19695 -10.19686 -10.19681 -10.19457 -10.18932
 Alpha  occ. eigenvalues --  -10.18849 -10.18340 -10.15954  -1.10611  -1.10573
 Alpha  occ. eigenvalues --   -1.05903  -1.02381  -1.02201  -1.02045  -0.98445
 Alpha  occ. eigenvalues --   -0.97330  -0.95949  -0.89462  -0.84735  -0.82358
 Alpha  occ. eigenvalues --   -0.82133  -0.80906  -0.79169  -0.78657  -0.78519
 Alpha  occ. eigenvalues --   -0.77422  -0.76199  -0.74918  -0.74168  -0.72235
 Alpha  occ. eigenvalues --   -0.72006  -0.70732  -0.69456  -0.68758  -0.67749
 Alpha  occ. eigenvalues --   -0.67163  -0.66024  -0.65015  -0.62308  -0.61319
 Alpha  occ. eigenvalues --   -0.60937  -0.59859  -0.58982  -0.57965  -0.57342
 Alpha  occ. eigenvalues --   -0.56689  -0.55625  -0.55504  -0.54823  -0.53677
 Alpha  occ. eigenvalues --   -0.53266  -0.51987  -0.51365  -0.50649  -0.50188
 Alpha  occ. eigenvalues --   -0.50000  -0.49717  -0.49018  -0.48404  -0.47820
 Alpha  occ. eigenvalues --   -0.47388  -0.47124  -0.46288  -0.45999  -0.44983
 Alpha  occ. eigenvalues --   -0.44743  -0.44588  -0.44276  -0.43928  -0.43648
 Alpha  occ. eigenvalues --   -0.43489  -0.43296  -0.42916  -0.42705  -0.42545
 Alpha  occ. eigenvalues --   -0.42378  -0.41989  -0.41540  -0.41008  -0.40773
 Alpha  occ. eigenvalues --   -0.40724  -0.40336  -0.40083  -0.39892  -0.39663
 Alpha  occ. eigenvalues --   -0.39545  -0.39377  -0.39050  -0.38665  -0.38526
 Alpha  occ. eigenvalues --   -0.38369  -0.38188  -0.37909  -0.37464  -0.37144
 Alpha  occ. eigenvalues --   -0.37030  -0.36580  -0.36424  -0.36001  -0.35960
 Alpha  occ. eigenvalues --   -0.35459  -0.34776  -0.34700  -0.33848  -0.33742
 Alpha  occ. eigenvalues --   -0.32781  -0.32707  -0.30812  -0.30029  -0.29464
 Alpha  occ. eigenvalues --   -0.29064  -0.27620  -0.27065  -0.26308  -0.25533
 Alpha  occ. eigenvalues --   -0.25225  -0.24971  -0.23918  -0.22742  -0.21280
 Alpha  occ. eigenvalues --   -0.17173
 Alpha virt. eigenvalues --   -0.10420  -0.06113  -0.04573  -0.03343   0.00175
 Alpha virt. eigenvalues --    0.00660   0.02059   0.03665   0.03870   0.04046
 Alpha virt. eigenvalues --    0.05134   0.05279   0.05882   0.06319   0.06939

 Mulliken charges:
               1
     1  O   -0.169728
     2  O   -0.189489
     3  O   -0.170317
     4  O   -0.215110
     5  O   -0.162297
     6  O   -0.198537
     7  N   -0.112320
     8  N   -0.030066
     9  N   -0.104986
    10  N   -0.371434
    11  C   -0.179317
    12  C    0.119771
    13  C   -0.128082
    14  C    0.109395
    15  C   -0.109021
    16  C    0.041171
    17  C   -0.095184
    18  C   -0.138497
    19  C    0.233141
    20  C   -0.046172
    21  C    0.129608
    22  C    0.099999
    23  C   -0.070146
    24  C    0.126723
    25  C   -0.143417
    26  C   -0.027549
    27  C    0.083519
    28  C    0.059414
    29  C   -0.043707
    30  C    0.234659
    31  C   -0.071721
    32  C    0.022648
    33  C   -0.146529
    34  C    0.089438
    35  C   -0.093636
    36  C   -0.160160
    37  C    0.160613
    38  C    0.160980
    39  C    0.133073
    40  C    0.057720
    41  C    0.181562
    42  C    0.086114
    43  C   -0.097706
    44  H    0.144294
    45  H    0.024559
    46  H   -0.046376
    47  H   -0.000587
    48  H    0.054858
    49  H    0.043851
    50  H   -0.017647
    51  H    0.054853
    52  H    0.105730
    53  H    0.037663
    54  H    0.040459
    55  H    0.013880
    56  H    0.087566
    57  H    0.037602
    58  H    0.028337
    59  H    0.081600
    60  H    0.045997
    61  H    0.018599
    62  H   -0.119021
    63  H    0.017720
    64  H   -0.075650
    65  H    0.045920
    66  H    0.054903
    67  H    0.023812
    68  H   -0.017744
    69  H    0.007405
    70  H   -0.013086
    71  H    0.015595
    72  H    0.000928
    73  H    0.010255
    74  H    0.020616
    75  H    0.041427
    76  H    0.007573
    77  H    0.030092
    78  H    0.035963
    79  H    0.039618
    80  H    0.147472
    81  H    0.116542
 Sum of Mulliken charges =  -0.00000

 Dipole moment (field-independent basis, Debye):
    X=             -1.4250    Y=             -0.5172    Z=              0.2735  Tot=              1.5404
 Quadrupole moment (field-independent basis, Debye-Ang):
   XX=           -246.7235   YY=           -241.9078   ZZ=           -255.3109
   XY=             11.4678   XZ=              6.8878   YZ=            -17.0608

 Normal termination of Gaussian 16 at Tue Jul  2 15:41:04 2019.
