 Gaussian 16, Revision A.03,
 Gaussian 16:  ES64L-G16RevA.03 25-Dec-2016

 --------------------------
 # td=(NStates=1) B3LYP/SVP
 --------------------------

 --
 TD
 --
 Symbolic Z-matrix:
 Charge =  0 Multiplicity = 1

                         Standard orientation:
 ---------------------------------------------------------------------
 Center     Atomic      Atomic             Coordinates (Angstroms)
 Number     Number       Type             X           Y           Z
 ---------------------------------------------------------------------
      1          8           0        3.996472   -4.949697   -1.985138
      2          8           0       -3.257010   -5.001027   -0.781327
      3          8           0       -6.896941   -1.525833   -1.875114
      4          8           0       -3.812775   -2.963476    0.168227
      5          8           0       -7.623640   -0.272855   -0.156197
      6          8           0        3.076215    2.269992    0.453557
      7          7           0        0.220512   -0.506301    0.508935
      8          7           0       -1.511944    1.936500    0.397310
      9          7           0        3.099577   -3.169836   -0.713721
     10          7           0        0.823720    2.867924    0.290132
     11          6           0       -0.716830   -2.321305    1.433023
     12          6           0       -1.025018   -0.993083    0.857227
     13          6           0        0.658542   -2.618089    1.197381
     14          6           0        1.239480   -1.394468    0.685852
     15          6           0       -3.769320    1.676128    0.187478
     16          6           0       -2.468389    0.950541    0.543240
     17          6           0       -2.180941   -0.343784    0.940977
     18          6           0       -3.405147    2.980871   -0.189124
     19          6           0       -1.641779   -3.245408    2.102378
     20          6           0        5.326513   -2.956793   -1.390145
     21          6           0        3.524276   -1.898696   -0.153278
     22          6           0       -2.014623    3.124242    0.029933
     23          6           0        4.936876   -1.768235   -0.507190
     24          6           0       -5.083714    0.898360    0.219981
     25          6           0        2.642735   -1.056134    0.449795
     26          6           0        1.438153   -3.814683    1.743371
     27          6           0        4.165646   -3.797250   -1.494908
     28          6           0       -2.187379   -4.385122    1.173403
     29          6           0       -5.261478   -0.051231   -0.817049
     30          6           0       -4.407425    4.024212   -0.470112
     31          6           0       -1.161800    4.142213   -0.321696
     32          6           0        6.708151   -3.653321   -1.085890
     33          6           0        5.657287   -0.638873   -0.122859
     34          6           0        0.240033    4.009986   -0.223187
     35          6           0        1.218412    5.106050   -0.505471
     36          6           0        2.454175    4.510172   -0.267228
     37          6           0       -3.149338   -3.986914    0.154759
     38          6           0        5.448965    0.544136    0.813930
     39          6           0       -6.708956   -0.619396   -0.942444
     40          6           0        3.873737    4.969175   -0.242943
     41          6           0        2.194942    3.070494    0.160386
     42          6           0        0.858309    6.464130   -0.966310
     43          6           0        4.627508    5.322061    1.160070
     44          1           0        0.295227    0.495108    0.290710
     45          1           0       -3.131093   -0.861280    1.120306
     46          1           0       -2.491215   -2.602016    2.607281
     47          1           0       -1.394769   -3.793955    3.044947
     48          1           0        5.486495   -2.452971   -2.409108
     49          1           0       -5.380288    0.438414    1.206663
     50          1           0       -5.946509    1.558640    0.149118
     51          1           0        3.052985    0.009874    0.296997
     52          1           0       -0.575151    1.821085    0.619420
     53          1           0        1.523397   -4.757856    1.224093
     54          1           0        2.493024   -3.468781    1.783215
     55          1           0        1.138819   -3.981529    2.813476
     56          1           0        2.111115   -3.152033   -0.668886
     57          1           0       -1.263893   -4.659567    0.718310
     58          1           0       -2.693643   -5.375421    1.863836
     59          1           0       -4.653480   -0.889807   -0.898454
     60          1           0       -5.214080    0.308920   -1.781181
     61          1           0       -4.006536    4.896089    0.201280
     62          1           0       -5.463259    3.887493   -0.133680
     63          1           0       -4.539699    4.398184   -1.576925
     64          1           0       -1.561082    5.205264   -0.904763
     65          1           0        7.510934   -2.788918   -1.456643
     66          1           0        6.705256   -4.557386   -1.616146
     67          1           0        6.948306   -3.866097    0.050401
     68          1           0        6.650617   -0.757633   -0.500583
     69          1           0        4.924273    1.263481    0.219994
     70          1           0        6.321733    1.046174    1.236072
     71          1           0        4.937262   -0.041489    1.668161
     72          1           0        3.988030    5.956148   -0.796478
     73          1           0        4.451966    4.375226   -0.689939
     74          1           0        0.267482    6.482691   -1.957698
     75          1           0        1.737340    6.918647   -1.295277
     76          1           0        0.380474    7.044602   -0.128509
     77          1           0        3.949664    5.844168    1.642905
     78          1           0        5.567083    5.918210    0.879481
     79          1           0        4.873981    4.498997    1.828019
     80          1           0       -3.632452   -4.394926   -1.551038
     81          1           0       -7.839550   -1.820500   -1.990152
 ---------------------------------------------------------------------

 SCF Done:  E(RB3LYP) =  -1949.09742009     A.U. after   17 cycles

 Excitation energies and oscillator strengths:

 Excited State   1:      Singlet-A      1.7928 eV  691.59 nm  f=0.3754  <S**2>=0.000
     156 ->157         0.71094
     156 <-157        -0.13334
 This state for optimization and/or second-order correction.
 Total Energy, E(TD-HF/TD-DFT) =  -1949.03153774
 Copying the excited state density for this state as the 1-particle RhoCI density.

 The electronic state is 1-A.
 Alpha  occ. eigenvalues --  -19.19666 -19.19372 -19.15038 -19.11709 -19.11404
 Alpha  occ. eigenvalues --  -19.09728 -14.38390 -14.36058 -14.35563 -14.28322
 Alpha  occ. eigenvalues --  -10.33466 -10.31972 -10.30765 -10.25667 -10.25130
 Alpha  occ. eigenvalues --  -10.23927 -10.23478 -10.23315 -10.23064 -10.22720
 Alpha  occ. eigenvalues --  -10.22626 -10.22419 -10.21676 -10.21492 -10.21327
 Alpha  occ. eigenvalues --  -10.21042 -10.20940 -10.20751 -10.20728 -10.20693
 Alpha  occ. eigenvalues --  -10.20560 -10.20207 -10.19958 -10.19847 -10.19739
 Alpha  occ. eigenvalues --  -10.19575 -10.19536 -10.19099 -10.18876 -10.18849
 Alpha  occ. eigenvalues --  -10.18573 -10.17738 -10.17332  -1.09939  -1.09724
 Alpha  occ. eigenvalues --   -1.01569  -1.01230  -1.00610  -0.99316  -0.98224
 Alpha  occ. eigenvalues --   -0.98194  -0.93473  -0.90169  -0.82696  -0.82450
 Alpha  occ. eigenvalues --   -0.82327  -0.81718  -0.79449  -0.79046  -0.78293
 Alpha  occ. eigenvalues --   -0.77651  -0.76854  -0.75215  -0.74335  -0.71983
 Alpha  occ. eigenvalues --   -0.70957  -0.69960  -0.69263  -0.68665  -0.68095
 Alpha  occ. eigenvalues --   -0.67943  -0.66409  -0.65088  -0.63094  -0.61810
 Alpha  occ. eigenvalues --   -0.60862  -0.58929  -0.58712  -0.58123  -0.57639
 Alpha  occ. eigenvalues --   -0.56437  -0.55792  -0.54706  -0.54267  -0.52324
 Alpha  occ. eigenvalues --   -0.52106  -0.51489  -0.51001  -0.50763  -0.50195
 Alpha  occ. eigenvalues --   -0.49685  -0.48973  -0.48289  -0.47639  -0.47571
 Alpha  occ. eigenvalues --   -0.47028  -0.46823  -0.45883  -0.45403  -0.44935
 Alpha  occ. eigenvalues --   -0.44789  -0.44451  -0.44163  -0.43674  -0.43511
 Alpha  occ. eigenvalues --   -0.43352  -0.42887  -0.42748  -0.42589  -0.42487
 Alpha  occ. eigenvalues --   -0.42250  -0.41848  -0.41794  -0.41432  -0.41061
 Alpha  occ. eigenvalues --   -0.40912  -0.40529  -0.40262  -0.39691  -0.39556
 Alpha  occ. eigenvalues --   -0.39453  -0.39151  -0.38973  -0.38384  -0.38247
 Alpha  occ. eigenvalues --   -0.37985  -0.37588  -0.36817  -0.36435  -0.36189
 Alpha  occ. eigenvalues --   -0.35923  -0.35329  -0.35146  -0.34996  -0.34936
 Alpha  occ. eigenvalues --   -0.34544  -0.33972  -0.33748  -0.33595  -0.32906
 Alpha  occ. eigenvalues --   -0.32639  -0.31375  -0.31183  -0.30522  -0.30003
 Alpha  occ. eigenvalues --   -0.27594  -0.26916  -0.26754  -0.26024  -0.25702
 Alpha  occ. eigenvalues --   -0.25415  -0.25121  -0.23746  -0.22595  -0.21726
 Alpha  occ. eigenvalues --   -0.17527
 Alpha virt. eigenvalues --   -0.10541  -0.05913  -0.04342  -0.03188  -0.02425
 Alpha virt. eigenvalues --    0.00805   0.01469   0.02425   0.03360   0.03721
 Alpha virt. eigenvalues --    0.04144   0.04357   0.04733   0.04839   0.05855

 Mulliken charges:
               1
     1  O   -0.242316
     2  O   -0.234481
     3  O   -0.166621
     4  O   -0.216223
     5  O   -0.283169
     6  O   -0.227182
     7  N   -0.052662
     8  N   -0.017129
     9  N   -0.177451
    10  N   -0.339452
    11  C   -0.099616
    12  C    0.124431
    13  C   -0.173250
    14  C    0.041605
    15  C   -0.047971
    16  C   -0.018277
    17  C   -0.040910
    18  C   -0.098346
    19  C    0.052551
    20  C   -0.019186
    21  C    0.025810
    22  C    0.117788
    23  C   -0.063391
    24  C    0.129422
    25  C   -0.090955
    26  C    0.085296
    27  C    0.190906
    28  C   -0.019006
    29  C    0.093144
    30  C    0.000375
    31  C   -0.176643
    32  C    0.010024
    33  C   -0.148086
    34  C    0.060333
    35  C   -0.106799
    36  C   -0.177212
    37  C    0.154690
    38  C    0.099294
    39  C    0.097598
    40  C    0.140726
    41  C    0.166301
    42  C    0.121497
    43  C    0.019673
    44  H    0.123457
    45  H    0.021513
    46  H    0.018857
    47  H    0.011002
    48  H    0.070620
    49  H    0.027378
    50  H   -0.016163
    51  H    0.055779
    52  H    0.092011
    53  H    0.033554
    54  H    0.020725
    55  H    0.027746
    56  H    0.119349
    57  H    0.032500
    58  H    0.084624
    59  H    0.002746
    60  H   -0.015703
    61  H    0.037117
    62  H    0.031344
    63  H    0.037155
    64  H    0.030973
    65  H    0.044018
    66  H    0.034999
    67  H    0.046635
    68  H   -0.028501
    69  H    0.072646
    70  H    0.009429
    71  H    0.053131
    72  H   -0.015598
    73  H   -0.057082
    74  H    0.031023
    75  H   -0.016000
    76  H    0.043474
    77  H   -0.020597
    78  H    0.022316
    79  H    0.023077
    80  H    0.210582
    81  H    0.204734
 Sum of Mulliken charges =  -0.00000

 Dipole moment (field-independent basis, Debye):
    X=             -0.5924    Y=              0.6800    Z=             -1.4026  Tot=              1.6675
 Quadrupole moment (field-independent basis, Debye-Ang):
   XX=           -245.0639   YY=           -250.5284   ZZ=           -249.7926
   XY=             14.7192   XZ=             14.9362   YZ=            -15.8098

 Normal termination of Gaussian 16 at Mon Jul  1 14:28:13 2019.
