 Gaussian 16, Revision A.03,
 Gaussian 16:  ES64L-G16RevA.03 25-Dec-2016

 --------------------------
 # td=(NStates=1) B3LYP/SVP
 --------------------------

 --
 TD
 --
 Symbolic Z-matrix:
 Charge =  0 Multiplicity = 1

                         Standard orientation:
 ---------------------------------------------------------------------
 Center     Atomic      Atomic             Coordinates (Angstroms)
 Number     Number       Type             X           Y           Z
 ---------------------------------------------------------------------
      1          8           0        4.302803   -4.784833   -2.013035
      2          8           0       -2.961941   -4.941717   -1.051872
      3          8           0       -6.894934   -1.546652   -1.826284
      4          8           0       -3.925746   -3.223280   -0.008711
      5          8           0       -7.555620   -0.569522    0.194490
      6          8           0        3.011713    2.195945    0.284630
      7          7           0        0.247369   -0.454948    0.625284
      8          7           0       -1.585826    1.905299    0.215531
      9          7           0        3.250399   -3.238465   -0.663505
     10          7           0        0.850417    2.960424    0.027172
     11          6           0       -0.679597   -2.303202    1.536634
     12          6           0       -1.000457   -0.997749    1.030711
     13          6           0        0.666668   -2.617963    1.349000
     14          6           0        1.209229   -1.405509    0.688829
     15          6           0       -3.762517    1.617825    0.136965
     16          6           0       -2.475221    0.972922    0.532248
     17          6           0       -2.328291   -0.376572    0.954066
     18          6           0       -3.515901    2.982083   -0.172861
     19          6           0       -1.821580   -3.260444    2.047851
     20          6           0        5.548924   -2.781633   -1.484044
     21          6           0        3.559640   -1.963398   -0.207407
     22          6           0       -2.029179    3.112953   -0.129249
     23          6           0        5.042652   -1.700858   -0.497221
     24          6           0       -5.148215    0.972452    0.224147
     25          6           0        2.625467   -1.093192    0.440389
     26          6           0        1.350164   -3.875837    1.826143
     27          6           0        4.265330   -3.750021   -1.336783
     28          6           0       -2.140305   -4.463943    1.141480
     29          6           0       -5.485411    0.025747   -0.885487
     30          6           0       -4.409218    3.995925   -0.696027
     31          6           0       -1.169229    4.201225   -0.377882
     32          6           0        6.708803   -3.521065   -0.988536
     33          6           0        5.715426   -0.660012   -0.106527
     34          6           0        0.165465    4.044845   -0.242184
     35          6           0        1.241322    5.171476   -0.402445
     36          6           0        2.461282    4.634802   -0.165672
     37          6           0       -3.133732   -4.140869   -0.042491
     38          6           0        5.451080    0.507271    0.781369
     39          6           0       -6.778221   -0.700964   -0.717414
     40          6           0        3.838822    5.119171   -0.213666
     41          6           0        2.153673    3.128902    0.206577
     42          6           0        0.710923    6.561380   -0.733257
     43          6           0        4.444939    5.492297    1.140961
     44          1           0        0.497169    0.552898    0.220689
     45          1           0       -3.190310   -1.016155    1.271717
     46          1           0       -2.557260   -2.702391    2.427405
     47          1           0       -1.147747   -3.978022    2.962400
     48          1           0        5.452555   -2.434881   -2.452888
     49          1           0       -5.214240    0.373105    1.226406
     50          1           0       -5.964223    1.617423    0.119304
     51          1           0        2.946107   -0.054871    0.641486
     52          1           0       -0.646604    1.736323    0.540297
     53          1           0        1.377888   -4.700560    1.059764
     54          1           0        2.317082   -3.783694    1.975426
     55          1           0        0.918607   -4.043698    2.724782
     56          1           0        2.387392   -3.740946   -0.607678
     57          1           0       -1.096425   -4.813134    0.637202
     58          1           0       -2.453256   -5.338563    1.609817
     59          1           0       -4.664572   -0.654646   -1.209210
     60          1           0       -5.472591    0.701783   -1.880131
     61          1           0       -4.450148    4.864447   -0.103619
     62          1           0       -5.330772    3.715268   -0.745067
     63          1           0       -4.200685    4.321400   -1.734535
     64          1           0       -1.503620    5.206393   -0.512121
     65          1           0        7.724655   -3.162276   -1.206218
     66          1           0        6.837365   -4.566556   -1.519180
     67          1           0        6.866939   -3.642994    0.232590
     68          1           0        6.834659   -0.598395   -0.368596
     69          1           0        4.994947    1.330263    0.584134
     70          1           0        6.403416    0.716119    1.321420
     71          1           0        4.949807   -0.055057    1.573891
     72          1           0        3.842513    6.097263   -0.803861
     73          1           0        4.478052    4.648347   -0.761095
     74          1           0        0.151387    6.579957   -1.717039
     75          1           0        1.445583    7.445157   -1.006262
     76          1           0        0.054855    6.898633    0.017968
     77          1           0        3.793311    5.977432    1.762906
     78          1           0        5.516917    6.014569    1.302006
     79          1           0        4.703333    4.528358    1.766254
     80          1           0       -3.744724   -4.735922   -1.650615
     81          1           0       -7.700469   -2.116329   -1.594143
 ---------------------------------------------------------------------

 SCF Done:  E(RB3LYP) =  -1949.06940007     A.U. after   19 cycles

 Excitation energies and oscillator strengths:

 Excited State   1:      Singlet-A      1.8886 eV  656.50 nm  f=0.3771  <S**2>=0.000
     156 ->157         0.70897
     156 <-157        -0.12023
 This state for optimization and/or second-order correction.
 Total Energy, E(TD-HF/TD-DFT) =  -1948.99999640
 Copying the excited state density for this state as the 1-particle RhoCI density.

 The electronic state is 1-A.
 Alpha  occ. eigenvalues --  -19.21011 -19.18405 -19.14156 -19.14035 -19.09965
 Alpha  occ. eigenvalues --  -19.09584 -14.39270 -14.38677 -14.37425 -14.28241
 Alpha  occ. eigenvalues --  -10.33419 -10.32610 -10.28480 -10.26103 -10.25700
 Alpha  occ. eigenvalues --  -10.24960 -10.24803 -10.24139 -10.24074 -10.23580
 Alpha  occ. eigenvalues --  -10.22826 -10.22609 -10.22464 -10.21357 -10.20847
 Alpha  occ. eigenvalues --  -10.20799 -10.20626 -10.20457 -10.20324 -10.20274
 Alpha  occ. eigenvalues --  -10.19934 -10.19847 -10.19720 -10.19637 -10.19624
 Alpha  occ. eigenvalues --  -10.19374 -10.19155 -10.18712 -10.18673 -10.18125
 Alpha  occ. eigenvalues --  -10.18023 -10.17674 -10.15892  -1.12963  -1.08478
 Alpha  occ. eigenvalues --   -1.03096  -1.02340  -1.01117  -1.00820  -0.98825
 Alpha  occ. eigenvalues --   -0.97703  -0.95990  -0.91912  -0.82269  -0.82130
 Alpha  occ. eigenvalues --   -0.81860  -0.81594  -0.79263  -0.78960  -0.78156
 Alpha  occ. eigenvalues --   -0.77377  -0.76675  -0.75274  -0.74316  -0.73132
 Alpha  occ. eigenvalues --   -0.72727  -0.70217  -0.69085  -0.68326  -0.67684
 Alpha  occ. eigenvalues --   -0.67405  -0.65759  -0.65529  -0.62510  -0.61917
 Alpha  occ. eigenvalues --   -0.61292  -0.60054  -0.59560  -0.58969  -0.57755
 Alpha  occ. eigenvalues --   -0.57163  -0.54997  -0.54868  -0.54180  -0.53441
 Alpha  occ. eigenvalues --   -0.52625  -0.51596  -0.51056  -0.50491  -0.50171
 Alpha  occ. eigenvalues --   -0.49652  -0.49394  -0.48698  -0.48578  -0.48411
 Alpha  occ. eigenvalues --   -0.47824  -0.47227  -0.46688  -0.46004  -0.45578
 Alpha  occ. eigenvalues --   -0.45428  -0.45156  -0.44654  -0.44258  -0.43946
 Alpha  occ. eigenvalues --   -0.43795  -0.43318  -0.43128  -0.42801  -0.42601
 Alpha  occ. eigenvalues --   -0.42401  -0.42143  -0.41983  -0.41554  -0.41451
 Alpha  occ. eigenvalues --   -0.41229  -0.41076  -0.40755  -0.40556  -0.40232
 Alpha  occ. eigenvalues --   -0.39953  -0.39776  -0.39014  -0.38728  -0.38435
 Alpha  occ. eigenvalues --   -0.38362  -0.38320  -0.37086  -0.36907  -0.36429
 Alpha  occ. eigenvalues --   -0.35968  -0.35581  -0.34944  -0.34774  -0.34311
 Alpha  occ. eigenvalues --   -0.33997  -0.33845  -0.33711  -0.33078  -0.32703
 Alpha  occ. eigenvalues --   -0.32632  -0.30875  -0.30656  -0.29824  -0.29406
 Alpha  occ. eigenvalues --   -0.29266  -0.26730  -0.26094  -0.25538  -0.25518
 Alpha  occ. eigenvalues --   -0.25339  -0.24259  -0.23965  -0.23040  -0.21944
 Alpha  occ. eigenvalues --   -0.18095
 Alpha virt. eigenvalues --   -0.10651  -0.05373  -0.03549  -0.01091  -0.00570
 Alpha virt. eigenvalues --    0.00924   0.01452   0.02000   0.02829   0.03475
 Alpha virt. eigenvalues --    0.04301   0.04544   0.04856   0.05487   0.05844

 Mulliken charges:
               1
     1  O   -0.246152
     2  O   -0.138791
     3  O   -0.238617
     4  O   -0.238915
     5  O   -0.206312
     6  O   -0.268772
     7  N   -0.151068
     8  N    0.026730
     9  N   -0.008819
    10  N   -0.233638
    11  C   -0.116613
    12  C    0.057678
    13  C   -0.184701
    14  C    0.039711
    15  C   -0.106562
    16  C    0.026053
    17  C   -0.027548
    18  C   -0.145023
    19  C    0.082804
    20  C    0.065917
    21  C    0.053069
    22  C    0.096349
    23  C    0.016755
    24  C    0.122754
    25  C   -0.102589
    26  C    0.216159
    27  C    0.042566
    28  C    0.008022
    29  C   -0.090073
    30  C    0.231610
    31  C   -0.104931
    32  C   -0.020164
    33  C   -0.229482
    34  C    0.053422
    35  C   -0.061488
    36  C   -0.198900
    37  C    0.116039
    38  C    0.177432
    39  C    0.188331
    40  C    0.189666
    41  C    0.155180
    42  C    0.061272
    43  C   -0.044794
    44  H    0.192360
    45  H    0.037964
    46  H   -0.013468
    47  H    0.024573
    48  H    0.024198
    49  H    0.036870
    50  H   -0.008551
    51  H    0.032107
    52  H    0.123781
    53  H    0.024973
    54  H   -0.040605
    55  H   -0.006107
    56  H    0.125211
    57  H    0.049307
    58  H    0.028041
    59  H    0.048164
    60  H    0.044328
    61  H   -0.001696
    62  H   -0.068973
    63  H    0.020295
    64  H   -0.038227
    65  H    0.007025
    66  H    0.041883
    67  H    0.035724
    68  H    0.005640
    69  H    0.006511
    70  H   -0.014476
    71  H    0.002874
    72  H   -0.018208
    73  H   -0.045181
    74  H    0.022083
    75  H    0.023640
    76  H    0.019200
    77  H   -0.010044
    78  H    0.021489
    79  H    0.015964
    80  H    0.197069
    81  H    0.190695
 Sum of Mulliken charges =  -0.00000

 Dipole moment (field-independent basis, Debye):
    X=             -3.7710    Y=             -0.2277    Z=              0.1881  Tot=              3.7826
 Quadrupole moment (field-independent basis, Debye-Ang):
   XX=           -254.6829   YY=           -237.4756   ZZ=           -256.4539
   XY=             15.1150   XZ=             17.9513   YZ=            -13.9913

 Normal termination of Gaussian 16 at Sun Jun 30 09:20:48 2019.
