 Gaussian 16, Revision A.03,
 Gaussian 16:  ES64L-G16RevA.03 25-Dec-2016

 --------------------------
 # td=(NStates=1) B3LYP/SVP
 --------------------------

 --
 TD
 --
 Symbolic Z-matrix:
 Charge =  0 Multiplicity = 1

                         Standard orientation:
 ---------------------------------------------------------------------
 Center     Atomic      Atomic             Coordinates (Angstroms)
 Number     Number       Type             X           Y           Z
 ---------------------------------------------------------------------
      1          8           0        4.407577   -4.570669   -1.939126
      2          8           0       -2.367820   -4.770965   -1.197999
      3          8           0       -6.978492   -1.830399   -1.906448
      4          8           0       -3.618488   -3.324635    0.240257
      5          8           0       -7.757927   -0.691937   -0.141953
      6          8           0        2.971369    2.535317    0.383467
      7          7           0        0.276692   -0.446544    0.442070
      8          7           0       -1.741160    1.759837    0.492767
      9          7           0        3.445198   -2.948243   -0.739047
     10          7           0        0.624338    2.849828    0.146712
     11          6           0       -0.468606   -2.453316    1.481841
     12          6           0       -0.840840   -1.075922    0.980372
     13          6           0        0.885304   -2.520323    1.279965
     14          6           0        1.396877   -1.308155    0.666494
     15          6           0       -3.919445    1.247824    0.390528
     16          6           0       -2.502681    0.680545    0.625520
     17          6           0       -2.197019   -0.637667    0.929250
     18          6           0       -3.639117    2.607008    0.034755
     19          6           0       -1.340495   -3.388910    2.075066
     20          6           0        5.597288   -2.516323   -1.346376
     21          6           0        3.587950   -1.604754   -0.315352
     22          6           0       -2.224242    2.915195    0.015503
     23          6           0        5.000847   -1.352769   -0.557146
     24          6           0       -5.137240    0.500352    0.420781
     25          6           0        2.656925   -0.754747    0.263119
     26          6           0        1.798167   -3.645907    1.768250
     27          6           0        4.494841   -3.540734   -1.390849
     28          6           0       -1.662348   -4.578291    1.139353
     29          6           0       -5.404942   -0.419836   -0.905530
     30          6           0       -4.710246    3.640204   -0.398925
     31          6           0       -1.460731    4.071617   -0.173696
     32          6           0        6.884783   -3.269656   -0.720758
     33          6           0        5.852273   -0.330253   -0.153292
     34          6           0       -0.129116    3.997586   -0.153025
     35          6           0        0.796295    5.157670   -0.541451
     36          6           0        2.029729    4.675642   -0.328864
     37          6           0       -2.742210   -4.178372    0.063855
     38          6           0        5.344197    0.810310    0.688539
     39          6           0       -6.818406   -0.994273   -0.896657
     40          6           0        3.392727    5.389584   -0.293153
     41          6           0        1.969556    3.283757    0.171787
     42          6           0        0.270210    6.487248   -1.002989
     43          6           0        4.119726    5.551107    1.098058
     44          1           0        0.404988    0.338137   -0.094490
     45          1           0       -2.898171   -1.532966    0.902308
     46          1           0       -2.220539   -2.821522    2.558044
     47          1           0       -0.751816   -3.850719    3.001691
     48          1           0        6.012411   -2.139139   -2.423563
     49          1           0       -5.449072   -0.073535    1.310902
     50          1           0       -6.035640    1.189963    0.362689
     51          1           0        3.242245    0.229477    0.566786
     52          1           0       -0.776596    1.854004    0.645423
     53          1           0        1.604532   -4.504596    1.020914
     54          1           0        2.806398   -3.404403    1.983433
     55          1           0        1.386838   -3.804967    2.751415
     56          1           0        2.513713   -3.263195   -0.873157
     57          1           0       -0.736225   -4.704349    0.407050
     58          1           0       -1.991131   -5.591169    1.717207
     59          1           0       -4.714616   -1.268483   -0.994702
     60          1           0       -5.300774    0.448617   -1.673667
     61          1           0       -4.683665    4.488425    0.078202
     62          1           0       -5.914039    3.184451   -0.231792
     63          1           0       -4.418288    4.009334   -1.387561
     64          1           0       -1.800930    5.183448   -0.589888
     65          1           0        7.704859   -2.585281   -0.970149
     66          1           0        7.154356   -4.215955   -1.416917
     67          1           0        6.663808   -3.567715    0.334874
     68          1           0        6.919258   -0.335097   -0.333248
     69          1           0        4.643950    1.345689   -0.045240
     70          1           0        6.154680    1.479049    1.174275
     71          1           0        4.629781    0.375439    1.420850
     72          1           0        3.143981    6.419300   -0.677315
     73          1           0        4.033936    4.699932   -0.998013
     74          1           0       -0.373065    6.523939   -1.978595
     75          1           0        1.143260    7.070004   -1.038527
     76          1           0       -0.375856    6.707874   -0.132166
     77          1           0        3.416774    6.134234    1.695461
     78          1           0        5.187730    6.049026    0.910401
     79          1           0        4.144592    4.533777    1.563331
     80          1           0       -3.241008   -4.530674   -1.737970
     81          1           0       -7.995954   -2.020842   -2.201239
 ---------------------------------------------------------------------

 SCF Done:  E(RB3LYP) =  -1949.07822570     A.U. after   17 cycles

 Excitation energies and oscillator strengths:

 Excited State   1:      Singlet-A      1.7497 eV  708.62 nm  f=0.3164  <S**2>=0.000
     156 ->157         0.70701
     156 <-157        -0.12092
 This state for optimization and/or second-order correction.
 Total Energy, E(TD-HF/TD-DFT) =  -1949.01392665
 Copying the excited state density for this state as the 1-particle RhoCI density.

 The electronic state is 1-A.
 Alpha  occ. eigenvalues --  -19.20929 -19.19122 -19.17059 -19.12127 -19.10799
 Alpha  occ. eigenvalues --  -19.09199 -14.37652 -14.36133 -14.35976 -14.28165
 Alpha  occ. eigenvalues --  -10.35597 -10.32292 -10.28367 -10.25664 -10.24848
 Alpha  occ. eigenvalues --  -10.24449 -10.24137 -10.24059 -10.23868 -10.23683
 Alpha  occ. eigenvalues --  -10.22477 -10.21880 -10.21766 -10.21752 -10.21043
 Alpha  occ. eigenvalues --  -10.20796 -10.20509 -10.20359 -10.20293 -10.20279
 Alpha  occ. eigenvalues --  -10.20152 -10.20135 -10.20117 -10.19840 -10.19817
 Alpha  occ. eigenvalues --  -10.19650 -10.19614 -10.19559 -10.19354 -10.19158
 Alpha  occ. eigenvalues --  -10.18423 -10.18146 -10.18101  -1.08926  -1.08892
 Alpha  occ. eigenvalues --   -1.05702  -1.01840  -1.00119  -0.98626  -0.98033
 Alpha  occ. eigenvalues --   -0.96894  -0.95273  -0.89464  -0.83959  -0.81791
 Alpha  occ. eigenvalues --   -0.80837  -0.80719  -0.79158  -0.78536  -0.77422
 Alpha  occ. eigenvalues --   -0.76670  -0.76231  -0.74479  -0.73821  -0.72277
 Alpha  occ. eigenvalues --   -0.71008  -0.69388  -0.68943  -0.68496  -0.67717
 Alpha  occ. eigenvalues --   -0.67680  -0.65618  -0.63727  -0.61548  -0.60685
 Alpha  occ. eigenvalues --   -0.59809  -0.59638  -0.58412  -0.57519  -0.56937
 Alpha  occ. eigenvalues --   -0.55516  -0.55363  -0.54854  -0.53490  -0.53171
 Alpha  occ. eigenvalues --   -0.51850  -0.51387  -0.50691  -0.50096  -0.49164
 Alpha  occ. eigenvalues --   -0.49028  -0.48628  -0.48537  -0.47728  -0.47279
 Alpha  occ. eigenvalues --   -0.46623  -0.46182  -0.45859  -0.45251  -0.45068
 Alpha  occ. eigenvalues --   -0.44508  -0.44310  -0.43849  -0.43695  -0.43589
 Alpha  occ. eigenvalues --   -0.43498  -0.43295  -0.43042  -0.42696  -0.42253
 Alpha  occ. eigenvalues --   -0.42101  -0.41895  -0.41397  -0.41279  -0.40657
 Alpha  occ. eigenvalues --   -0.40528  -0.40087  -0.39660  -0.39424  -0.39161
 Alpha  occ. eigenvalues --   -0.39058  -0.38844  -0.38463  -0.37784  -0.37516
 Alpha  occ. eigenvalues --   -0.37309  -0.37254  -0.36876  -0.36469  -0.35857
 Alpha  occ. eigenvalues --   -0.35553  -0.35383  -0.34946  -0.34926  -0.34714
 Alpha  occ. eigenvalues --   -0.34430  -0.34005  -0.33841  -0.33002  -0.32729
 Alpha  occ. eigenvalues --   -0.32527  -0.32230  -0.31693  -0.30957  -0.29098
 Alpha  occ. eigenvalues --   -0.27603  -0.26765  -0.26239  -0.26072  -0.25566
 Alpha  occ. eigenvalues --   -0.24553  -0.24186  -0.23188  -0.22844  -0.21402
 Alpha  occ. eigenvalues --   -0.17812
 Alpha virt. eigenvalues --   -0.10734  -0.05287  -0.04682  -0.03989  -0.00956
 Alpha virt. eigenvalues --   -0.00300   0.00720   0.01299   0.02046   0.02797
 Alpha virt. eigenvalues --    0.03479   0.04293   0.04447   0.04976   0.06263

 Mulliken charges:
               1
     1  O   -0.157588
     2  O   -0.261271
     3  O   -0.225305
     4  O   -0.228901
     5  O   -0.259501
     6  O   -0.277157
     7  N   -0.059468
     8  N    0.035523
     9  N   -0.112541
    10  N   -0.358043
    11  C   -0.105145
    12  C    0.052549
    13  C   -0.187275
    14  C    0.074177
    15  C   -0.042449
    16  C    0.079224
    17  C   -0.102887
    18  C   -0.147917
    19  C    0.040896
    20  C   -0.179878
    21  C    0.070279
    22  C    0.096640
    23  C   -0.014499
    24  C    0.024713
    25  C   -0.130496
    26  C    0.125589
    27  C    0.134474
    28  C   -0.053768
    29  C   -0.048200
    30  C    0.124615
    31  C   -0.153631
    32  C    0.007027
    33  C   -0.124710
    34  C    0.057203
    35  C   -0.095453
    36  C   -0.186504
    37  C    0.199865
    38  C    0.014763
    39  C    0.154573
    40  C    0.024613
    41  C    0.193967
    42  C    0.107117
    43  C   -0.022410
    44  H    0.107618
    45  H    0.064502
    46  H    0.047320
    47  H    0.027511
    48  H    0.063514
    49  H    0.026381
    50  H    0.009576
    51  H    0.074082
    52  H    0.086888
    53  H    0.041408
    54  H    0.017071
    55  H    0.003747
    56  H    0.113163
    57  H    0.076871
    58  H    0.084641
    59  H    0.047672
    60  H    0.067812
    61  H   -0.035817
    62  H    0.044956
    63  H    0.007022
    64  H    0.020666
    65  H    0.020524
    66  H    0.046456
    67  H    0.037248
    68  H   -0.011501
    69  H    0.094690
    70  H    0.030157
    71  H    0.037689
    72  H   -0.004733
    73  H    0.031666
    74  H    0.054560
    75  H   -0.001863
    76  H    0.036073
    77  H    0.008432
    78  H    0.040034
    79  H    0.043639
    80  H    0.219052
    81  H    0.238466
 Sum of Mulliken charges =  -0.00000

 Dipole moment (field-independent basis, Debye):
    X=             -2.4701    Y=             -0.8171    Z=             -1.0859  Tot=              2.8193
 Quadrupole moment (field-independent basis, Debye-Ang):
   XX=           -252.4766   YY=           -240.3990   ZZ=           -252.3035
   XY=             16.0519   XZ=             21.4466   YZ=            -13.8388

 Normal termination of Gaussian 16 at Mon Jul  1 20:34:14 2019.
