 Gaussian 16, Revision A.03,
 Gaussian 16:  ES64L-G16RevA.03 25-Dec-2016

 --------------------------
 # td=(NStates=1) B3LYP/SVP
 --------------------------

 --
 TD
 --
 Symbolic Z-matrix:
 Charge =  0 Multiplicity = 1

                         Standard orientation:
 ---------------------------------------------------------------------
 Center     Atomic      Atomic             Coordinates (Angstroms)
 Number     Number       Type             X           Y           Z
 ---------------------------------------------------------------------
      1          8           0        4.227679   -4.869425   -1.993711
      2          8           0       -3.142585   -4.704677   -1.088976
      3          8           0       -6.838648   -1.568219   -1.846311
      4          8           0       -3.966594   -3.209359    0.227727
      5          8           0       -7.724789   -0.452514   -0.162895
      6          8           0        3.030463    2.325629    0.435032
      7          7           0        0.269471   -0.444643    0.674751
      8          7           0       -1.564867    1.881747    0.495080
      9          7           0        3.271734   -3.089422   -0.738235
     10          7           0        0.797005    2.784188    0.056983
     11          6           0       -0.620395   -2.366357    1.450271
     12          6           0       -0.909856   -0.982882    0.986337
     13          6           0        0.726791   -2.609988    1.374061
     14          6           0        1.248043   -1.334093    0.825228
     15          6           0       -3.738525    1.474694    0.266052
     16          6           0       -2.565778    0.896951    0.564631
     17          6           0       -2.125012   -0.404255    0.866372
     18          6           0       -3.544016    2.804884   -0.102466
     19          6           0       -1.552363   -3.287120    2.040901
     20          6           0        5.535230   -2.887096   -1.249194
     21          6           0        3.580737   -1.887820   -0.272824
     22          6           0       -2.022091    2.982795   -0.065410
     23          6           0        5.039067   -1.687200   -0.460393
     24          6           0       -5.112781    0.864131    0.384904
     25          6           0        2.688251   -1.052077    0.422010
     26          6           0        1.516314   -3.754844    1.749618
     27          6           0        4.219468   -3.769269   -1.461753
     28          6           0       -2.077745   -4.383868    1.009640
     29          6           0       -5.345061   -0.090314   -0.871623
     30          6           0       -4.523293    3.830447   -0.582044
     31          6           0       -1.235737    4.096980   -0.286609
     32          6           0        6.766008   -3.707646   -0.699790
     33          6           0        5.724722   -0.533978   -0.250052
     34          6           0        0.170994    4.035730   -0.225502
     35          6           0        1.135203    5.138896   -0.527245
     36          6           0        2.354840    4.563173   -0.352419
     37          6           0       -3.173650   -4.003126    0.035933
     38          6           0        5.453341    0.760789    0.504030
     39          6           0       -6.803852   -0.739955   -0.799180
     40          6           0        3.685536    5.223393   -0.315784
     41          6           0        2.103769    3.127496    0.204959
     42          6           0        0.750522    6.550713   -0.755707
     43          6           0        4.289795    5.504526    1.062379
     44          1           0        0.373334    0.449912    0.061821
     45          1           0       -2.928735   -1.108306    1.139808
     46          1           0       -2.386050   -2.696272    2.364330
     47          1           0       -1.200416   -3.773174    2.876239
     48          1           0        5.600647   -2.526551   -2.288997
     49          1           0       -4.985350    0.117843    1.182262
     50          1           0       -6.035235    1.506185    0.637939
     51          1           0        3.054011    0.005982    0.459199
     52          1           0       -0.543831    1.926069    0.653900
     53          1           0        1.239215   -4.527025    1.099490
     54          1           0        2.663248   -3.724926    1.812926
     55          1           0        1.231551   -4.159468    2.757733
     56          1           0        2.357006   -3.555746   -0.752053
     57          1           0       -1.143796   -4.689834    0.291963
     58          1           0       -2.090554   -5.376909    1.674281
     59          1           0       -4.575828   -0.967794   -0.772601
     60          1           0       -5.083181    0.352255   -1.893851
     61          1           0       -4.502579    4.604501    0.191991
     62          1           0       -5.584936    3.327560   -0.579867
     63          1           0       -4.047814    4.191817   -1.680725
     64          1           0       -1.644857    4.944735   -0.668259
     65          1           0        7.524104   -2.880192   -0.622942
     66          1           0        6.978259   -4.461583   -1.332581
     67          1           0        6.739249   -4.217787    0.316938
     68          1           0        6.717227   -0.474548   -0.815510
     69          1           0        5.135414    1.630912   -0.121916
     70          1           0        6.415389    1.058338    1.305258
     71          1           0        4.842319    0.689808    1.442404
     72          1           0        3.715840    6.132147   -1.108835
     73          1           0        4.572132    4.591406   -0.885710
     74          1           0        0.254150    6.766339   -1.744763
     75          1           0        1.813374    7.222915   -0.630028
     76          1           0        0.057384    6.833774    0.125256
     77          1           0        3.551242    6.188476    1.566564
     78          1           0        5.178590    5.915834    0.970211
     79          1           0        4.306770    4.486965    1.601679
     80          1           0       -3.822314   -4.450115   -1.652040
     81          1           0       -7.673455   -1.690371   -1.784495
 ---------------------------------------------------------------------

 SCF Done:  E(RB3LYP) =  -1949.08109407     A.U. after   16 cycles

 Excitation energies and oscillator strengths:

 Excited State   1:      Singlet-A      1.8483 eV  670.80 nm  f=0.3595  <S**2>=0.000
     156 ->157         0.70624
     156 <-157        -0.11746
 This state for optimization and/or second-order correction.
 Total Energy, E(TD-HF/TD-DFT) =  -1949.01317020
 Copying the excited state density for this state as the 1-particle RhoCI density.

 The electronic state is 1-A.
 Alpha  occ. eigenvalues --  -19.18805 -19.17579 -19.14451 -19.14379 -19.12167
 Alpha  occ. eigenvalues --  -19.08438 -14.39131 -14.38555 -14.34917 -14.28688
 Alpha  occ. eigenvalues --  -10.33393 -10.32298 -10.29785 -10.25369 -10.25094
 Alpha  occ. eigenvalues --  -10.25004 -10.23637 -10.23223 -10.22907 -10.22621
 Alpha  occ. eigenvalues --  -10.22350 -10.21403 -10.21378 -10.21301 -10.21125
 Alpha  occ. eigenvalues --  -10.20872 -10.20776 -10.20660 -10.20576 -10.20558
 Alpha  occ. eigenvalues --  -10.20507 -10.20425 -10.20315 -10.20068 -10.19552
 Alpha  occ. eigenvalues --  -10.19521 -10.19266 -10.19264 -10.19168 -10.19161
 Alpha  occ. eigenvalues --  -10.18678 -10.17502 -10.17255  -1.14731  -1.14405
 Alpha  occ. eigenvalues --   -1.05046  -1.04974  -1.04054  -1.00701  -0.98866
 Alpha  occ. eigenvalues --   -0.98198  -0.97836  -0.89697  -0.84009  -0.82532
 Alpha  occ. eigenvalues --   -0.81270  -0.81124  -0.79124  -0.78581  -0.77306
 Alpha  occ. eigenvalues --   -0.76392  -0.75867  -0.74693  -0.73521  -0.73158
 Alpha  occ. eigenvalues --   -0.71783  -0.70062  -0.69770  -0.68355  -0.68055
 Alpha  occ. eigenvalues --   -0.67260  -0.65445  -0.64083  -0.62809  -0.62525
 Alpha  occ. eigenvalues --   -0.60870  -0.59712  -0.58754  -0.58517  -0.57887
 Alpha  occ. eigenvalues --   -0.56456  -0.55668  -0.54667  -0.53805  -0.52824
 Alpha  occ. eigenvalues --   -0.52548  -0.51571  -0.50733  -0.50644  -0.50387
 Alpha  occ. eigenvalues --   -0.49827  -0.49455  -0.48842  -0.48714  -0.48072
 Alpha  occ. eigenvalues --   -0.47408  -0.46758  -0.46670  -0.45893  -0.45678
 Alpha  occ. eigenvalues --   -0.45381  -0.44424  -0.44382  -0.44316  -0.44044
 Alpha  occ. eigenvalues --   -0.43482  -0.43170  -0.43125  -0.42499  -0.42358
 Alpha  occ. eigenvalues --   -0.41975  -0.41791  -0.41463  -0.41362  -0.40907
 Alpha  occ. eigenvalues --   -0.40821  -0.40593  -0.40307  -0.39977  -0.39738
 Alpha  occ. eigenvalues --   -0.39484  -0.39026  -0.38800  -0.38417  -0.38230
 Alpha  occ. eigenvalues --   -0.37958  -0.37690  -0.37489  -0.37011  -0.36772
 Alpha  occ. eigenvalues --   -0.36601  -0.36046  -0.35725  -0.35440  -0.35027
 Alpha  occ. eigenvalues --   -0.34500  -0.34385  -0.33993  -0.33600  -0.33045
 Alpha  occ. eigenvalues --   -0.32291  -0.30666  -0.30390  -0.30274  -0.29800
 Alpha  occ. eigenvalues --   -0.29521  -0.27982  -0.26627  -0.26401  -0.25955
 Alpha  occ. eigenvalues --   -0.25428  -0.23729  -0.23226  -0.22462  -0.21403
 Alpha  occ. eigenvalues --   -0.17333
 Alpha virt. eigenvalues --   -0.09959  -0.05790  -0.04076  -0.01156   0.00074
 Alpha virt. eigenvalues --    0.00579   0.02141   0.02479   0.03132   0.03629
 Alpha virt. eigenvalues --    0.04499   0.04830   0.05614   0.05808   0.06544

 Mulliken charges:
               1
     1  O   -0.213547
     2  O   -0.132420
     3  O   -0.075656
     4  O   -0.145768
     5  O   -0.166037
     6  O   -0.263739
     7  N   -0.000429
     8  N   -0.074945
     9  N   -0.056798
    10  N   -0.347225
    11  C   -0.099806
    12  C    0.043034
    13  C   -0.127715
    14  C   -0.002812
    15  C   -0.045321
    16  C    0.100579
    17  C   -0.081861
    18  C   -0.170869
    19  C    0.172569
    20  C   -0.083077
    21  C    0.048172
    22  C    0.060661
    23  C   -0.005112
    24  C    0.085626
    25  C   -0.101789
    26  C    0.084941
    27  C    0.097815
    28  C   -0.128178
    29  C   -0.125449
    30  C    0.045033
    31  C   -0.076927
    32  C    0.099588
    33  C   -0.149816
    34  C    0.076104
    35  C   -0.051553
    36  C   -0.146893
    37  C    0.123566
    38  C   -0.001095
    39  C    0.131371
    40  C   -0.076439
    41  C    0.173811
    42  C    0.013466
    43  C    0.068029
    44  H    0.186475
    45  H   -0.006861
    46  H    0.001270
    47  H   -0.028862
    48  H    0.038182
    49  H    0.004111
    50  H    0.048110
    51  H    0.044008
    52  H    0.129722
    53  H   -0.000937
    54  H    0.055102
    55  H    0.017037
    56  H    0.131963
    57  H    0.048110
    58  H    0.068913
    59  H    0.058061
    60  H    0.052522
    61  H    0.034994
    62  H    0.037279
    63  H    0.061748
    64  H   -0.079385
    65  H    0.022210
    66  H    0.006795
    67  H    0.022539
    68  H    0.017450
    69  H    0.082458
    70  H    0.009232
    71  H    0.039918
    72  H    0.011036
    73  H    0.014811
    74  H    0.044004
    75  H    0.044632
    76  H    0.045098
    77  H    0.008290
    78  H   -0.017676
    79  H    0.047111
    80  H    0.155446
    81  H    0.071994
 Sum of Mulliken charges =  -0.00000

 Dipole moment (field-independent basis, Debye):
    X=             -2.2702    Y=             -1.1974    Z=             -0.0831  Tot=              2.5680
 Quadrupole moment (field-independent basis, Debye-Ang):
   XX=           -259.3578   YY=           -242.5598   ZZ=           -253.7110
   XY=             11.1804   XZ=             12.7438   YZ=            -15.3370

 Normal termination of Gaussian 16 at Fri Jun 28 22:22:39 2019.
