 Gaussian 16, Revision A.03,
 Gaussian 16:  ES64L-G16RevA.03 25-Dec-2016

 --------------------------
 # td=(NStates=1) B3LYP/SVP
 --------------------------

 --
 TD
 --
 Symbolic Z-matrix:
 Charge =  0 Multiplicity = 1

                         Standard orientation:
 ---------------------------------------------------------------------
 Center     Atomic      Atomic             Coordinates (Angstroms)
 Number     Number       Type             X           Y           Z
 ---------------------------------------------------------------------
      1          8           0        4.320459   -4.922531   -1.689309
      2          8           0       -2.728557   -5.065829   -0.996117
      3          8           0       -6.816269   -1.603067   -1.921325
      4          8           0       -3.697520   -3.303186    0.095901
      5          8           0       -7.636399   -0.597100   -0.007788
      6          8           0        3.112849    2.434616    0.355129
      7          7           0        0.205307   -0.428223    0.589723
      8          7           0       -1.553936    1.781255    0.182724
      9          7           0        3.308383   -3.178913   -0.736555
     10          7           0        0.767026    2.909467   -0.037264
     11          6           0       -0.645336   -2.373402    1.508622
     12          6           0       -1.018913   -1.053527    1.012857
     13          6           0        0.727334   -2.526453    1.241786
     14          6           0        1.195709   -1.328056    0.735880
     15          6           0       -3.850913    1.461976    0.278528
     16          6           0       -2.640478    0.829008    0.514406
     17          6           0       -2.233588   -0.425388    0.850442
     18          6           0       -3.514689    2.816105   -0.111060
     19          6           0       -1.606415   -3.339161    2.086879
     20          6           0        5.510710   -2.774253   -1.331545
     21          6           0        3.564569   -1.867799   -0.249322
     22          6           0       -2.085673    2.952512   -0.178161
     23          6           0        4.957932   -1.618014   -0.536540
     24          6           0       -5.100017    0.858500    0.283816
     25          6           0        2.568517   -1.010779    0.356467
     26          6           0        1.569136   -3.755149    1.752007
     27          6           0        4.358113   -3.816845   -1.297500
     28          6           0       -1.948384   -4.560744    1.231231
     29          6           0       -5.315898   -0.285355   -0.745280
     30          6           0       -4.564356    3.929227   -0.598892
     31          6           0       -1.314535    4.096886   -0.473166
     32          6           0        6.899353   -3.274095   -1.019681
     33          6           0        5.727597   -0.520198   -0.225376
     34          6           0        0.126166    4.040446   -0.350163
     35          6           0        1.015563    5.269641   -0.426011
     36          6           0        2.318704    4.695227   -0.198311
     37          6           0       -2.874442   -4.223673    0.029888
     38          6           0        5.506804    0.625502    0.700815
     39          6           0       -6.752727   -0.842381   -0.781590
     40          6           0        3.616620    5.374334   -0.178551
     41          6           0        2.175169    3.200323    0.095835
     42          6           0        0.527491    6.595332   -0.738678
     43          6           0        3.988521    5.808010    1.256118
     44          1           0        0.210387    0.482091   -0.099116
     45          1           0       -3.029951   -1.278717    1.248125
     46          1           0       -2.499916   -2.395749    2.167808
     47          1           0       -1.213047   -3.856391    3.033913
     48          1           0        5.715990   -2.416512   -2.392226
     49          1           0       -5.354144    0.331970    1.336064
     50          1           0       -6.090825    1.560760    0.213195
     51          1           0        2.765528    0.057668    0.313869
     52          1           0       -0.471508    1.874999    0.586102
     53          1           0        1.424368   -4.794459    1.169232
     54          1           0        2.606715   -3.476462    1.839449
     55          1           0        1.222826   -4.132414    2.656764
     56          1           0        2.317953   -3.687695   -0.584248
     57          1           0       -1.101684   -5.295220    0.886427
     58          1           0       -2.656578   -5.310590    1.633536
     59          1           0       -4.469814   -0.958795   -0.606442
     60          1           0       -5.348935    0.217603   -1.692325
     61          1           0       -4.573647    4.826649   -0.075587
     62          1           0       -5.643765    3.590744   -0.328783
     63          1           0       -4.478483    4.007616   -1.693089
     64          1           0       -1.900736    5.072744   -0.617714
     65          1           0        7.862092   -2.822163   -1.511265
     66          1           0        6.921544   -4.361304   -1.362420
     67          1           0        7.149148   -3.228622    0.129663
     68          1           0        6.734264   -0.686743   -0.491359
     69          1           0        4.971281    1.377643    0.147786
     70          1           0        6.501751    1.185006    0.957825
     71          1           0        4.879129    0.562404    1.765520
     72          1           0        3.608692    6.328368   -0.721961
     73          1           0        4.368727    4.628915   -0.476268
     74          1           0       -0.250274    6.819315   -1.667523
     75          1           0        1.634271    7.126700   -1.115024
     76          1           0        0.193066    7.184157    0.151152
     77          1           0        3.042479    6.381169    1.837864
     78          1           0        4.949451    6.293680    1.420832
     79          1           0        4.108427    4.860732    1.958704
     80          1           0       -3.301124   -4.778609   -1.537230
     81          1           0       -7.653501   -2.165362   -2.138079
 ---------------------------------------------------------------------

 SCF Done:  E(RB3LYP) =  -1949.06741048     A.U. after   16 cycles

 Excitation energies and oscillator strengths:

 Excited State   1:      Singlet-A      1.7493 eV  708.75 nm  f=0.3242  <S**2>=0.000
     156 ->157         0.70765
     156 <-157        -0.11091
 This state for optimization and/or second-order correction.
 Total Energy, E(TD-HF/TD-DFT) =  -1949.00312363
 Copying the excited state density for this state as the 1-particle RhoCI density.

 The electronic state is 1-A.
 Alpha  occ. eigenvalues --  -19.20259 -19.18100 -19.14497 -19.13191 -19.11355
 Alpha  occ. eigenvalues --  -19.11164 -14.38023 -14.37672 -14.34976 -14.29484
 Alpha  occ. eigenvalues --  -10.34194 -10.32457 -10.29021 -10.27662 -10.25496
 Alpha  occ. eigenvalues --  -10.23879 -10.23435 -10.23318 -10.23220 -10.23022
 Alpha  occ. eigenvalues --  -10.22975 -10.22923 -10.22184 -10.22162 -10.21106
 Alpha  occ. eigenvalues --  -10.20954 -10.20944 -10.20677 -10.20606 -10.20470
 Alpha  occ. eigenvalues --  -10.20393 -10.20320 -10.20187 -10.20043 -10.19939
 Alpha  occ. eigenvalues --  -10.19831 -10.19826 -10.19684 -10.19459 -10.19454
 Alpha  occ. eigenvalues --  -10.19103 -10.18845 -10.18808  -1.14678  -1.07943
 Alpha  occ. eigenvalues --   -1.05851  -1.02625  -1.00895  -1.00639  -0.97695
 Alpha  occ. eigenvalues --   -0.95899  -0.95241  -0.90610  -0.82900  -0.82363
 Alpha  occ. eigenvalues --   -0.81547  -0.80828  -0.79366  -0.78026  -0.77238
 Alpha  occ. eigenvalues --   -0.75980  -0.75910  -0.75045  -0.73629  -0.72243
 Alpha  occ. eigenvalues --   -0.71011  -0.69618  -0.69442  -0.67703  -0.67532
 Alpha  occ. eigenvalues --   -0.66656  -0.64852  -0.63796  -0.63141  -0.61997
 Alpha  occ. eigenvalues --   -0.60877  -0.59546  -0.58386  -0.57264  -0.56989
 Alpha  occ. eigenvalues --   -0.55124  -0.54453  -0.53886  -0.52924  -0.52275
 Alpha  occ. eigenvalues --   -0.52048  -0.51488  -0.50981  -0.50449  -0.49672
 Alpha  occ. eigenvalues --   -0.49242  -0.48729  -0.48478  -0.48016  -0.47288
 Alpha  occ. eigenvalues --   -0.47016  -0.46471  -0.45866  -0.45588  -0.44954
 Alpha  occ. eigenvalues --   -0.44421  -0.44363  -0.44137  -0.43856  -0.43722
 Alpha  occ. eigenvalues --   -0.43582  -0.43005  -0.42764  -0.42557  -0.42541
 Alpha  occ. eigenvalues --   -0.42013  -0.41157  -0.40895  -0.40573  -0.40562
 Alpha  occ. eigenvalues --   -0.40196  -0.40055  -0.39965  -0.39851  -0.39545
 Alpha  occ. eigenvalues --   -0.39055  -0.39003  -0.38634  -0.38223  -0.37914
 Alpha  occ. eigenvalues --   -0.37648  -0.37418  -0.36849  -0.36429  -0.36349
 Alpha  occ. eigenvalues --   -0.35785  -0.35558  -0.35383  -0.34439  -0.34370
 Alpha  occ. eigenvalues --   -0.33697  -0.33438  -0.33282  -0.33004  -0.32789
 Alpha  occ. eigenvalues --   -0.32526  -0.32150  -0.32009  -0.30728  -0.29569
 Alpha  occ. eigenvalues --   -0.28206  -0.28024  -0.26638  -0.26202  -0.26010
 Alpha  occ. eigenvalues --   -0.25139  -0.24250  -0.23987  -0.22578  -0.21313
 Alpha  occ. eigenvalues --   -0.17720
 Alpha virt. eigenvalues --   -0.10572  -0.06729  -0.05007  -0.01416   0.00013
 Alpha virt. eigenvalues --    0.00568   0.01409   0.02352   0.02893   0.03295
 Alpha virt. eigenvalues --    0.03959   0.04240   0.04635   0.05144   0.05928

 Mulliken charges:
               1
     1  O   -0.161959
     2  O   -0.054418
     3  O   -0.259290
     4  O   -0.251816
     5  O   -0.197015
     6  O   -0.225746
     7  N   -0.154233
     8  N   -0.227573
     9  N   -0.168709
    10  N   -0.351376
    11  C   -0.035694
    12  C   -0.003963
    13  C   -0.163886
    14  C    0.079350
    15  C    0.097472
    16  C    0.116698
    17  C   -0.096192
    18  C   -0.168682
    19  C    0.025207
    20  C   -0.077282
    21  C    0.112376
    22  C    0.085213
    23  C   -0.032033
    24  C   -0.090515
    25  C   -0.091347
    26  C    0.067084
    27  C    0.123696
    28  C    0.001052
    29  C   -0.002491
    30  C    0.091603
    31  C   -0.124218
    32  C   -0.052487
    33  C   -0.086372
    34  C    0.081937
    35  C   -0.037652
    36  C   -0.200465
    37  C    0.098817
    38  C    0.015995
    39  C    0.173514
    40  C    0.127426
    41  C    0.219295
    42  C   -0.041587
    43  C   -0.090832
    44  H    0.209442
    45  H    0.054971
    46  H    0.069097
    47  H    0.028293
    48  H    0.058905
    49  H    0.034369
    50  H    0.032922
    51  H    0.010029
    52  H    0.214951
    53  H    0.029033
    54  H    0.041088
    55  H   -0.011250
    56  H    0.178111
    57  H    0.045589
    58  H    0.042449
    59  H    0.065348
    60  H    0.020283
    61  H    0.009012
    62  H    0.008922
    63  H    0.038755
    64  H   -0.002637
    65  H    0.034406
    66  H    0.040285
    67  H    0.027277
    68  H   -0.018105
    69  H    0.053444
    70  H    0.008684
    71  H    0.060580
    72  H    0.002948
    73  H    0.015633
    74  H    0.064782
    75  H    0.032979
    76  H    0.050249
    77  H    0.025368
    78  H    0.019665
    79  H    0.024028
    80  H    0.098199
    81  H    0.212992
 Sum of Mulliken charges =  -0.00000

 Dipole moment (field-independent basis, Debye):
    X=             -1.9904    Y=             -1.0968    Z=             -0.9166  Tot=              2.4505
 Quadrupole moment (field-independent basis, Debye-Ang):
   XX=           -252.7697   YY=           -236.5169   ZZ=           -253.8957
   XY=             18.4023   XZ=             15.9174   YZ=             -9.8287

 Normal termination of Gaussian 16 at Thu Jun 27 14:01:56 2019.
