 Gaussian 16, Revision A.03,
 Gaussian 16:  ES64L-G16RevA.03 25-Dec-2016

 --------------------------
 # td=(NStates=1) B3LYP/SVP
 --------------------------

 --
 TD
 --
 Symbolic Z-matrix:
 Charge =  0 Multiplicity = 1

                         Standard orientation:
 ---------------------------------------------------------------------
 Center     Atomic      Atomic             Coordinates (Angstroms)
 Number     Number       Type             X           Y           Z
 ---------------------------------------------------------------------
      1          8           0        4.429898   -4.903426   -1.638373
      2          8           0       -2.899078   -4.880962   -0.939340
      3          8           0       -6.967778   -1.591464   -1.854402
      4          8           0       -3.880705   -3.313174    0.210714
      5          8           0       -7.613575   -0.565206    0.012047
      6          8           0        3.027349    2.442096    0.360357
      7          7           0        0.218451   -0.583756    0.411195
      8          7           0       -1.541993    1.812369    0.262888
      9          7           0        3.398360   -3.092730   -0.688702
     10          7           0        0.757512    2.882169    0.070714
     11          6           0       -0.606884   -2.386989    1.244601
     12          6           0       -0.894162   -1.116496    0.786818
     13          6           0        0.780856   -2.567341    1.182527
     14          6           0        1.220632   -1.391527    0.640956
     15          6           0       -3.842122    1.430610    0.204538
     16          6           0       -2.504187    0.853033    0.560214
     17          6           0       -2.242595   -0.527640    0.774084
     18          6           0       -3.587081    2.799539   -0.113588
     19          6           0       -1.533136   -3.343644    2.095125
     20          6           0        5.532183   -2.787197   -1.384522
     21          6           0        3.679752   -1.800100   -0.280654
     22          6           0       -2.156001    2.971483   -0.136153
     23          6           0        5.027568   -1.476305   -0.518725
     24          6           0       -5.099806    0.692153    0.311513
     25          6           0        2.653810   -1.018509    0.303296
     26          6           0        1.634187   -3.577682    1.795634
     27          6           0        4.472721   -3.748814   -1.306275
     28          6           0       -2.000329   -4.462358    1.211927
     29          6           0       -5.341075   -0.216547   -0.864393
     30          6           0       -4.628141    3.912854   -0.493110
     31          6           0       -1.402066    4.049760   -0.337543
     32          6           0        6.822930   -3.396749   -0.954641
     33          6           0        5.813954   -0.419609   -0.168832
     34          6           0       -0.000165    4.028430   -0.254127
     35          6           0        0.978781    5.181602   -0.406109
     36          6           0        2.231434    4.674090   -0.169423
     37          6           0       -2.993086   -4.168698    0.188645
     38          6           0        5.543801    0.743635    0.667509
     39          6           0       -6.729318   -0.835329   -0.864466
     40          6           0        3.611334    5.349981   -0.203625
     41          6           0        2.030438    3.224737    0.110936
     42          6           0        0.547839    6.610785   -0.729630
     43          6           0        4.162151    5.624030    1.187206
     44          1           0        0.348615    0.464263    0.074992
     45          1           0       -3.156142   -1.139949    1.177578
     46          1           0       -2.373112   -2.752465    2.402811
     47          1           0       -1.009607   -3.633886    3.027530
     48          1           0        5.694263   -2.361696   -2.319441
     49          1           0       -5.153823   -0.123638    1.205306
     50          1           0       -5.999412    1.367009    0.392714
     51          1           0        2.794198    0.089320    0.451825
     52          1           0       -0.471879    1.782445    0.416684
     53          1           0        1.627903   -4.366434    1.120126
     54          1           0        2.583689   -3.289088    1.866606
     55          1           0        1.018582   -3.920200    2.664623
     56          1           0        2.601857   -3.619496   -0.302108
     57          1           0       -1.268237   -5.032250    0.530345
     58          1           0       -2.243418   -5.314674    1.903302
     59          1           0       -4.553163   -1.156619   -0.976767
     60          1           0       -5.262053    0.366460   -1.884936
     61          1           0       -4.477323    4.659955    0.274559
     62          1           0       -5.646922    3.248156   -0.560208
     63          1           0       -4.421883    4.003121   -1.500742
     64          1           0       -1.960246    5.102078   -0.809334
     65          1           0        7.717583   -2.675358   -1.021652
     66          1           0        7.026439   -4.353711   -1.582288
     67          1           0        6.955195   -3.918662    0.020366
     68          1           0        6.828343   -0.421539   -0.628504
     69          1           0        5.044679    1.352692    0.101336
     70          1           0        6.523962    1.166963    0.849620
     71          1           0        5.002542    0.476538    1.643070
     72          1           0        3.311211    6.334168   -0.531897
     73          1           0        4.323239    4.759257   -0.972135
     74          1           0       -0.350697    6.535681   -1.574136
     75          1           0        1.434827    7.185992   -1.064488
     76          1           0        0.138469    7.169229    0.384069
     77          1           0        3.721984    6.438111    1.874032
     78          1           0        5.113246    5.850676    1.192138
     79          1           0        4.090149    4.560187    1.599513
     80          1           0       -3.533953   -4.637347   -1.733732
     81          1           0       -7.719603   -2.255683   -1.789741
 ---------------------------------------------------------------------

 SCF Done:  E(RB3LYP) =  -1949.06901666     A.U. after   19 cycles

 Excitation energies and oscillator strengths:

 Excited State   1:      Singlet-A      1.7100 eV  725.04 nm  f=0.2702  <S**2>=0.000
     156 ->157         0.70419
     156 <-157        -0.10696
 This state for optimization and/or second-order correction.
 Total Energy, E(TD-HF/TD-DFT) =  -1949.00617411
 Copying the excited state density for this state as the 1-particle RhoCI density.

 The electronic state is 1-A.
 Alpha  occ. eigenvalues --  -19.19675 -19.19215 -19.12987 -19.10910 -19.10870
 Alpha  occ. eigenvalues --  -19.08753 -14.38256 -14.36041 -14.36031 -14.29500
 Alpha  occ. eigenvalues --  -10.33375 -10.31965 -10.28601 -10.25337 -10.23936
 Alpha  occ. eigenvalues --  -10.23851 -10.23843 -10.23793 -10.22947 -10.22632
 Alpha  occ. eigenvalues --  -10.22573 -10.22449 -10.22320 -10.22056 -10.21622
 Alpha  occ. eigenvalues --  -10.21579 -10.21155 -10.20980 -10.20958 -10.20520
 Alpha  occ. eigenvalues --  -10.20222 -10.19963 -10.19870 -10.19805 -10.19536
 Alpha  occ. eigenvalues --  -10.19376 -10.19096 -10.18738 -10.18647 -10.18581
 Alpha  occ. eigenvalues --  -10.18013 -10.16789 -10.16203  -1.11505  -1.10027
 Alpha  occ. eigenvalues --   -1.04088  -1.02353  -0.99477  -0.98050  -0.97205
 Alpha  occ. eigenvalues --   -0.97157  -0.95063  -0.90500  -0.83201  -0.82197
 Alpha  occ. eigenvalues --   -0.81474  -0.81094  -0.79990  -0.78989  -0.78340
 Alpha  occ. eigenvalues --   -0.77415  -0.77158  -0.74695  -0.73928  -0.73391
 Alpha  occ. eigenvalues --   -0.71966  -0.70356  -0.69763  -0.68959  -0.68162
 Alpha  occ. eigenvalues --   -0.67509  -0.65597  -0.64713  -0.62335  -0.61941
 Alpha  occ. eigenvalues --   -0.61171  -0.60494  -0.58649  -0.57800  -0.57624
 Alpha  occ. eigenvalues --   -0.56532  -0.54923  -0.54805  -0.53654  -0.53097
 Alpha  occ. eigenvalues --   -0.52475  -0.51753  -0.50820  -0.50229  -0.49629
 Alpha  occ. eigenvalues --   -0.49392  -0.48796  -0.48274  -0.47994  -0.47530
 Alpha  occ. eigenvalues --   -0.47123  -0.46866  -0.46589  -0.46392  -0.45758
 Alpha  occ. eigenvalues --   -0.45114  -0.44347  -0.44122  -0.43924  -0.43419
 Alpha  occ. eigenvalues --   -0.43097  -0.42933  -0.42893  -0.42536  -0.42065
 Alpha  occ. eigenvalues --   -0.41936  -0.41737  -0.41570  -0.41467  -0.41239
 Alpha  occ. eigenvalues --   -0.41158  -0.40123  -0.39921  -0.39844  -0.39334
 Alpha  occ. eigenvalues --   -0.38781  -0.38656  -0.38271  -0.38135  -0.37914
 Alpha  occ. eigenvalues --   -0.37492  -0.37402  -0.37114  -0.37003  -0.36461
 Alpha  occ. eigenvalues --   -0.36404  -0.35856  -0.35183  -0.35014  -0.34591
 Alpha  occ. eigenvalues --   -0.33756  -0.33661  -0.33235  -0.32400  -0.32232
 Alpha  occ. eigenvalues --   -0.31490  -0.30829  -0.30782  -0.28908  -0.28376
 Alpha  occ. eigenvalues --   -0.27419  -0.26673  -0.26386  -0.26011  -0.25566
 Alpha  occ. eigenvalues --   -0.25205  -0.25051  -0.23265  -0.23123  -0.21245
 Alpha  occ. eigenvalues --   -0.17936
 Alpha virt. eigenvalues --   -0.10922  -0.05695  -0.04048  -0.02307  -0.00370
 Alpha virt. eigenvalues --    0.00573   0.01667   0.02010   0.02692   0.03286
 Alpha virt. eigenvalues --    0.03654   0.04184   0.04548   0.06006   0.06108

 Mulliken charges:
               1
     1  O   -0.192717
     2  O   -0.221371
     3  O   -0.132541
     4  O   -0.256250
     5  O   -0.301956
     6  O   -0.300701
     7  N    0.041615
     8  N   -0.143442
     9  N   -0.132172
    10  N   -0.290347
    11  C   -0.161289
    12  C   -0.002843
    13  C   -0.233667
    14  C   -0.019451
    15  C   -0.037458
    16  C    0.057992
    17  C   -0.065555
    18  C   -0.201204
    19  C    0.133517
    20  C   -0.003085
    21  C    0.099485
    22  C    0.136090
    23  C    0.004912
    24  C    0.036895
    25  C   -0.136682
    26  C    0.266566
    27  C    0.135135
    28  C   -0.004678
    29  C   -0.120178
    30  C    0.143846
    31  C   -0.191173
    32  C   -0.018696
    33  C   -0.218896
    34  C    0.088635
    35  C   -0.082202
    36  C   -0.173128
    37  C    0.135495
    38  C    0.203823
    39  C    0.138555
    40  C    0.087201
    41  C    0.150569
    42  C   -0.015432
    43  C    0.022659
    44  H    0.169520
    45  H    0.060281
    46  H    0.002982
    47  H    0.019134
    48  H    0.025763
    49  H    0.053838
    50  H    0.036846
    51  H    0.027905
    52  H    0.170391
    53  H   -0.009797
    54  H   -0.012576
    55  H    0.007444
    56  H    0.120165
    57  H    0.044150
    58  H    0.052460
    59  H    0.086239
    60  H    0.042904
    61  H    0.058479
    62  H    0.027138
    63  H    0.014873
    64  H    0.032942
    65  H    0.024323
    66  H    0.035889
    67  H    0.010525
    68  H   -0.005178
    69  H    0.003866
    70  H   -0.008902
    71  H    0.044380
    72  H   -0.030334
    73  H    0.051014
    74  H    0.052905
    75  H    0.035240
    76  H    0.057742
    77  H    0.021807
    78  H   -0.035506
    79  H    0.032411
    80  H    0.235631
    81  H    0.217233
 Sum of Mulliken charges =  -0.00000

 Dipole moment (field-independent basis, Debye):
    X=             -2.4986    Y=             -0.5327    Z=             -1.1667  Tot=              2.8086
 Quadrupole moment (field-independent basis, Debye-Ang):
   XX=           -257.5955   YY=           -238.4673   ZZ=           -250.0289
   XY=             21.7856   XZ=             18.7519   YZ=            -11.1427

 Normal termination of Gaussian 16 at Wed Jul  3 11:24:10 2019.
