 Gaussian 16, Revision A.03,
 Gaussian 16:  ES64L-G16RevA.03 25-Dec-2016

 --------------------------
 # td=(NStates=1) B3LYP/SVP
 --------------------------

 --
 TD
 --
 Symbolic Z-matrix:
 Charge =  0 Multiplicity = 1

                         Standard orientation:
 ---------------------------------------------------------------------
 Center     Atomic      Atomic             Coordinates (Angstroms)
 Number     Number       Type             X           Y           Z
 ---------------------------------------------------------------------
      1          8           0        4.342351   -4.806946   -1.949317
      2          8           0       -2.953285   -5.052869   -0.901659
      3          8           0       -6.907695   -1.680376   -2.036805
      4          8           0       -3.668639   -3.197518    0.170669
      5          8           0       -7.395390   -0.776246   -0.190850
      6          8           0        2.880266    2.411679    0.338705
      7          7           0        0.228681   -0.508837    0.466181
      8          7           0       -1.521484    1.854796    0.443161
      9          7           0        3.347840   -3.122171   -0.606187
     10          7           0        0.668915    2.869101   -0.039229
     11          6           0       -0.582457   -2.410933    1.421477
     12          6           0       -0.932663   -1.019455    0.957655
     13          6           0        0.852689   -2.503443    1.253008
     14          6           0        1.309773   -1.365136    0.619809
     15          6           0       -3.823476    1.446976    0.459111
     16          6           0       -2.526997    0.925353    0.694921
     17          6           0       -2.226227   -0.442537    1.015377
     18          6           0       -3.591485    2.785568   -0.030507
     19          6           0       -1.521475   -3.309185    2.066166
     20          6           0        5.481041   -2.689470   -1.264558
     21          6           0        3.602771   -1.815995   -0.261090
     22          6           0       -2.184324    3.009975    0.074967
     23          6           0        5.051784   -1.541629   -0.555563
     24          6           0       -5.205903    0.653175    0.291731
     25          6           0        2.632180   -0.961770    0.242686
     26          6           0        1.717821   -3.626500    1.898852
     27          6           0        4.332880   -3.735829   -1.325582
     28          6           0       -1.946898   -4.588675    1.178965
     29          6           0       -5.220930   -0.170585   -1.073942
     30          6           0       -4.643940    3.813130   -0.321109
     31          6           0       -1.475689    4.085881   -0.350581
     32          6           0        6.887525   -3.250440   -0.953078
     33          6           0        5.779203   -0.529377   -0.036819
     34          6           0       -0.033617    4.013098   -0.306101
     35          6           0        0.971251    5.169397   -0.459854
     36          6           0        2.167892    4.616805   -0.267603
     37          6           0       -2.885844   -4.131782    0.062500
     38          6           0        5.379748    0.697398    0.605087
     39          6           0       -6.602260   -0.888394   -0.974279
     40          6           0        3.556918    5.223628   -0.312734
     41          6           0        1.996915    3.178038    0.123963
     42          6           0        0.574070    6.576313   -0.736272
     43          6           0        4.122597    5.680357    1.080152
     44          1           0        0.056654    0.449445    0.043270
     45          1           0       -2.975839   -1.156613    1.118003
     46          1           0       -2.522443   -2.867627    2.467320
     47          1           0       -1.106589   -3.668188    3.130503
     48          1           0        5.608379   -2.499215   -2.423186
     49          1           0       -5.170765    0.060821    1.153891
     50          1           0       -5.946452    1.353234    0.175366
     51          1           0        2.757162    0.062358    0.306211
     52          1           0       -0.392280    1.981995    0.264571
     53          1           0        1.852194   -4.616448    1.228609
     54          1           0        2.705897   -3.269384    2.111011
     55          1           0        1.294415   -3.816148    2.978298
     56          1           0        2.451877   -3.418170   -0.609352
     57          1           0       -1.109520   -5.224772    0.834220
     58          1           0       -2.121010   -5.254792    1.921536
     59          1           0       -4.434429   -0.872696   -1.007736
     60          1           0       -5.188294    0.451395   -1.995323
     61          1           0       -4.371563    4.701096    0.315272
     62          1           0       -5.574112    3.489421   -0.088452
     63          1           0       -4.432453    4.423994   -1.344251
     64          1           0       -2.122354    4.931780   -0.800114
     65          1           0        7.525561   -2.427259   -1.075703
     66          1           0        6.976629   -4.131826   -1.702368
     67          1           0        7.251173   -3.587825    0.144973
     68          1           0        6.745560   -0.415093   -0.397318
     69          1           0        5.046893    1.441601   -0.111696
     70          1           0        6.318445    1.101812    1.096385
     71          1           0        4.572603    0.387181    1.309358
     72          1           0        3.712014    6.211848   -1.116265
     73          1           0        4.372603    4.429362   -0.561693
     74          1           0       -0.329890    6.805309   -1.503442
     75          1           0        1.456561    7.226315   -1.038993
     76          1           0        0.098643    6.965372    0.037587
     77          1           0        3.671911    6.606880    1.653190
     78          1           0        5.239658    5.935872    1.024697
     79          1           0        3.999868    4.818160    1.545173
     80          1           0       -3.670049   -4.734545   -1.525683
     81          1           0       -7.772401   -2.070405   -1.751811
 ---------------------------------------------------------------------

 SCF Done:  E(RB3LYP) =  -1949.09791846     A.U. after   16 cycles

 Excitation energies and oscillator strengths:

 Excited State   1:      Singlet-A      1.7886 eV  693.20 nm  f=0.3869  <S**2>=0.000
     156 ->157         0.71126
     156 <-157        -0.13548
 This state for optimization and/or second-order correction.
 Total Energy, E(TD-HF/TD-DFT) =  -1949.03218976
 Copying the excited state density for this state as the 1-particle RhoCI density.

 The electronic state is 1-A.
 Alpha  occ. eigenvalues --  -19.20734 -19.16325 -19.14864 -19.12907 -19.11490
 Alpha  occ. eigenvalues --  -19.10901 -14.37856 -14.37482 -14.33725 -14.30390
 Alpha  occ. eigenvalues --  -10.34496 -10.30971 -10.29705 -10.26976 -10.24749
 Alpha  occ. eigenvalues --  -10.24190 -10.23755 -10.23144 -10.23138 -10.22335
 Alpha  occ. eigenvalues --  -10.22319 -10.21418 -10.21361 -10.21138 -10.21010
 Alpha  occ. eigenvalues --  -10.20975 -10.20576 -10.20538 -10.20361 -10.20352
 Alpha  occ. eigenvalues --  -10.20296 -10.20157 -10.20150 -10.19743 -10.19708
 Alpha  occ. eigenvalues --  -10.19681 -10.19590 -10.19557 -10.18819 -10.18706
 Alpha  occ. eigenvalues --  -10.18567 -10.17918 -10.17661  -1.12913  -1.11704
 Alpha  occ. eigenvalues --   -1.03903  -1.03044  -1.02251  -1.01274  -0.98117
 Alpha  occ. eigenvalues --   -0.96915  -0.96285  -0.92399  -0.83086  -0.81495
 Alpha  occ. eigenvalues --   -0.81469  -0.80827  -0.79679  -0.79132  -0.77253
 Alpha  occ. eigenvalues --   -0.76920  -0.76569  -0.75378  -0.74583  -0.71899
 Alpha  occ. eigenvalues --   -0.70713  -0.69940  -0.69804  -0.68470  -0.67492
 Alpha  occ. eigenvalues --   -0.66911  -0.65755  -0.64932  -0.62840  -0.61911
 Alpha  occ. eigenvalues --   -0.60641  -0.59478  -0.58359  -0.58031  -0.57129
 Alpha  occ. eigenvalues --   -0.56038  -0.55231  -0.54304  -0.54283  -0.53463
 Alpha  occ. eigenvalues --   -0.53111  -0.52432  -0.51543  -0.50800  -0.50304
 Alpha  occ. eigenvalues --   -0.49928  -0.49183  -0.48357  -0.48216  -0.48055
 Alpha  occ. eigenvalues --   -0.47651  -0.46726  -0.46433  -0.46224  -0.45020
 Alpha  occ. eigenvalues --   -0.44825  -0.44637  -0.44236  -0.44118  -0.43950
 Alpha  occ. eigenvalues --   -0.43612  -0.43396  -0.42829  -0.42816  -0.42604
 Alpha  occ. eigenvalues --   -0.42227  -0.42012  -0.41619  -0.41393  -0.41024
 Alpha  occ. eigenvalues --   -0.40789  -0.40402  -0.40248  -0.39971  -0.39743
 Alpha  occ. eigenvalues --   -0.39413  -0.39237  -0.39126  -0.38402  -0.38206
 Alpha  occ. eigenvalues --   -0.38113  -0.37765  -0.37583  -0.37076  -0.36815
 Alpha  occ. eigenvalues --   -0.36635  -0.35909  -0.35861  -0.34730  -0.34427
 Alpha  occ. eigenvalues --   -0.34228  -0.34191  -0.33579  -0.33263  -0.33015
 Alpha  occ. eigenvalues --   -0.32601  -0.32432  -0.32134  -0.30465  -0.29871
 Alpha  occ. eigenvalues --   -0.28862  -0.28713  -0.26889  -0.26403  -0.25415
 Alpha  occ. eigenvalues --   -0.25039  -0.24618  -0.24314  -0.23603  -0.21991
 Alpha  occ. eigenvalues --   -0.17582
 Alpha virt. eigenvalues --   -0.10657  -0.05965  -0.04188  -0.02949  -0.00333
 Alpha virt. eigenvalues --    0.02044   0.02669   0.03217   0.03523   0.03738
 Alpha virt. eigenvalues --    0.03963   0.04456   0.05054   0.05921   0.06483

 Mulliken charges:
               1
     1  O   -0.229015
     2  O   -0.166781
     3  O   -0.218869
     4  O   -0.238331
     5  O   -0.146681
     6  O   -0.181560
     7  N   -0.059901
     8  N   -0.215143
     9  N   -0.034220
    10  N   -0.302234
    11  C   -0.035936
    12  C   -0.007625
    13  C   -0.174894
    14  C    0.088786
    15  C   -0.135631
    16  C    0.114899
    17  C   -0.015690
    18  C   -0.154091
    19  C   -0.060445
    20  C   -0.121399
    21  C    0.027984
    22  C    0.102085
    23  C    0.090315
    24  C    0.172588
    25  C   -0.049389
    26  C    0.036911
    27  C    0.152990
    28  C    0.050402
    29  C    0.010849
    30  C    0.113523
    31  C   -0.138830
    32  C    0.010025
    33  C   -0.173403
    34  C    0.084875
    35  C   -0.059432
    36  C   -0.161311
    37  C    0.198983
    38  C    0.094314
    39  C    0.095817
    40  C   -0.026813
    41  C    0.163982
    42  C    0.123312
    43  C    0.002127
    44  H    0.142261
    45  H   -0.025037
    46  H    0.039654
    47  H    0.021163
    48  H    0.054823
    49  H    0.019463
    50  H   -0.017207
    51  H   -0.033317
    52  H    0.196946
    53  H    0.048546
    54  H    0.018399
    55  H    0.035276
    56  H    0.091955
    57  H    0.014217
    58  H    0.003692
    59  H    0.029013
    60  H    0.049420
    61  H    0.018821
    62  H   -0.004973
    63  H    0.027574
    64  H   -0.003409
    65  H    0.004503
    66  H    0.051896
    67  H    0.025786
    68  H   -0.029901
    69  H    0.058730
    70  H    0.008368
    71  H    0.041445
    72  H    0.024031
    73  H    0.027824
    74  H    0.017128
    75  H    0.031630
    76  H   -0.020286
    77  H    0.025188
    78  H    0.016601
    79  H   -0.009235
    80  H    0.199971
    81  H    0.171896
 Sum of Mulliken charges =  -0.00000

 Dipole moment (field-independent basis, Debye):
    X=             -2.5575    Y=              0.7682    Z=              0.2768  Tot=              2.6847
 Quadrupole moment (field-independent basis, Debye-Ang):
   XX=           -250.0708   YY=           -242.2959   ZZ=           -257.2792
   XY=             16.0514   XZ=             11.6478   YZ=            -14.8477

 Normal termination of Gaussian 16 at Sun Jun 30 00:44:22 2019.
