 Gaussian 16, Revision A.03,
 Gaussian 16:  ES64L-G16RevA.03 25-Dec-2016

 --------------------------
 # td=(NStates=1) B3LYP/SVP
 --------------------------

 --
 TD
 --
 Symbolic Z-matrix:
 Charge =  0 Multiplicity = 1

                         Standard orientation:
 ---------------------------------------------------------------------
 Center     Atomic      Atomic             Coordinates (Angstroms)
 Number     Number       Type             X           Y           Z
 ---------------------------------------------------------------------
      1          8           0        3.878448   -5.059940   -1.617712
      2          8           0       -3.046025   -4.957984   -1.039650
      3          8           0       -7.009087   -1.232913   -1.986789
      4          8           0       -3.790968   -3.139032   -0.017727
      5          8           0       -7.581065   -0.375676   -0.008654
      6          8           0        3.177134    2.292753    0.277757
      7          7           0        0.216197   -0.540682    0.577513
      8          7           0       -1.497009    1.820231    0.543592
      9          7           0        3.070865   -3.061629   -0.641095
     10          7           0        0.917092    2.895634    0.105078
     11          6           0       -0.666263   -2.383280    1.515064
     12          6           0       -0.923552   -1.070722    0.927923
     13          6           0        0.777243   -2.481687    1.271226
     14          6           0        1.314745   -1.382880    0.774395
     15          6           0       -3.769667    1.533916    0.345373
     16          6           0       -2.448642    0.861885    0.605319
     17          6           0       -2.249515   -0.503536    0.843118
     18          6           0       -3.397281    2.899916   -0.036579
     19          6           0       -1.672544   -3.408854    2.017186
     20          6           0        5.298670   -2.920899   -1.414919
     21          6           0        3.456254   -1.724382   -0.258193
     22          6           0       -2.106754    3.041710    0.158888
     23          6           0        4.849665   -1.667416   -0.708735
     24          6           0       -5.131058    0.901049    0.383297
     25          6           0        2.619617   -1.001960    0.340124
     26          6           0        1.672165   -3.578065    1.903039
     27          6           0        4.085699   -3.869873   -1.282539
     28          6           0       -2.039761   -4.452131    1.128769
     29          6           0       -5.379095   -0.059081   -0.810140
     30          6           0       -4.284383    3.998370   -0.525625
     31          6           0       -1.222884    4.154044   -0.320332
     32          6           0        6.612675   -3.555451   -0.851322
     33          6           0        5.720704   -0.591846   -0.444792
     34          6           0        0.231791    3.980299   -0.226729
     35          6           0        1.247539    5.114837   -0.397637
     36          6           0        2.463773    4.615609   -0.209880
     37          6           0       -3.043155   -3.987661   -0.003093
     38          6           0        5.472303    0.540585    0.461870
     39          6           0       -6.785713   -0.571001   -0.940406
     40          6           0        3.926364    5.146710   -0.311439
     41          6           0        2.207820    3.085377    0.116716
     42          6           0        0.761383    6.474885   -0.821629
     43          6           0        4.344950    5.284485    1.138889
     44          1           0        0.322017    0.091055   -0.169324
     45          1           0       -3.131912   -1.180678    1.213774
     46          1           0       -2.616974   -2.867847    2.515609
     47          1           0       -1.201954   -3.905300    2.910408
     48          1           0        5.302113   -2.456177   -2.552670
     49          1           0       -5.389908    0.193523    1.225287
     50          1           0       -5.754655    1.669170    0.328026
     51          1           0        2.954995    0.075731    0.567467
     52          1           0       -0.410512    1.891755    0.791622
     53          1           0        1.810132   -4.438291    1.070509
     54          1           0        2.652979   -3.322058    2.065639
     55          1           0        1.360580   -4.000670    2.614810
     56          1           0        1.995680   -3.419492   -0.837115
     57          1           0       -1.112147   -4.936019    0.572327
     58          1           0       -2.545018   -5.312036    1.649732
     59          1           0       -4.810884   -1.020263   -0.843824
     60          1           0       -5.151777    0.551143   -1.681653
     61          1           0       -4.156003    4.855469    0.267633
     62          1           0       -5.358021    3.659222   -0.509538
     63          1           0       -3.912537    4.402489   -1.427029
     64          1           0       -1.806815    4.929875   -0.745343
     65          1           0        7.402652   -2.723440   -0.877801
     66          1           0        7.141396   -4.597007   -1.349041
     67          1           0        6.179496   -3.718425    0.196843
     68          1           0        6.857558   -0.592598   -0.785267
     69          1           0        4.993819    1.439912   -0.015147
     70          1           0        6.354838    1.000721    0.874209
     71          1           0        4.746653    0.196843    1.205583
     72          1           0        3.743655    6.101356   -0.868835
     73          1           0        4.449180    4.164246   -0.878431
     74          1           0        0.075637    6.444097   -1.769532
     75          1           0        1.541324    7.089662   -1.026609
     76          1           0       -0.005548    7.024608   -0.258428
     77          1           0        3.645376    5.894569    1.930487
     78          1           0        5.206180    5.807465    1.300967
     79          1           0        4.391644    4.431455    1.770434
     80          1           0       -3.547301   -4.618544   -1.835003
     81          1           0       -7.851993   -1.355765   -1.797441
 ---------------------------------------------------------------------

 SCF Done:  E(RB3LYP) =  -1948.98900620     A.U. after   17 cycles

 Excitation energies and oscillator strengths:

 Excited State   1:      Singlet-A      1.7425 eV  711.55 nm  f=0.2820  <S**2>=0.000
     156 ->157         0.70539
     156 <-157        -0.12151
 This state for optimization and/or second-order correction.
 Total Energy, E(TD-HF/TD-DFT) =  -1948.92497215
 Copying the excited state density for this state as the 1-particle RhoCI density.

 The electronic state is 1-A.
 Alpha  occ. eigenvalues --  -19.21059 -19.17245 -19.16018 -19.12494 -19.11054
 Alpha  occ. eigenvalues --  -19.09974 -14.37275 -14.36110 -14.36017 -14.29245
 Alpha  occ. eigenvalues --  -10.33398 -10.32509 -10.29419 -10.26349 -10.24339
 Alpha  occ. eigenvalues --  -10.24092 -10.23760 -10.23592 -10.23239 -10.23036
 Alpha  occ. eigenvalues --  -10.22886 -10.22545 -10.22540 -10.22382 -10.22379
 Alpha  occ. eigenvalues --  -10.21492 -10.21045 -10.21002 -10.20965 -10.20793
 Alpha  occ. eigenvalues --  -10.20538 -10.20531 -10.20283 -10.20199 -10.20124
 Alpha  occ. eigenvalues --  -10.19484 -10.18774 -10.18605 -10.18097 -10.17699
 Alpha  occ. eigenvalues --  -10.17314 -10.16948 -10.16609  -1.17867  -1.12906
 Alpha  occ. eigenvalues --   -1.01430  -1.01008  -1.00632  -1.00444  -0.99673
 Alpha  occ. eigenvalues --   -0.97257  -0.92774  -0.92582  -0.83031  -0.82593
 Alpha  occ. eigenvalues --   -0.81943  -0.80642  -0.79959  -0.78947  -0.78316
 Alpha  occ. eigenvalues --   -0.77741  -0.75984  -0.74707  -0.73991  -0.72361
 Alpha  occ. eigenvalues --   -0.71971  -0.70256  -0.69559  -0.68222  -0.68062
 Alpha  occ. eigenvalues --   -0.67422  -0.65590  -0.63176  -0.62232  -0.61714
 Alpha  occ. eigenvalues --   -0.60881  -0.60452  -0.59222  -0.56881  -0.56302
 Alpha  occ. eigenvalues --   -0.56011  -0.55624  -0.54896  -0.53294  -0.52640
 Alpha  occ. eigenvalues --   -0.52456  -0.52225  -0.52043  -0.51450  -0.51157
 Alpha  occ. eigenvalues --   -0.50251  -0.49894  -0.49590  -0.49321  -0.48131
 Alpha  occ. eigenvalues --   -0.46899  -0.46624  -0.46218  -0.45761  -0.45208
 Alpha  occ. eigenvalues --   -0.44812  -0.44573  -0.44299  -0.44140  -0.43849
 Alpha  occ. eigenvalues --   -0.43671  -0.43229  -0.43045  -0.42645  -0.42506
 Alpha  occ. eigenvalues --   -0.42330  -0.41792  -0.41680  -0.41493  -0.40914
 Alpha  occ. eigenvalues --   -0.40553  -0.40340  -0.39904  -0.39630  -0.39401
 Alpha  occ. eigenvalues --   -0.39279  -0.39115  -0.38798  -0.38677  -0.38211
 Alpha  occ. eigenvalues --   -0.37578  -0.37467  -0.37137  -0.37048  -0.36978
 Alpha  occ. eigenvalues --   -0.36697  -0.36238  -0.35829  -0.35714  -0.34765
 Alpha  occ. eigenvalues --   -0.34389  -0.33512  -0.33424  -0.33291  -0.33148
 Alpha  occ. eigenvalues --   -0.32615  -0.31927  -0.31039  -0.30310  -0.29724
 Alpha  occ. eigenvalues --   -0.28180  -0.26741  -0.26290  -0.25646  -0.25329
 Alpha  occ. eigenvalues --   -0.24649  -0.24115  -0.23610  -0.23256  -0.21826
 Alpha  occ. eigenvalues --   -0.18621
 Alpha virt. eigenvalues --   -0.11609  -0.05408  -0.03963  -0.01126  -0.00666
 Alpha virt. eigenvalues --    0.00479   0.01260   0.02697   0.03659   0.04124
 Alpha virt. eigenvalues --    0.04554   0.04762   0.05194   0.05409   0.05808

 Mulliken charges:
               1
     1  O   -0.244352
     2  O   -0.270138
     3  O   -0.004506
     4  O   -0.115330
     5  O   -0.283718
     6  O   -0.273989
     7  N    0.014663
     8  N   -0.155934
     9  N   -0.291898
    10  N   -0.209466
    11  C   -0.117827
    12  C   -0.022589
    13  C   -0.232224
    14  C    0.100188
    15  C   -0.110195
    16  C    0.090971
    17  C   -0.081130
    18  C   -0.160730
    19  C    0.084172
    20  C   -0.044826
    21  C    0.237854
    22  C    0.074958
    23  C   -0.065744
    24  C    0.211343
    25  C   -0.208813
    26  C    0.271710
    27  C    0.173400
    28  C   -0.014010
    29  C   -0.048090
    30  C    0.098872
    31  C   -0.086060
    32  C   -0.026318
    33  C   -0.172614
    34  C    0.102565
    35  C   -0.085658
    36  C   -0.237838
    37  C    0.112374
    38  C    0.068229
    39  C    0.086735
    40  C    0.083820
    41  C    0.134606
    42  C    0.128225
    43  C    0.025207
    44  H    0.126843
    45  H    0.054766
    46  H    0.035620
    47  H    0.014661
    48  H    0.071873
    49  H    0.032642
    50  H   -0.048896
    51  H    0.050366
    52  H    0.192752
    53  H    0.003781
    54  H   -0.009607
    55  H   -0.110194
    56  H    0.188711
    57  H    0.061440
    58  H    0.054645
    59  H    0.060499
    60  H    0.019638
    61  H    0.039427
    62  H    0.028279
    63  H    0.024198
    64  H   -0.040850
    65  H    0.036051
    66  H    0.070642
    67  H    0.041777
    68  H    0.019385
    69  H    0.070216
    70  H   -0.005015
    71  H    0.024910
    72  H    0.014291
    73  H    0.066082
    74  H    0.004957
    75  H   -0.021323
    76  H    0.005309
    77  H    0.001336
    78  H   -0.020845
    79  H    0.011835
    80  H    0.189603
    81  H    0.104298
 Sum of Mulliken charges =  -0.00000

 Dipole moment (field-independent basis, Debye):
    X=             -3.7217    Y=              1.3231    Z=             -1.0526  Tot=              4.0878
 Quadrupole moment (field-independent basis, Debye-Ang):
   XX=           -248.6682   YY=           -257.3724   ZZ=           -250.7756
   XY=             12.6847   XZ=             15.5688   YZ=            -13.7300

 Normal termination of Gaussian 16 at Tue Jul  2 01:13:42 2019.
