 Gaussian 16, Revision A.03,
 Gaussian 16:  ES64L-G16RevA.03 25-Dec-2016

 --------------------------
 # td=(NStates=1) B3LYP/SVP
 --------------------------

 --
 TD
 --
 Symbolic Z-matrix:
 Charge =  0 Multiplicity = 1

                         Standard orientation:
 ---------------------------------------------------------------------
 Center     Atomic      Atomic             Coordinates (Angstroms)
 Number     Number       Type             X           Y           Z
 ---------------------------------------------------------------------
      1          8           0        4.272272   -4.858612   -1.880355
      2          8           0       -2.820636   -4.843026   -1.265769
      3          8           0       -7.102239   -1.654354   -1.653003
      4          8           0       -3.802128   -3.094038   -0.169387
      5          8           0       -7.502588   -0.656420    0.364340
      6          8           0        2.949526    2.307164    0.460741
      7          7           0        0.312064   -0.458273    0.689350
      8          7           0       -1.607704    1.847592    0.388294
      9          7           0        3.368486   -3.131793   -0.680632
     10          7           0        0.765666    2.996065    0.138364
     11          6           0       -0.609841   -2.354393    1.348458
     12          6           0       -0.898063   -0.998436    0.844994
     13          6           0        0.861912   -2.597560    1.245781
     14          6           0        1.345821   -1.327310    0.769923
     15          6           0       -3.784132    1.456649    0.245043
     16          6           0       -2.608964    0.895485    0.544821
     17          6           0       -2.117938   -0.420342    0.795028
     18          6           0       -3.607332    2.851650   -0.126254
     19          6           0       -1.650306   -3.341009    1.900702
     20          6           0        5.606138   -2.819325   -1.310511
     21          6           0        3.673025   -1.764613   -0.183438
     22          6           0       -2.196881    3.001339   -0.089652
     23          6           0        5.074666   -1.535395   -0.410251
     24          6           0       -5.141786    0.733767    0.442405
     25          6           0        2.739144   -0.962089    0.377648
     26          6           0        1.578455   -3.793418    1.724680
     27          6           0        4.386416   -3.771329   -1.315257
     28          6           0       -2.138656   -4.481942    0.990203
     29          6           0       -5.444437   -0.152164   -0.814967
     30          6           0       -4.624993    3.806637   -0.614316
     31          6           0       -1.338381    4.075508   -0.378471
     32          6           0        6.815189   -3.524871   -0.629485
     33          6           0        5.925658   -0.436287   -0.065878
     34          6           0        0.051651    4.028752   -0.258213
     35          6           0        1.018891    5.097364   -0.476005
     36          6           0        2.287448    4.637128   -0.170769
     37          6           0       -3.072808   -4.027585   -0.179234
     38          6           0        5.418752    0.771565    0.563458
     39          6           0       -6.744756   -0.824501   -0.631748
     40          6           0        3.625173    5.311942   -0.303770
     41          6           0        2.101234    3.268043    0.159382
     42          6           0        0.625655    6.495448   -0.937798
     43          6           0        4.283148    5.407978    0.987186
     44          1           0        0.349160    0.357462    0.137311
     45          1           0       -2.986135   -1.070068    0.876527
     46          1           0       -2.421769   -2.680881    2.355685
     47          1           0       -1.281505   -3.753410    2.926313
     48          1           0        5.758014   -2.592728   -2.310470
     49          1           0       -5.112747    0.001984    1.299367
     50          1           0       -5.962241    1.358879    0.638341
     51          1           0        2.915737    0.100857    0.604474
     52          1           0       -0.428558    1.978462    0.357612
     53          1           0        1.832829   -4.529261    0.817777
     54          1           0        2.459911   -3.498452    2.176345
     55          1           0        0.961409   -4.332287    2.568726
     56          1           0        2.347847   -3.380165   -0.858786
     57          1           0       -1.267943   -4.926277    0.617008
     58          1           0       -2.893074   -5.178414    1.511906
     59          1           0       -4.644472   -0.972192   -0.820912
     60          1           0       -5.337983    0.255888   -1.902547
     61          1           0       -4.341179    4.584991   -0.147861
     62          1           0       -5.748360    3.413410   -0.279211
     63          1           0       -4.609494    3.935117   -1.555118
     64          1           0       -1.809578    4.871136   -0.893878
     65          1           0        7.779185   -2.844615   -0.540701
     66          1           0        7.300380   -4.379405   -1.129786
     67          1           0        6.618007   -3.718635    0.422395
     68          1           0        6.968070   -0.778310   -0.156445
     69          1           0        4.693529    1.376893   -0.028475
     70          1           0        6.093441    1.263352    1.130754
     71          1           0        4.759291    0.654372    1.540588
     72          1           0        3.392117    6.415910   -0.643513
     73          1           0        4.194011    4.705078   -1.193818
     74          1           0        0.155082    6.598106   -1.830635
     75          1           0        1.558290    7.092470   -1.173739
     76          1           0        0.164121    7.198544   -0.116191
     77          1           0        3.633292    6.030455    1.698053
     78          1           0        5.266901    5.900714    0.757525
     79          1           0        4.757245    4.511194    1.608496
     80          1           0       -3.549413   -4.439354   -1.888649
     81          1           0       -8.021263   -2.151779   -1.436813
 ---------------------------------------------------------------------

 SCF Done:  E(RB3LYP) =  -1949.09290824     A.U. after   23 cycles

 Excitation energies and oscillator strengths:

 Excited State   1:      Singlet-A      1.6191 eV  765.75 nm  f=0.2438  <S**2>=0.000
     156 ->157         0.70658
     156 <-157        -0.12855
 This state for optimization and/or second-order correction.
 Total Energy, E(TD-HF/TD-DFT) =  -1949.03340668
 Copying the excited state density for this state as the 1-particle RhoCI density.

 The electronic state is 1-A.
 Alpha  occ. eigenvalues --  -19.20432 -19.18686 -19.16049 -19.12022 -19.10240
 Alpha  occ. eigenvalues --  -19.08969 -14.38660 -14.37218 -14.33774 -14.28560
 Alpha  occ. eigenvalues --  -10.34214 -10.32093 -10.28754 -10.25775 -10.25611
 Alpha  occ. eigenvalues --  -10.25101 -10.24140 -10.22719 -10.22570 -10.22497
 Alpha  occ. eigenvalues --  -10.22419 -10.22355 -10.22041 -10.21719 -10.21500
 Alpha  occ. eigenvalues --  -10.21475 -10.21138 -10.21115 -10.21086 -10.21051
 Alpha  occ. eigenvalues --  -10.20395 -10.20311 -10.20009 -10.19987 -10.19929
 Alpha  occ. eigenvalues --  -10.19733 -10.19597 -10.19254 -10.18664 -10.18523
 Alpha  occ. eigenvalues --  -10.18255 -10.18219 -10.16858  -1.11582  -1.07122
 Alpha  occ. eigenvalues --   -1.03279  -1.02098  -1.00998  -0.97883  -0.97641
 Alpha  occ. eigenvalues --   -0.96345  -0.93190  -0.91485  -0.82486  -0.82032
 Alpha  occ. eigenvalues --   -0.81221  -0.80257  -0.79802  -0.79382  -0.77895
 Alpha  occ. eigenvalues --   -0.77355  -0.76802  -0.75161  -0.74740  -0.72947
 Alpha  occ. eigenvalues --   -0.72325  -0.70592  -0.69484  -0.68424  -0.67826
 Alpha  occ. eigenvalues --   -0.67041  -0.65799  -0.64422  -0.62531  -0.60615
 Alpha  occ. eigenvalues --   -0.59855  -0.59487  -0.58330  -0.58203  -0.57666
 Alpha  occ. eigenvalues --   -0.56316  -0.55725  -0.55073  -0.53586  -0.52796
 Alpha  occ. eigenvalues --   -0.52674  -0.52014  -0.51451  -0.51050  -0.49613
 Alpha  occ. eigenvalues --   -0.49601  -0.48882  -0.48362  -0.47273  -0.47179
 Alpha  occ. eigenvalues --   -0.47057  -0.46634  -0.46449  -0.46214  -0.45677
 Alpha  occ. eigenvalues --   -0.45467  -0.45106  -0.44422  -0.44176  -0.43692
 Alpha  occ. eigenvalues --   -0.43468  -0.43301  -0.42938  -0.42848  -0.42475
 Alpha  occ. eigenvalues --   -0.42198  -0.41941  -0.41910  -0.41186  -0.40985
 Alpha  occ. eigenvalues --   -0.40694  -0.40499  -0.40339  -0.40086  -0.39466
 Alpha  occ. eigenvalues --   -0.39453  -0.38754  -0.38547  -0.38302  -0.38063
 Alpha  occ. eigenvalues --   -0.37765  -0.37363  -0.37107  -0.36999  -0.36502
 Alpha  occ. eigenvalues --   -0.36386  -0.35721  -0.35301  -0.35050  -0.34991
 Alpha  occ. eigenvalues --   -0.34318  -0.34016  -0.33319  -0.33176  -0.32745
 Alpha  occ. eigenvalues --   -0.32180  -0.31200  -0.31026  -0.30628  -0.30013
 Alpha  occ. eigenvalues --   -0.27494  -0.26423  -0.26336  -0.25915  -0.25397
 Alpha  occ. eigenvalues --   -0.24835  -0.23957  -0.23790  -0.23185  -0.21990
 Alpha  occ. eigenvalues --   -0.18196
 Alpha virt. eigenvalues --   -0.11572  -0.06995  -0.05405  -0.01638  -0.00583
 Alpha virt. eigenvalues --    0.00343   0.01959   0.02128   0.02675   0.03201
 Alpha virt. eigenvalues --    0.03625   0.04429   0.04842   0.05590   0.05771

 Mulliken charges:
               1
     1  O   -0.236388
     2  O   -0.222624
     3  O   -0.247532
     4  O   -0.184618
     5  O   -0.285269
     6  O   -0.317464
     7  N    0.048871
     8  N   -0.237350
     9  N   -0.173323
    10  N   -0.267701
    11  C   -0.135057
    12  C    0.091471
    13  C   -0.172984
    14  C    0.007742
    15  C   -0.072346
    16  C    0.076564
    17  C   -0.060886
    18  C   -0.155233
    19  C    0.039741
    20  C   -0.042878
    21  C    0.171830
    22  C    0.043784
    23  C   -0.070495
    24  C    0.113703
    25  C   -0.104911
    26  C    0.090077
    27  C    0.130785
    28  C    0.086768
    29  C   -0.067699
    30  C    0.236937
    31  C   -0.087029
    32  C    0.012084
    33  C   -0.053602
    34  C    0.095165
    35  C   -0.102778
    36  C   -0.146823
    37  C    0.112986
    38  C    0.058802
    39  C    0.180094
    40  C    0.059000
    41  C    0.159061
    42  C    0.098452
    43  C   -0.040056
    44  H    0.121598
    45  H   -0.004230
    46  H    0.012843
    47  H    0.024560
    48  H    0.024931
    49  H    0.027784
    50  H    0.002279
    51  H    0.032081
    52  H    0.212493
    53  H    0.048990
    54  H    0.011285
    55  H    0.029903
    56  H    0.158524
    57  H    0.021993
    58  H    0.058091
    59  H    0.060482
    60  H    0.052688
    61  H   -0.029502
    62  H    0.034131
    63  H   -0.024827
    64  H   -0.046901
    65  H    0.014443
    66  H    0.032770
    67  H    0.017239
    68  H   -0.001811
    69  H    0.090592
    70  H   -0.026598
    71  H    0.032257
    72  H    0.009353
    73  H    0.044919
    74  H   -0.003061
    75  H   -0.013209
    76  H    0.039313
    77  H    0.026949
    78  H    0.003478
    79  H    0.044918
    80  H    0.200657
    81  H    0.229721
 Sum of Mulliken charges =  -0.00000

 Dipole moment (field-independent basis, Debye):
    X=             -2.6634    Y=              0.0364    Z=             -0.7639  Tot=              2.7711
 Quadrupole moment (field-independent basis, Debye-Ang):
   XX=           -251.7426   YY=           -245.8232   ZZ=           -253.6041
   XY=             19.6721   XZ=             18.6549   YZ=            -17.6374

 Normal termination of Gaussian 16 at Tue Jul  2 07:05:26 2019.
