 Gaussian 16, Revision A.03,
 Gaussian 16:  ES64L-G16RevA.03 25-Dec-2016

 --------------------------
 # td=(NStates=1) B3LYP/SVP
 --------------------------

 --
 TD
 --
 Symbolic Z-matrix:
 Charge =  0 Multiplicity = 1

                         Standard orientation:
 ---------------------------------------------------------------------
 Center     Atomic      Atomic             Coordinates (Angstroms)
 Number     Number       Type             X           Y           Z
 ---------------------------------------------------------------------
      1          8           0        3.964148   -4.974820   -1.860863
      2          8           0       -3.289455   -4.537410   -1.044807
      3          8           0       -6.932401   -1.635352   -1.758703
      4          8           0       -3.944235   -2.920440    0.205258
      5          8           0       -7.604707   -0.155069   -0.194175
      6          8           0        3.168452    2.242676    0.406988
      7          7           0        0.275013   -0.424863    0.681410
      8          7           0       -1.503111    1.904647    0.505206
      9          7           0        3.139372   -3.169151   -0.790360
     10          7           0        0.856098    2.843321    0.088953
     11          6           0       -0.660436   -2.398736    1.477986
     12          6           0       -0.948550   -0.981033    1.063370
     13          6           0        0.631737   -2.614856    1.178654
     14          6           0        1.204248   -1.466949    0.719525
     15          6           0       -3.738260    1.607431    0.280583
     16          6           0       -2.476249    0.948189    0.649174
     17          6           0       -2.247709   -0.472962    0.934323
     18          6           0       -3.528761    2.967205   -0.045386
     19          6           0       -1.668229   -3.422549    1.999579
     20          6           0        5.419384   -2.995748   -1.311370
     21          6           0        3.505542   -1.942776   -0.206749
     22          6           0       -2.046053    3.093414    0.069278
     23          6           0        4.923141   -1.715002   -0.514711
     24          6           0       -5.028291    0.873539    0.262911
     25          6           0        2.519626   -1.029480    0.383416
     26          6           0        1.377584   -3.741429    1.660457
     27          6           0        4.187250   -3.852508   -1.466906
     28          6           0       -2.118940   -4.525539    0.978664
     29          6           0       -5.356207    0.014072   -0.935115
     30          6           0       -4.445473    3.924004   -0.481905
     31          6           0       -1.100817    4.194465   -0.335142
     32          6           0        6.668356   -3.733234   -0.814906
     33          6           0        5.739846   -0.732697   -0.078745
     34          6           0        0.334399    4.006461   -0.263381
     35          6           0        1.288522    5.093143   -0.486980
     36          6           0        2.480879    4.515231   -0.253302
     37          6           0       -3.109423   -3.838445    0.098626
     38          6           0        5.509531    0.465524    0.610562
     39          6           0       -6.716691   -0.614184   -0.870493
     40          6           0        3.855951    5.152223   -0.346214
     41          6           0        2.235923    3.066313    0.106598
     42          6           0        0.932421    6.513270   -0.848302
     43          6           0        4.499299    5.418075    0.999202
     44          1           0        0.372611    0.322853   -0.008444
     45          1           0       -3.025286   -1.361564    1.051026
     46          1           0       -2.483145   -2.884538    2.438148
     47          1           0       -1.395104   -4.077379    2.787957
     48          1           0        5.692481   -2.627389   -2.315021
     49          1           0       -4.896192   -0.097465    1.127131
     50          1           0       -5.824982    1.550663    0.437117
     51          1           0        3.120359    0.028782    0.567113
     52          1           0       -0.525561    2.072514    0.629041
     53          1           0        1.338261   -4.515726    1.089220
     54          1           0        2.437526   -3.690001    1.822168
     55          1           0        1.048970   -4.317497    2.737777
     56          1           0        2.123613   -3.321060   -0.827094
     57          1           0       -1.152392   -4.897833    0.387092
     58          1           0       -2.756675   -5.246479    1.613860
     59          1           0       -4.555801   -0.856281   -1.048098
     60          1           0       -5.345368    0.680572   -1.888537
     61          1           0       -4.367284    4.689620    0.273072
     62          1           0       -5.528879    3.411123   -0.342568
     63          1           0       -4.366907    4.415795   -1.466226
     64          1           0       -1.617114    5.186822   -0.552961
     65          1           0        7.545068   -2.826041   -0.503487
     66          1           0        7.077775   -4.442830   -1.494698
     67          1           0        6.399425   -4.061248    0.084604
     68          1           0        6.824206   -0.511823   -0.606607
     69          1           0        4.882765    1.161183    0.085028
     70          1           0        6.444427    0.930502    1.023561
     71          1           0        4.815237    0.451803    1.584272
     72          1           0        3.717718    6.182036   -0.716199
     73          1           0        4.675052    4.441272   -0.834253
     74          1           0        0.237907    6.513415   -1.629132
     75          1           0        1.702775    7.056267   -1.293520
     76          1           0        0.584523    7.248264    0.224990
     77          1           0        3.811668    6.202903    1.602114
     78          1           0        5.550624    5.702860    1.058551
     79          1           0        4.377421    4.414557    1.542074
     80          1           0       -4.014427   -4.009225   -1.537178
     81          1           0       -7.932619   -1.800375   -1.807727
 ---------------------------------------------------------------------

 SCF Done:  E(RB3LYP) =  -1949.04632487     A.U. after   19 cycles

 Excitation energies and oscillator strengths:

 Excited State   1:      Singlet-A      1.5609 eV  794.29 nm  f=0.3143  <S**2>=0.000
     156 ->157         0.71385
     156 <-157        -0.14306
 This state for optimization and/or second-order correction.
 Total Energy, E(TD-HF/TD-DFT) =  -1948.98896155
 Copying the excited state density for this state as the 1-particle RhoCI density.

 The electronic state is 1-A.
 Alpha  occ. eigenvalues --  -19.19008 -19.18291 -19.15087 -19.12441 -19.11866
 Alpha  occ. eigenvalues --  -19.09880 -14.37663 -14.36942 -14.35572 -14.28847
 Alpha  occ. eigenvalues --  -10.34444 -10.31835 -10.30265 -10.26656 -10.25129
 Alpha  occ. eigenvalues --  -10.25063 -10.24155 -10.23943 -10.23937 -10.23831
 Alpha  occ. eigenvalues --  -10.22458 -10.22173 -10.21894 -10.21560 -10.21437
 Alpha  occ. eigenvalues --  -10.21249 -10.21137 -10.21037 -10.20665 -10.20300
 Alpha  occ. eigenvalues --  -10.20243 -10.20106 -10.19989 -10.19981 -10.19947
 Alpha  occ. eigenvalues --  -10.19901 -10.19560 -10.19225 -10.19199 -10.19145
 Alpha  occ. eigenvalues --  -10.18463 -10.18005 -10.17709  -1.11217  -1.08668
 Alpha  occ. eigenvalues --   -1.04308  -1.00044  -0.99907  -0.98626  -0.98308
 Alpha  occ. eigenvalues --   -0.97150  -0.94455  -0.91953  -0.84198  -0.82205
 Alpha  occ. eigenvalues --   -0.81880  -0.81376  -0.79750  -0.79389  -0.78411
 Alpha  occ. eigenvalues --   -0.77679  -0.76034  -0.74899  -0.73512  -0.72397
 Alpha  occ. eigenvalues --   -0.71621  -0.70554  -0.69746  -0.68862  -0.67553
 Alpha  occ. eigenvalues --   -0.67134  -0.65709  -0.64022  -0.61361  -0.60668
 Alpha  occ. eigenvalues --   -0.60034  -0.58922  -0.58590  -0.58028  -0.57756
 Alpha  occ. eigenvalues --   -0.56235  -0.54735  -0.54280  -0.53203  -0.52700
 Alpha  occ. eigenvalues --   -0.52320  -0.51808  -0.50789  -0.50692  -0.50304
 Alpha  occ. eigenvalues --   -0.49532  -0.49130  -0.48641  -0.48277  -0.47628
 Alpha  occ. eigenvalues --   -0.47177  -0.46955  -0.45969  -0.45640  -0.45284
 Alpha  occ. eigenvalues --   -0.45105  -0.44856  -0.44033  -0.43906  -0.43820
 Alpha  occ. eigenvalues --   -0.43618  -0.43438  -0.42936  -0.42756  -0.42258
 Alpha  occ. eigenvalues --   -0.41952  -0.41710  -0.41461  -0.41141  -0.40981
 Alpha  occ. eigenvalues --   -0.40551  -0.40237  -0.40123  -0.39850  -0.39418
 Alpha  occ. eigenvalues --   -0.39368  -0.39036  -0.38770  -0.38652  -0.37826
 Alpha  occ. eigenvalues --   -0.37629  -0.37216  -0.36878  -0.36792  -0.36250
 Alpha  occ. eigenvalues --   -0.36017  -0.35990  -0.35769  -0.35109  -0.34585
 Alpha  occ. eigenvalues --   -0.34500  -0.33289  -0.32731  -0.32424  -0.32297
 Alpha  occ. eigenvalues --   -0.31936  -0.31662  -0.31493  -0.29973  -0.29591
 Alpha  occ. eigenvalues --   -0.28198  -0.27838  -0.27217  -0.26800  -0.26060
 Alpha  occ. eigenvalues --   -0.24857  -0.24407  -0.23830  -0.23304  -0.21168
 Alpha  occ. eigenvalues --   -0.17030
 Alpha virt. eigenvalues --   -0.10790  -0.06186  -0.04760  -0.03679  -0.01005
 Alpha virt. eigenvalues --   -0.00297   0.01120   0.01975   0.02866   0.03209
 Alpha virt. eigenvalues --    0.03751   0.04437   0.04595   0.04795   0.05395

 Mulliken charges:
               1
     1  O   -0.188555
     2  O   -0.203010
     3  O   -0.230038
     4  O   -0.272293
     5  O   -0.224560
     6  O   -0.290283
     7  N   -0.089862
     8  N   -0.045992
     9  N   -0.156376
    10  N   -0.289754
    11  C   -0.109663
    12  C    0.038417
    13  C   -0.093913
    14  C    0.082191
    15  C   -0.070825
    16  C    0.112832
    17  C   -0.110187
    18  C   -0.076314
    19  C    0.109388
    20  C   -0.058572
    21  C    0.014831
    22  C   -0.023652
    23  C    0.001529
    24  C    0.005773
    25  C   -0.126960
    26  C    0.123743
    27  C    0.145600
    28  C   -0.006861
    29  C   -0.028800
    30  C    0.053888
    31  C   -0.098298
    32  C    0.074873
    33  C   -0.170636
    34  C    0.063882
    35  C   -0.088094
    36  C   -0.166685
    37  C    0.144543
    38  C   -0.003774
    39  C    0.150196
    40  C    0.085887
    41  C    0.196734
    42  C    0.108385
    43  C   -0.070461
    44  H    0.159943
    45  H    0.080196
    46  H    0.007403
    47  H   -0.013009
    48  H    0.039246
    49  H    0.045214
    50  H    0.009706
    51  H    0.090562
    52  H    0.116557
    53  H   -0.054900
    54  H    0.015846
    55  H    0.025014
    56  H    0.134860
    57  H    0.089484
    58  H    0.080674
    59  H    0.058643
    60  H    0.045416
    61  H    0.022605
    62  H    0.025845
    63  H    0.039298
    64  H   -0.003144
    65  H    0.030234
    66  H    0.038038
    67  H   -0.009075
    68  H    0.035616
    69  H    0.074234
    70  H    0.015352
    71  H    0.040131
    72  H   -0.006422
    73  H    0.032003
    74  H    0.004887
    75  H   -0.013301
    76  H    0.052166
    77  H    0.010830
    78  H    0.020190
    79  H    0.028271
    80  H    0.209866
    81  H    0.203245
 Sum of Mulliken charges =  -0.00000

 Dipole moment (field-independent basis, Debye):
    X=             -1.4563    Y=             -1.2007    Z=             -1.1064  Tot=              2.1878
 Quadrupole moment (field-independent basis, Debye-Ang):
   XX=           -248.5654   YY=           -242.1730   ZZ=           -255.5879
   XY=             12.3124   XZ=             10.6358   YZ=            -18.0098

 Normal termination of Gaussian 16 at Thu Jun 27 02:40:57 2019.
