 Gaussian 16, Revision A.03,
 Gaussian 16:  ES64L-G16RevA.03 25-Dec-2016

 --------------------------
 # td=(NStates=1) B3LYP/SVP
 --------------------------

 --
 TD
 --
 Symbolic Z-matrix:
 Charge =  0 Multiplicity = 1

                         Standard orientation:
 ---------------------------------------------------------------------
 Center     Atomic      Atomic             Coordinates (Angstroms)
 Number     Number       Type             X           Y           Z
 ---------------------------------------------------------------------
      1          8           0       -4.386008   -4.856023    1.834388
      2          8           0        3.162175   -5.019705    1.096972
      3          8           0        7.071695   -1.469741    2.003287
      4          8           0        3.651629   -3.187145   -0.059378
      5          8           0        7.576191   -0.601109   -0.060947
      6          8           0       -2.973110    2.467519   -0.517069
      7          7           0       -0.307232   -0.454595   -0.768486
      8          7           0        1.653130    1.933640   -0.491465
      9          7           0       -3.362604   -3.042901    0.825145
     10          7           0       -0.671069    2.900668   -0.172429
     11          6           0        0.483791   -2.377264   -1.437305
     12          6           0        0.815733   -1.039209   -1.060913
     13          6           0       -0.768714   -2.610764   -1.136345
     14          6           0       -1.343312   -1.387043   -0.784262
     15          6           0        3.809111    1.453720   -0.371275
     16          6           0        2.491437    0.867039   -0.618002
     17          6           0        2.188142   -0.415346   -0.976833
     18          6           0        3.621605    2.810460    0.017327
     19          6           0        1.523288   -3.403266   -1.956031
     20          6           0       -5.596648   -2.726159    1.293544
     21          6           0       -3.621583   -1.748604    0.366564
     22          6           0        2.190806    2.976868    0.052886
     23          6           0       -5.058332   -1.601682    0.503566
     24          6           0        5.101484    0.757061   -0.479829
     25          6           0       -2.716347   -0.968212   -0.322510
     26          6           0       -1.585630   -3.761752   -1.539622
     27          6           0       -4.382429   -3.712147    1.516482
     28          6           0        1.991869   -4.613946   -0.890369
     29          6           0        5.343791   -0.210835    0.748117
     30          6           0        4.658724    3.747221    0.477155
     31          6           0        1.353361    4.156809    0.281786
     32          6           0       -6.803203   -3.511315    0.670703
     33          6           0       -5.751405   -0.517612   -0.023176
     34          6           0       -0.035150    4.024164    0.282409
     35          6           0       -0.974592    5.230717    0.535766
     36          6           0       -2.256770    4.688166    0.270069
     37          6           0        3.016962   -4.192793    0.076877
     38          6           0       -5.302353    0.571597   -0.920075
     39          6           0        6.681396   -0.802116    0.793531
     40          6           0       -3.542687    5.307221    0.495093
     41          6           0       -2.042805    3.293239   -0.191678
     42          6           0       -0.720887    6.597754    1.090378
     43          6           0       -4.298770    5.668062   -0.889276
     44          1           0       -0.322184    0.666372   -0.649871
     45          1           0        3.074588   -1.178010   -1.006714
     46          1           0        2.440661   -2.877680   -2.397147
     47          1           0        1.123502   -4.032145   -2.646056
     48          1           0       -5.923040   -2.322040    2.331966
     49          1           0        5.292470    0.121802   -1.439639
     50          1           0        5.869653    1.630397   -0.377344
     51          1           0       -2.826125    0.029487   -0.738592
     52          1           0        0.675937    2.038872   -0.604612
     53          1           0       -1.771132   -4.679324   -0.742247
     54          1           0       -2.647880   -3.664005   -1.747891
     55          1           0       -1.230252   -4.276775   -2.525510
     56          1           0       -2.458201   -3.526864    0.573125
     57          1           0        1.243045   -5.110263   -0.336752
     58          1           0        2.136507   -5.531999   -1.411018
     59          1           0        4.582094   -1.244714    0.692013
     60          1           0        5.058485    0.334337    1.634371
     61          1           0        4.168713    4.885370    0.135327
     62          1           0        5.673021    3.415316   -0.245071
     63          1           0        4.937112    3.654523    1.720559
     64          1           0        1.810222    5.027562    0.459220
     65          1           0       -7.791131   -2.949523    0.790944
     66          1           0       -7.137603   -4.377288    1.211627
     67          1           0       -6.665099   -3.811421   -0.224574
     68          1           0       -6.933587   -0.435718    0.429634
     69          1           0       -4.894429    1.358022   -0.301165
     70          1           0       -6.130967    1.143543   -1.310218
     71          1           0       -4.731411    0.061300   -1.590364
     72          1           0       -3.449611    6.256236    1.002906
     73          1           0       -4.375872    4.679193    1.049551
     74          1           0       -0.215869    6.562008    1.914101
     75          1           0       -1.545917    7.203364    1.276100
     76          1           0       -0.169543    7.071395    0.115152
     77          1           0       -3.810399    6.478830   -1.560388
     78          1           0       -5.250602    6.171176   -0.697376
     79          1           0       -4.398316    4.799411   -1.560409
     80          1           0        3.964540   -4.944011    1.630885
     81          1           0        7.803166   -1.954966    1.769575
 ---------------------------------------------------------------------

 SCF Done:  E(RB3LYP) =  -1949.03533789     A.U. after   16 cycles

 Excitation energies and oscillator strengths:

 Excited State   1:      Singlet-A      1.7306 eV  716.44 nm  f=0.2937  <S**2>=0.000
     156 ->157         0.70741
     156 <-157        -0.10153
 This state for optimization and/or second-order correction.
 Total Energy, E(TD-HF/TD-DFT) =  -1948.97174085
 Copying the excited state density for this state as the 1-particle RhoCI density.

 The electronic state is 1-A.
 Alpha  occ. eigenvalues --  -19.19753 -19.16735 -19.13980 -19.12968 -19.11575
 Alpha  occ. eigenvalues --  -19.09461 -14.38449 -14.36399 -14.36029 -14.29717
 Alpha  occ. eigenvalues --  -10.33558 -10.32691 -10.29221 -10.26616 -10.24545
 Alpha  occ. eigenvalues --  -10.24256 -10.23890 -10.23645 -10.23561 -10.23504
 Alpha  occ. eigenvalues --  -10.23136 -10.23025 -10.22417 -10.21844 -10.21599
 Alpha  occ. eigenvalues --  -10.21426 -10.21233 -10.21110 -10.21097 -10.20913
 Alpha  occ. eigenvalues --  -10.20815 -10.20536 -10.19740 -10.19523 -10.19359
 Alpha  occ. eigenvalues --  -10.19314 -10.19126 -10.18814 -10.18773 -10.18434
 Alpha  occ. eigenvalues --  -10.18244 -10.17384 -10.16203  -1.12094  -1.07289
 Alpha  occ. eigenvalues --   -1.04666  -1.02978  -1.01291  -0.99966  -0.98798
 Alpha  occ. eigenvalues --   -0.97687  -0.94789  -0.90172  -0.82854  -0.82784
 Alpha  occ. eigenvalues --   -0.80865  -0.80562  -0.79867  -0.79029  -0.77767
 Alpha  occ. eigenvalues --   -0.77445  -0.76076  -0.75106  -0.73847  -0.72637
 Alpha  occ. eigenvalues --   -0.71004  -0.70009  -0.69738  -0.69227  -0.68386
 Alpha  occ. eigenvalues --   -0.67943  -0.65624  -0.63890  -0.63205  -0.62168
 Alpha  occ. eigenvalues --   -0.61022  -0.59654  -0.58788  -0.58088  -0.57471
 Alpha  occ. eigenvalues --   -0.55863  -0.55502  -0.55197  -0.54046  -0.53643
 Alpha  occ. eigenvalues --   -0.52521  -0.51360  -0.51040  -0.50890  -0.50333
 Alpha  occ. eigenvalues --   -0.49043  -0.48939  -0.48445  -0.47552  -0.47110
 Alpha  occ. eigenvalues --   -0.46912  -0.46481  -0.46344  -0.45897  -0.45503
 Alpha  occ. eigenvalues --   -0.45271  -0.44893  -0.44513  -0.44261  -0.43978
 Alpha  occ. eigenvalues --   -0.43557  -0.43490  -0.42905  -0.42464  -0.41873
 Alpha  occ. eigenvalues --   -0.41448  -0.41365  -0.41106  -0.40868  -0.40555
 Alpha  occ. eigenvalues --   -0.40193  -0.39903  -0.39777  -0.39404  -0.39310
 Alpha  occ. eigenvalues --   -0.38977  -0.38782  -0.38390  -0.38214  -0.38042
 Alpha  occ. eigenvalues --   -0.37758  -0.37452  -0.37279  -0.36853  -0.36648
 Alpha  occ. eigenvalues --   -0.36141  -0.35724  -0.35703  -0.35509  -0.34925
 Alpha  occ. eigenvalues --   -0.34790  -0.34403  -0.34141  -0.33674  -0.32922
 Alpha  occ. eigenvalues --   -0.32254  -0.31538  -0.31499  -0.29925  -0.29524
 Alpha  occ. eigenvalues --   -0.28820  -0.27816  -0.26548  -0.26196  -0.25570
 Alpha  occ. eigenvalues --   -0.25125  -0.24027  -0.23749  -0.22979  -0.21125
 Alpha  occ. eigenvalues --   -0.17878
 Alpha virt. eigenvalues --   -0.10718  -0.05960  -0.03934  -0.02182  -0.00903
 Alpha virt. eigenvalues --    0.00191   0.01883   0.02245   0.02747   0.03123
 Alpha virt. eigenvalues --    0.03495   0.04158   0.04978   0.05970   0.06082

 Mulliken charges:
               1
     1  O   -0.176204
     2  O   -0.165073
     3  O   -0.212033
     4  O   -0.211994
     5  O   -0.258844
     6  O   -0.279740
     7  N   -0.061134
     8  N    0.026049
     9  N   -0.180515
    10  N   -0.352971
    11  C   -0.095482
    12  C   -0.044562
    13  C   -0.079902
    14  C    0.003917
    15  C   -0.085524
    16  C    0.106321
    17  C   -0.080857
    18  C   -0.087109
    19  C    0.171531
    20  C   -0.110922
    21  C    0.152967
    22  C    0.034244
    23  C   -0.014550
    24  C    0.061479
    25  C   -0.075751
    26  C   -0.044643
    27  C    0.158320
    28  C   -0.006010
    29  C   -0.077661
    30  C   -0.103348
    31  C   -0.045918
    32  C    0.136010
    33  C   -0.230268
    34  C    0.096014
    35  C   -0.138346
    36  C   -0.097073
    37  C    0.145281
    38  C    0.193059
    39  C    0.185083
    40  C    0.052416
    41  C    0.192887
    42  C    0.168969
    43  C   -0.054637
    44  H    0.195949
    45  H    0.061160
    46  H    0.033021
    47  H   -0.042147
    48  H    0.044063
    49  H    0.048099
    50  H    0.018476
    51  H    0.025432
    52  H    0.096493
    53  H    0.027496
    54  H    0.027839
    55  H    0.034819
    56  H    0.134916
    57  H    0.000043
    58  H    0.018133
    59  H    0.109046
    60  H    0.039733
    61  H    0.059820
    62  H    0.071459
    63  H    0.079538
    64  H   -0.085822
    65  H    0.008185
    66  H    0.003349
    67  H   -0.037699
    68  H    0.013960
    69  H    0.051378
    70  H   -0.010519
    71  H    0.015077
    72  H   -0.013970
    73  H    0.039081
    74  H   -0.009973
    75  H   -0.007376
    76  H    0.047811
    77  H    0.003894
    78  H    0.005993
    79  H    0.039746
    80  H    0.193106
    81  H    0.146915
 Sum of Mulliken charges =  -0.00000

 Dipole moment (field-independent basis, Debye):
    X=              2.1083    Y=             -0.1963    Z=              0.2846  Tot=              2.1364
 Quadrupole moment (field-independent basis, Debye-Ang):
   XX=           -264.3698   YY=           -227.1014   ZZ=           -255.9006
   XY=            -21.8883   XZ=             10.9175   YZ=             15.4455

 Normal termination of Gaussian 16 at Thu Jun 27 12:32:27 2019.
