 Gaussian 16, Revision A.03,
 Gaussian 16:  ES64L-G16RevA.03 25-Dec-2016

 --------------------------
 # td=(NStates=1) B3LYP/SVP
 --------------------------

 --
 TD
 --
 Symbolic Z-matrix:
 Charge =  0 Multiplicity = 1

                         Standard orientation:
 ---------------------------------------------------------------------
 Center     Atomic      Atomic             Coordinates (Angstroms)
 Number     Number       Type             X           Y           Z
 ---------------------------------------------------------------------
      1          8           0        4.380392   -4.769590   -1.638000
      2          8           0       -2.950693   -5.047050   -1.076621
      3          8           0       -7.018286   -1.677009   -1.914742
      4          8           0       -3.660839   -3.210308    0.163260
      5          8           0       -7.597567   -0.819860    0.089599
      6          8           0        2.999142    2.390918    0.261818
      7          7           0        0.245953   -0.477353    0.511522
      8          7           0       -1.603761    1.834467    0.351532
      9          7           0        3.376842   -2.994010   -0.651077
     10          7           0        0.667217    2.859884    0.087686
     11          6           0       -0.572868   -2.400813    1.228154
     12          6           0       -0.909181   -1.112166    0.848381
     13          6           0        0.851406   -2.601204    1.159614
     14          6           0        1.304851   -1.380602    0.691768
     15          6           0       -3.852251    1.487476    0.257272
     16          6           0       -2.474669    0.874366    0.511349
     17          6           0       -2.244949   -0.469292    0.840598
     18          6           0       -3.641404    2.845916   -0.074846
     19          6           0       -1.455688   -3.418312    1.913419
     20          6           0        5.559366   -2.598044   -1.401573
     21          6           0        3.698309   -1.694605   -0.184863
     22          6           0       -2.164448    3.012718    0.065111
     23          6           0        5.078339   -1.464003   -0.529998
     24          6           0       -5.080108    0.711480    0.345211
     25          6           0        2.677601   -0.937556    0.396933
     26          6           0        1.761825   -3.727785    1.753686
     27          6           0        4.392685   -3.643333   -1.273276
     28          6           0       -1.934416   -4.489027    1.117551
     29          6           0       -5.544338   -0.257230   -0.752926
     30          6           0       -4.626675    3.878954   -0.416878
     31          6           0       -1.403680    4.129368   -0.282878
     32          6           0        6.871813   -3.268146   -0.953174
     33          6           0        5.866127   -0.370549   -0.152010
     34          6           0        0.047838    4.070732   -0.189143
     35          6           0        0.934704    5.188707   -0.379851
     36          6           0        2.233525    4.681472   -0.212371
     37          6           0       -2.921039   -4.166732    0.074266
     38          6           0        5.541776    0.710050    0.662394
     39          6           0       -6.854574   -0.913955   -0.834601
     40          6           0        3.486815    5.341303   -0.282051
     41          6           0        2.070539    3.156301    0.101055
     42          6           0        0.501298    6.523721   -0.899918
     43          6           0        4.191469    5.293657    1.222835
     44          1           0        0.485292    0.392033    0.158292
     45          1           0       -2.920143   -1.178702    0.903146
     46          1           0       -2.374432   -2.855724    2.161719
     47          1           0       -0.723597   -3.831851    2.934032
     48          1           0        5.831900   -2.450092   -2.655909
     49          1           0       -4.794916    0.088809    1.236235
     50          1           0       -6.088583    1.408713    0.491343
     51          1           0        2.824898    0.262953    0.376200
     52          1           0       -0.557435    1.861640    0.508296
     53          1           0        1.688718   -4.791388    1.226559
     54          1           0        2.836294   -3.381738    1.879525
     55          1           0        1.316584   -3.832048    2.858304
     56          1           0        2.458967   -3.359185   -0.371588
     57          1           0       -1.058029   -4.980971    0.501150
     58          1           0       -2.422503   -5.488788    1.545945
     59          1           0       -4.583426   -0.838545   -1.015947
     60          1           0       -5.349664    0.204571   -1.606115
     61          1           0       -4.325092    4.860377    0.281154
     62          1           0       -5.673061    3.676030    0.057901
     63          1           0       -4.918146    4.060311   -1.563550
     64          1           0       -2.152725    4.844611   -0.309563
     65          1           0        7.763490   -2.624246   -1.094356
     66          1           0        6.919023   -4.076267   -1.557967
     67          1           0        6.691319   -3.500869    0.169681
     68          1           0        6.811342   -0.459840   -0.745428
     69          1           0        4.941343    1.398875    0.023706
     70          1           0        6.358507    1.089071    0.931232
     71          1           0        4.800185    0.426964    1.428527
     72          1           0        3.293867    6.319398   -0.699102
     73          1           0        4.018503    4.857795   -1.101748
     74          1           0       -0.021801    6.337218   -2.125080
     75          1           0        1.213335    7.292242   -1.085171
     76          1           0       -0.461600    7.144397   -0.497497
     77          1           0        3.605996    5.694534    1.924053
     78          1           0        5.153097    6.009818    1.532030
     79          1           0        4.368177    4.274576    1.456458
     80          1           0       -3.290264   -4.548183   -1.703646
     81          1           0       -8.026350   -1.761439   -1.848406
 ---------------------------------------------------------------------

 SCF Done:  E(RB3LYP) =  -1948.99921204     A.U. after   16 cycles

 Excitation energies and oscillator strengths:

 Excited State   1:      Singlet-A      1.5841 eV  782.67 nm  f=0.2416  <S**2>=0.000
     156 ->157         0.70634
     156 <-157        -0.10782
 This state for optimization and/or second-order correction.
 Total Energy, E(TD-HF/TD-DFT) =  -1948.94099652
 Copying the excited state density for this state as the 1-particle RhoCI density.

 The electronic state is 1-A.
 Alpha  occ. eigenvalues --  -19.19525 -19.17300 -19.15087 -19.12756 -19.12382
 Alpha  occ. eigenvalues --  -19.10124 -14.37076 -14.36162 -14.35739 -14.30467
 Alpha  occ. eigenvalues --  -10.33730 -10.32148 -10.28371 -10.28045 -10.24615
 Alpha  occ. eigenvalues --  -10.24229 -10.24172 -10.23860 -10.23389 -10.23108
 Alpha  occ. eigenvalues --  -10.23057 -10.22686 -10.22647 -10.22578 -10.22115
 Alpha  occ. eigenvalues --  -10.21742 -10.21419 -10.21342 -10.21202 -10.21047
 Alpha  occ. eigenvalues --  -10.20979 -10.20311 -10.20012 -10.19894 -10.19854
 Alpha  occ. eigenvalues --  -10.19800 -10.19388 -10.19324 -10.19234 -10.19132
 Alpha  occ. eigenvalues --  -10.19041 -10.17991 -10.16197  -1.11303  -1.09633
 Alpha  occ. eigenvalues --   -1.04158  -1.03263  -1.02477  -1.02154  -1.00385
 Alpha  occ. eigenvalues --   -0.98375  -0.94768  -0.91444  -0.83505  -0.82589
 Alpha  occ. eigenvalues --   -0.81612  -0.81534  -0.80505  -0.79293  -0.78429
 Alpha  occ. eigenvalues --   -0.77645  -0.77090  -0.75592  -0.74533  -0.72466
 Alpha  occ. eigenvalues --   -0.71405  -0.69705  -0.69058  -0.68546  -0.67793
 Alpha  occ. eigenvalues --   -0.67462  -0.66012  -0.64244  -0.63928  -0.62327
 Alpha  occ. eigenvalues --   -0.60505  -0.60222  -0.59445  -0.57182  -0.56905
 Alpha  occ. eigenvalues --   -0.55394  -0.55226  -0.55061  -0.54291  -0.52916
 Alpha  occ. eigenvalues --   -0.52432  -0.52066  -0.51811  -0.51226  -0.50118
 Alpha  occ. eigenvalues --   -0.49824  -0.49240  -0.48607  -0.48223  -0.48017
 Alpha  occ. eigenvalues --   -0.47650  -0.47051  -0.46500  -0.46245  -0.45857
 Alpha  occ. eigenvalues --   -0.45151  -0.44993  -0.44536  -0.44189  -0.44055
 Alpha  occ. eigenvalues --   -0.43646  -0.43060  -0.42842  -0.42475  -0.42335
 Alpha  occ. eigenvalues --   -0.41915  -0.41659  -0.41507  -0.41408  -0.41180
 Alpha  occ. eigenvalues --   -0.41064  -0.40706  -0.40409  -0.40243  -0.40131
 Alpha  occ. eigenvalues --   -0.39858  -0.39513  -0.39108  -0.39004  -0.38817
 Alpha  occ. eigenvalues --   -0.37870  -0.37748  -0.37364  -0.36946  -0.36421
 Alpha  occ. eigenvalues --   -0.36100  -0.35934  -0.35585  -0.35057  -0.34755
 Alpha  occ. eigenvalues --   -0.34066  -0.33946  -0.33672  -0.33374  -0.33339
 Alpha  occ. eigenvalues --   -0.32967  -0.32481  -0.32225  -0.29940  -0.29817
 Alpha  occ. eigenvalues --   -0.29635  -0.28593  -0.26325  -0.25717  -0.25374
 Alpha  occ. eigenvalues --   -0.25236  -0.25060  -0.24421  -0.23200  -0.21523
 Alpha  occ. eigenvalues --   -0.17797
 Alpha virt. eigenvalues --   -0.11222  -0.06469  -0.04621  -0.02407   0.00035
 Alpha virt. eigenvalues --    0.00268   0.01385   0.01868   0.02624   0.03697
 Alpha virt. eigenvalues --    0.04154   0.04558   0.04760   0.05546   0.05837

 Mulliken charges:
               1
     1  O   -0.180099
     2  O   -0.190149
     3  O   -0.177251
     4  O   -0.210733
     5  O   -0.203780
     6  O   -0.205106
     7  N   -0.046732
     8  N    0.002109
     9  N   -0.111800
    10  N   -0.381129
    11  C   -0.162924
    12  C    0.033600
    13  C   -0.152301
    14  C    0.014561
    15  C   -0.084314
    16  C    0.086128
    17  C    0.033240
    18  C   -0.071205
    19  C    0.103187
    20  C   -0.178532
    21  C    0.087526
    22  C   -0.039494
    23  C   -0.035488
    24  C    0.034412
    25  C   -0.167996
    26  C   -0.014345
    27  C    0.124183
    28  C    0.002902
    29  C    0.058833
    30  C   -0.042165
    31  C   -0.009351
    32  C    0.076748
    33  C   -0.165842
    34  C    0.137162
    35  C    0.000836
    36  C   -0.224121
    37  C    0.126556
    38  C    0.238975
    39  C    0.150016
    40  C    0.130281
    41  C    0.210060
    42  C   -0.030651
    43  C   -0.001256
    44  H    0.103492
    45  H   -0.081284
    46  H    0.011073
    47  H    0.046924
    48  H    0.054566
    49  H    0.035914
    50  H    0.035953
    51  H    0.065417
    52  H    0.155738
    53  H    0.065092
    54  H    0.060349
    55  H    0.044033
    56  H    0.126717
    57  H    0.041804
    58  H    0.070805
    59  H    0.022834
    60  H   -0.043601
    61  H    0.053060
    62  H    0.031331
    63  H    0.068167
    64  H   -0.070785
    65  H    0.016937
    66  H    0.003442
    67  H    0.019475
    68  H   -0.009938
    69  H    0.068603
    70  H   -0.049977
    71  H    0.028595
    72  H   -0.020262
    73  H    0.017495
    74  H    0.033684
    75  H    0.017517
    76  H    0.046810
    77  H   -0.013602
    78  H    0.020199
    79  H    0.038325
    80  H    0.128758
    81  H    0.191788
 Sum of Mulliken charges =  -0.00000

 Dipole moment (field-independent basis, Debye):
    X=             -2.1570    Y=              3.7833    Z=             -0.5683  Tot=              4.3919
 Quadrupole moment (field-independent basis, Debye-Ang):
   XX=           -250.5469   YY=           -247.7704   ZZ=           -253.8531
   XY=             10.8765   XZ=             18.3553   YZ=            -13.2341

 Normal termination of Gaussian 16 at Mon Jul  1 13:29:18 2019.
