 Gaussian 16, Revision A.03,
 Gaussian 16:  ES64L-G16RevA.03 25-Dec-2016

 --------------------------
 # td=(NStates=1) B3LYP/SVP
 --------------------------

 --
 TD
 --
 Symbolic Z-matrix:
 Charge =  0 Multiplicity = 1

                         Standard orientation:
 ---------------------------------------------------------------------
 Center     Atomic      Atomic             Coordinates (Angstroms)
 Number     Number       Type             X           Y           Z
 ---------------------------------------------------------------------
      1          8           0        4.596902   -4.632715   -1.762910
      2          8           0       -2.508316   -5.122709   -1.084480
      3          8           0       -7.037988   -1.692462   -1.871819
      4          8           0       -3.385748   -3.403392   -0.051904
      5          8           0       -7.959297   -0.529277   -0.304309
      6          8           0        2.963729    2.540943    0.385767
      7          7           0        0.269780   -0.496238    0.514342
      8          7           0       -1.676798    1.711799    0.443139
      9          7           0        3.459220   -2.955424   -0.707230
     10          7           0        0.636031    2.921286    0.165477
     11          6           0       -0.595710   -2.431478    1.378321
     12          6           0       -0.913874   -1.043185    1.020180
     13          6           0        0.791874   -2.601195    1.218655
     14          6           0        1.391369   -1.365656    0.691641
     15          6           0       -3.860049    1.261755    0.388884
     16          6           0       -2.562945    0.649971    0.558982
     17          6           0       -2.244388   -0.596895    1.014186
     18          6           0       -3.677796    2.627045    0.002860
     19          6           0       -1.461477   -3.452606    2.058840
     20          6           0        5.619789   -2.534996   -1.404322
     21          6           0        3.695123   -1.652327   -0.206469
     22          6           0       -2.244303    2.871685    0.114405
     23          6           0        5.050201   -1.419494   -0.335054
     24          6           0       -5.072166    0.472669    0.464870
     25          6           0        2.713971   -0.933805    0.298284
     26          6           0        1.594333   -3.754345    1.759733
     27          6           0        4.486171   -3.574404   -1.257537
     28          6           0       -1.707342   -4.690130    1.116515
     29          6           0       -5.382872   -0.376295   -0.703995
     30          6           0       -4.711590    3.626060   -0.371554
     31          6           0       -1.503263    3.965265   -0.306190
     32          6           0        7.111022   -3.073336   -1.077010
     33          6           0        5.881891   -0.347708    0.022487
     34          6           0       -0.067284    3.982197   -0.169574
     35          6           0        0.755439    5.184963   -0.511837
     36          6           0        2.056023    4.753011   -0.287288
     37          6           0       -2.615477   -4.334524   -0.074709
     38          6           0        5.411344    0.846734    0.755250
     39          6           0       -6.918468   -0.811034   -0.897523
     40          6           0        3.423443    5.444971   -0.417492
     41          6           0        2.004525    3.283781    0.073666
     42          6           0        0.272263    6.517588   -0.962577
     43          6           0        3.997534    5.829739    1.009097
     44          1           0        0.435581    0.375881   -0.058880
     45          1           0       -3.027906   -1.338546    1.304496
     46          1           0       -2.301211   -2.799532    2.370288
     47          1           0       -0.970376   -3.663702    3.040085
     48          1           0        5.650052   -2.083188   -2.513776
     49          1           0       -5.086611   -0.109761    1.223239
     50          1           0       -6.056374    1.195191    0.475402
     51          1           0        2.815851    0.218163    0.387485
     52          1           0       -0.577013    2.115513    0.627592
     53          1           0        1.477701   -4.634085    1.014177
     54          1           0        2.556474   -3.323317    1.850203
     55          1           0        1.506699   -3.976414    2.878049
     56          1           0        2.639569   -3.455447   -0.474255
     57          1           0       -0.734935   -4.965965    0.561537
     58          1           0       -2.075635   -5.527003    1.533950
     59          1           0       -4.788632   -1.153373   -0.843917
     60          1           0       -4.804935    0.139368   -1.726998
     61          1           0       -4.312373    4.688624   -0.105075
     62          1           0       -5.826781    3.404875    0.345547
     63          1           0       -5.022618    3.632716   -1.580433
     64          1           0       -2.078149    4.974204   -0.512928
     65          1           0        7.856352   -2.458578   -1.480320
     66          1           0        7.345142   -4.009303   -1.496393
     67          1           0        7.386853   -3.126297    0.109784
     68          1           0        6.900227   -0.331285   -0.116157
     69          1           0        4.988934    1.653291    0.129187
     70          1           0        6.346856    1.406675    0.928502
     71          1           0        4.661934    0.841783    1.660250
     72          1           0        3.141514    6.400564   -0.911831
     73          1           0        4.114438    4.536152   -0.717635
     74          1           0       -0.419643    6.266916   -1.811320
     75          1           0        1.046575    7.255097   -1.191285
     76          1           0       -0.277342    7.131188   -0.155066
     77          1           0        3.199982    6.321659    1.621896
     78          1           0        4.971830    6.602607    0.919328
     79          1           0        4.214432    5.006653    1.517042
     80          1           0       -3.151999   -4.859137   -1.907639
     81          1           0       -8.220187   -1.849366   -2.069345
 ---------------------------------------------------------------------

 SCF Done:  E(RB3LYP) =  -1949.01952532     A.U. after   16 cycles

 Excitation energies and oscillator strengths:

 Excited State   1:      Singlet-A      1.7366 eV  713.96 nm  f=0.3250  <S**2>=0.000
     156 ->157         0.70992
     156 <-157        -0.12253
 This state for optimization and/or second-order correction.
 Total Energy, E(TD-HF/TD-DFT) =  -1948.95570727
 Copying the excited state density for this state as the 1-particle RhoCI density.

 The electronic state is 1-A.
 Alpha  occ. eigenvalues --  -19.20772 -19.18453 -19.12882 -19.12001 -19.11555
 Alpha  occ. eigenvalues --  -19.09774 -14.38386 -14.36611 -14.34249 -14.30483
 Alpha  occ. eigenvalues --  -10.32928 -10.32126 -10.27932 -10.27703 -10.24704
 Alpha  occ. eigenvalues --  -10.24009 -10.23881 -10.23535 -10.23002 -10.22934
 Alpha  occ. eigenvalues --  -10.22836 -10.22229 -10.21704 -10.21653 -10.21279
 Alpha  occ. eigenvalues --  -10.21269 -10.20763 -10.20645 -10.20641 -10.20466
 Alpha  occ. eigenvalues --  -10.20292 -10.20212 -10.20045 -10.20028 -10.20019
 Alpha  occ. eigenvalues --  -10.19909 -10.19670 -10.19654 -10.19475 -10.18971
 Alpha  occ. eigenvalues --  -10.18644 -10.18503 -10.17708  -1.12165  -1.08420
 Alpha  occ. eigenvalues --   -1.04714  -1.01379  -1.00933  -0.97598  -0.97435
 Alpha  occ. eigenvalues --   -0.96824  -0.95934  -0.92875  -0.83068  -0.82250
 Alpha  occ. eigenvalues --   -0.81463  -0.80701  -0.79751  -0.78661  -0.77355
 Alpha  occ. eigenvalues --   -0.76554  -0.76279  -0.74893  -0.74385  -0.72657
 Alpha  occ. eigenvalues --   -0.70496  -0.69819  -0.68967  -0.68373  -0.67386
 Alpha  occ. eigenvalues --   -0.65753  -0.65237  -0.63915  -0.62570  -0.62178
 Alpha  occ. eigenvalues --   -0.61306  -0.59447  -0.58408  -0.57739  -0.56781
 Alpha  occ. eigenvalues --   -0.55785  -0.55285  -0.54818  -0.54277  -0.53035
 Alpha  occ. eigenvalues --   -0.52447  -0.51183  -0.50660  -0.50280  -0.49529
 Alpha  occ. eigenvalues --   -0.49298  -0.48744  -0.48107  -0.47504  -0.46911
 Alpha  occ. eigenvalues --   -0.46847  -0.46093  -0.46027  -0.45541  -0.45264
 Alpha  occ. eigenvalues --   -0.45170  -0.44903  -0.44309  -0.43823  -0.43744
 Alpha  occ. eigenvalues --   -0.43365  -0.42963  -0.42813  -0.42622  -0.42280
 Alpha  occ. eigenvalues --   -0.42082  -0.41702  -0.41532  -0.41229  -0.40418
 Alpha  occ. eigenvalues --   -0.40041  -0.39680  -0.39668  -0.39387  -0.39329
 Alpha  occ. eigenvalues --   -0.38857  -0.38685  -0.38389  -0.37939  -0.37893
 Alpha  occ. eigenvalues --   -0.37644  -0.37530  -0.37047  -0.36577  -0.36472
 Alpha  occ. eigenvalues --   -0.35967  -0.35631  -0.35367  -0.34761  -0.34542
 Alpha  occ. eigenvalues --   -0.34493  -0.33877  -0.33474  -0.33421  -0.32488
 Alpha  occ. eigenvalues --   -0.32372  -0.32353  -0.30888  -0.30524  -0.28755
 Alpha  occ. eigenvalues --   -0.28632  -0.27511  -0.26646  -0.25579  -0.25438
 Alpha  occ. eigenvalues --   -0.25366  -0.24218  -0.23871  -0.23459  -0.22012
 Alpha  occ. eigenvalues --   -0.17830
 Alpha virt. eigenvalues --   -0.10853  -0.06771  -0.04929  -0.01888  -0.00190
 Alpha virt. eigenvalues --    0.00171   0.00492   0.00652   0.02318   0.02994
 Alpha virt. eigenvalues --    0.03225   0.03606   0.04132   0.04199   0.06119

 Mulliken charges:
               1
     1  O   -0.182673
     2  O   -0.181538
     3  O   -0.267011
     4  O   -0.233185
     5  O   -0.256065
     6  O   -0.246189
     7  N   -0.139017
     8  N   -0.173717
     9  N   -0.052523
    10  N   -0.300697
    11  C   -0.167220
    12  C    0.117885
    13  C   -0.189085
    14  C    0.066117
    15  C   -0.102280
    16  C    0.104587
    17  C   -0.083049
    18  C   -0.076675
    19  C    0.137294
    20  C   -0.160767
    21  C    0.178186
    22  C    0.048108
    23  C   -0.004943
    24  C    0.203558
    25  C   -0.178467
    26  C    0.057835
    27  C    0.098624
    28  C    0.057203
    29  C   -0.025753
    30  C   -0.075737
    31  C   -0.119597
    32  C    0.046983
    33  C   -0.087946
    34  C    0.041786
    35  C   -0.090692
    36  C   -0.208100
    37  C    0.091789
    38  C    0.033830
    39  C    0.170176
    40  C    0.083818
    41  C    0.191123
    42  C    0.069405
    43  C   -0.009325
    44  H    0.165439
    45  H    0.042931
    46  H    0.002956
    47  H    0.017829
    48  H    0.070330
    49  H   -0.048815
    50  H    0.034016
    51  H    0.064296
    52  H    0.218150
    53  H    0.060305
    54  H    0.008925
    55  H    0.034876
    56  H    0.097509
    57  H    0.044593
    58  H    0.011751
    59  H   -0.023624
    60  H    0.045353
    61  H    0.040739
    62  H    0.057102
    63  H    0.060114
    64  H    0.009280
    65  H   -0.006041
    66  H    0.014362
    67  H    0.025501
    68  H   -0.022500
    69  H    0.048983
    70  H   -0.019696
    71  H    0.064872
    72  H    0.006493
    73  H    0.050309
    74  H    0.045521
    75  H    0.009851
    76  H    0.037113
    77  H    0.007675
    78  H    0.033143
    79  H   -0.007166
    80  H    0.246132
    81  H    0.265339
 Sum of Mulliken charges =  -0.00000

 Dipole moment (field-independent basis, Debye):
    X=             -1.7146    Y=              0.1712    Z=             -0.6790  Tot=              1.8521
 Quadrupole moment (field-independent basis, Debye-Ang):
   XX=           -266.1077   YY=           -237.3759   ZZ=           -250.4685
   XY=             23.1470   XZ=             16.9300   YZ=            -11.0834

 Normal termination of Gaussian 16 at Fri Jun 28 12:15:14 2019.
