 Gaussian 16, Revision A.03,
 Gaussian 16:  ES64L-G16RevA.03 25-Dec-2016

 --------------------------
 # td=(NStates=1) B3LYP/SVP
 --------------------------

 --
 TD
 --
 Symbolic Z-matrix:
 Charge =  0 Multiplicity = 1

                         Standard orientation:
 ---------------------------------------------------------------------
 Center     Atomic      Atomic             Coordinates (Angstroms)
 Number     Number       Type             X           Y           Z
 ---------------------------------------------------------------------
      1          8           0        4.258497   -4.819283   -1.923243
      2          8           0       -3.068315   -5.032886   -0.971061
      3          8           0       -7.031248   -1.476570   -1.825006
      4          8           0       -3.776817   -3.052756   -0.060612
      5          8           0       -7.589095   -0.526226    0.063155
      6          8           0        3.051859    2.373936    0.434801
      7          7           0        0.235101   -0.540614    0.629751
      8          7           0       -1.552744    1.804907    0.449857
      9          7           0        3.296400   -3.066682   -0.749738
     10          7           0        0.818177    2.847248    0.021783
     11          6           0       -0.663844   -2.498552    1.287942
     12          6           0       -0.970403   -1.107845    0.876863
     13          6           0        0.729610   -2.638049    1.156484
     14          6           0        1.333997   -1.461663    0.679254
     15          6           0       -3.803105    1.586840    0.251571
     16          6           0       -2.489124    0.903026    0.567796
     17          6           0       -2.209516   -0.524725    0.815786
     18          6           0       -3.485589    2.829158   -0.079605
     19          6           0       -1.634059   -3.318717    1.982010
     20          6           0        5.533153   -2.781827   -1.262574
     21          6           0        3.550510   -1.809156   -0.293364
     22          6           0       -2.088554    2.996605    0.000379
     23          6           0        4.960331   -1.586505   -0.511280
     24          6           0       -5.184702    0.907624    0.302400
     25          6           0        2.638763   -1.053589    0.294815
     26          6           0        1.546581   -3.813590    1.688057
     27          6           0        4.364954   -3.770936   -1.306618
     28          6           0       -2.215715   -4.422349    1.166769
     29          6           0       -5.387351   -0.019754   -0.892301
     30          6           0       -4.409112    3.934634   -0.538575
     31          6           0       -1.258802    4.016391   -0.394068
     32          6           0        6.882459   -3.441120   -0.890803
     33          6           0        5.732591   -0.649515    0.116477
     34          6           0        0.200580    3.998605   -0.237946
     35          6           0        1.152843    5.175170   -0.493421
     36          6           0        2.349487    4.623277   -0.227084
     37          6           0       -3.124107   -4.122424    0.043476
     38          6           0        5.472024    0.513787    0.800806
     39          6           0       -6.795392   -0.671494   -0.824369
     40          6           0        3.657473    5.329401   -0.347371
     41          6           0        2.191423    3.162842    0.038838
     42          6           0        0.681775    6.576742   -0.756795
     43          6           0        4.140829    5.665689    1.116353
     44          1           0        0.366097    0.338474    0.106393
     45          1           0       -3.199592   -1.082365    1.163590
     46          1           0       -2.460326   -2.877377    2.552319
     47          1           0       -1.380149   -3.968187    3.000760
     48          1           0        5.710976   -2.543734   -2.349274
     49          1           0       -5.167531    0.380456    1.299261
     50          1           0       -5.724267    1.792499    0.360619
     51          1           0        2.912617   -0.029332    0.445787
     52          1           0       -0.503721    1.713778    0.431071
     53          1           0        1.835731   -4.604310    0.929430
     54          1           0        2.631040   -3.553939    2.058500
     55          1           0        1.084422   -4.226635    2.520002
     56          1           0        2.421762   -3.426764   -0.615839
     57          1           0       -1.323613   -4.894300    0.874699
     58          1           0       -2.809251   -5.146608    1.968287
     59          1           0       -4.673282   -0.975293   -1.054800
     60          1           0       -5.065894    0.582147   -1.649282
     61          1           0       -4.293941    4.712993    0.355633
     62          1           0       -5.399760    3.498577   -0.553355
     63          1           0       -4.207649    4.238786   -1.428284
     64          1           0       -1.837404    4.977082   -0.578043
     65          1           0        7.708824   -2.712201   -0.943978
     66          1           0        7.283684   -4.269744   -1.594733
     67          1           0        6.914016   -3.834466    0.034705
     68          1           0        6.969026   -0.744840   -0.049535
     69          1           0        4.907018    1.167317    0.185410
     70          1           0        6.338299    1.087082    1.126341
     71          1           0        4.797102    0.337168    1.577351
     72          1           0        3.655038    6.155732   -1.049180
     73          1           0        4.359458    4.664248   -0.833220
     74          1           0        0.095742    6.583683   -1.702395
     75          1           0        1.530919    7.228256   -0.977122
     76          1           0        0.070136    6.976275    0.204395
     77          1           0        3.563451    6.288544    1.596094
     78          1           0        5.235081    6.005520    1.068603
     79          1           0        4.494263    4.722356    1.734513
     80          1           0       -3.591290   -4.919535   -1.647016
     81          1           0       -7.984668   -1.852978   -1.552968
 ---------------------------------------------------------------------

 SCF Done:  E(RB3LYP) =  -1949.10610025     A.U. after   17 cycles

 Excitation energies and oscillator strengths:

 Excited State   1:      Singlet-A      1.6063 eV  771.87 nm  f=0.3292  <S**2>=0.000
     156 ->157         0.71601
     156 <-157        -0.16267
 This state for optimization and/or second-order correction.
 Total Energy, E(TD-HF/TD-DFT) =  -1949.04707072
 Copying the excited state density for this state as the 1-particle RhoCI density.

 The electronic state is 1-A.
 Alpha  occ. eigenvalues --  -19.18724 -19.18470 -19.13649 -19.11946 -19.10882
 Alpha  occ. eigenvalues --  -19.10755 -14.37493 -14.36035 -14.35679 -14.29474
 Alpha  occ. eigenvalues --  -10.33789 -10.31439 -10.29098 -10.26943 -10.23473
 Alpha  occ. eigenvalues --  -10.23430 -10.23270 -10.23231 -10.23120 -10.22680
 Alpha  occ. eigenvalues --  -10.21649 -10.21209 -10.21119 -10.21049 -10.20888
 Alpha  occ. eigenvalues --  -10.20683 -10.20409 -10.20113 -10.20031 -10.19946
 Alpha  occ. eigenvalues --  -10.19924 -10.19869 -10.19779 -10.19738 -10.19340
 Alpha  occ. eigenvalues --  -10.19145 -10.18972 -10.18904 -10.18759 -10.18532
 Alpha  occ. eigenvalues --  -10.18154 -10.17706 -10.16149  -1.10772  -1.10651
 Alpha  occ. eigenvalues --   -1.03093  -1.01257  -1.00458  -1.00176  -0.99286
 Alpha  occ. eigenvalues --   -0.97285  -0.96138  -0.91852  -0.83008  -0.82687
 Alpha  occ. eigenvalues --   -0.82022  -0.81122  -0.80275  -0.79353  -0.78134
 Alpha  occ. eigenvalues --   -0.77348  -0.76663  -0.75471  -0.74724  -0.71927
 Alpha  occ. eigenvalues --   -0.71530  -0.70828  -0.69692  -0.69179  -0.68127
 Alpha  occ. eigenvalues --   -0.67594  -0.65572  -0.64547  -0.62834  -0.62719
 Alpha  occ. eigenvalues --   -0.61574  -0.59562  -0.59064  -0.58949  -0.57596
 Alpha  occ. eigenvalues --   -0.56202  -0.55515  -0.55153  -0.53671  -0.53184
 Alpha  occ. eigenvalues --   -0.52277  -0.52193  -0.51496  -0.50491  -0.49689
 Alpha  occ. eigenvalues --   -0.49234  -0.48900  -0.48268  -0.47946  -0.47681
 Alpha  occ. eigenvalues --   -0.47008  -0.46815  -0.46370  -0.45960  -0.45303
 Alpha  occ. eigenvalues --   -0.45030  -0.44556  -0.44503  -0.44165  -0.44045
 Alpha  occ. eigenvalues --   -0.43631  -0.43000  -0.42941  -0.42472  -0.42308
 Alpha  occ. eigenvalues --   -0.41789  -0.41754  -0.41485  -0.41148  -0.41069
 Alpha  occ. eigenvalues --   -0.40643  -0.40464  -0.40398  -0.40054  -0.39523
 Alpha  occ. eigenvalues --   -0.39365  -0.39140  -0.38732  -0.38570  -0.38391
 Alpha  occ. eigenvalues --   -0.38282  -0.37863  -0.37347  -0.37060  -0.36696
 Alpha  occ. eigenvalues --   -0.36252  -0.36063  -0.35584  -0.35394  -0.34642
 Alpha  occ. eigenvalues --   -0.34224  -0.33621  -0.32946  -0.32869  -0.32480
 Alpha  occ. eigenvalues --   -0.32203  -0.32072  -0.31981  -0.29585  -0.28612
 Alpha  occ. eigenvalues --   -0.28563  -0.28057  -0.26607  -0.26228  -0.25825
 Alpha  occ. eigenvalues --   -0.25451  -0.24964  -0.24742  -0.23633  -0.21634
 Alpha  occ. eigenvalues --   -0.16555
 Alpha virt. eigenvalues --   -0.10455  -0.05551  -0.03716  -0.02809  -0.00259
 Alpha virt. eigenvalues --    0.01322   0.01877   0.03229   0.03473   0.04070
 Alpha virt. eigenvalues --    0.04447   0.05117   0.05380   0.05866   0.06444

 Mulliken charges:
               1
     1  O   -0.214402
     2  O   -0.123010
     3  O   -0.185820
     4  O   -0.256577
     5  O   -0.235139
     6  O   -0.218498
     7  N   -0.103760
     8  N   -0.036087
     9  N   -0.062091
    10  N   -0.301932
    11  C   -0.008315
    12  C    0.076700
    13  C   -0.155761
    14  C    0.099459
    15  C   -0.174013
    16  C   -0.027796
    17  C   -0.070504
    18  C   -0.156650
    19  C    0.012024
    20  C   -0.065579
    21  C    0.071576
    22  C    0.055757
    23  C    0.019212
    24  C    0.187687
    25  C   -0.094408
    26  C    0.050552
    27  C    0.135676
    28  C   -0.007253
    29  C   -0.034932
    30  C    0.192120
    31  C   -0.113590
    32  C    0.074065
    33  C   -0.229499
    34  C    0.044001
    35  C   -0.089771
    36  C   -0.186655
    37  C    0.163292
    38  C    0.172944
    39  C    0.149973
    40  C    0.102989
    41  C    0.179616
    42  C    0.083820
    43  C    0.011576
    44  H    0.138960
    45  H    0.056125
    46  H    0.001062
    47  H    0.014824
    48  H    0.048179
    49  H    0.024068
    50  H   -0.011955
    51  H   -0.017819
    52  H    0.140691
    53  H    0.028606
    54  H    0.033069
    55  H    0.000914
    56  H    0.085912
    57  H    0.018270
    58  H    0.058314
    59  H    0.089226
    60  H    0.002293
    61  H    0.048902
    62  H   -0.006887
    63  H   -0.019801
    64  H   -0.014525
    65  H    0.009016
    66  H    0.033186
    67  H   -0.018258
    68  H    0.017457
    69  H    0.043312
    70  H    0.002478
    71  H    0.011228
    72  H   -0.004596
    73  H   -0.007570
    74  H    0.031521
    75  H    0.007478
    76  H    0.061616
    77  H   -0.010762
    78  H    0.001435
    79  H    0.036756
    80  H    0.127339
    81  H    0.208937
 Sum of Mulliken charges =  -0.00000

 Dipole moment (field-independent basis, Debye):
    X=             -1.5003    Y=              1.5454    Z=             -0.2234  Tot=              2.1654
 Quadrupole moment (field-independent basis, Debye-Ang):
   XX=           -246.8328   YY=           -236.6794   ZZ=           -253.4083
   XY=             18.7613   XZ=             14.1393   YZ=            -15.6451

 Normal termination of Gaussian 16 at Tue Jul  2 13:36:15 2019.
