 Gaussian 16, Revision A.03,
 Gaussian 16:  ES64L-G16RevA.03 25-Dec-2016

 --------------------------
 # td=(NStates=1) B3LYP/SVP
 --------------------------

 --
 TD
 --
 Symbolic Z-matrix:
 Charge =  0 Multiplicity = 1

                         Standard orientation:
 ---------------------------------------------------------------------
 Center     Atomic      Atomic             Coordinates (Angstroms)
 Number     Number       Type             X           Y           Z
 ---------------------------------------------------------------------
      1          8           0        4.156909   -4.829334   -1.976676
      2          8           0       -3.019654   -4.954661   -0.911384
      3          8           0       -6.974575   -1.444156   -1.933734
      4          8           0       -3.835930   -3.227631    0.074630
      5          8           0       -7.717859   -0.319576   -0.095917
      6          8           0        2.970597    2.331790    0.314304
      7          7           0        0.321144   -0.510872    0.632208
      8          7           0       -1.501873    1.880408    0.400357
      9          7           0        3.259256   -3.114830   -0.854890
     10          7           0        0.705234    2.951653    0.170298
     11          6           0       -0.634980   -2.396926    1.455473
     12          6           0       -0.939121   -1.048385    1.003479
     13          6           0        0.762935   -2.765131    1.120687
     14          6           0        1.381670   -1.468461    0.661553
     15          6           0       -3.787391    1.555705    0.250375
     16          6           0       -2.513498    0.919728    0.577844
     17          6           0       -2.152136   -0.416728    0.983910
     18          6           0       -3.546619    2.829559   -0.204254
     19          6           0       -1.634415   -3.297614    2.099825
     20          6           0        5.502748   -2.685120   -1.431771
     21          6           0        3.556714   -1.863778   -0.272059
     22          6           0       -2.022858    3.008845   -0.025423
     23          6           0        4.993203   -1.573993   -0.594473
     24          6           0       -5.109574    0.865438    0.220069
     25          6           0        2.672129   -1.029460    0.421096
     26          6           0        1.465278   -3.904406    1.673736
     27          6           0        4.346592   -3.651196   -1.568377
     28          6           0       -2.138135   -4.561487    1.291288
     29          6           0       -5.362251   -0.167113   -0.876392
     30          6           0       -4.501253    3.913845   -0.565065
     31          6           0       -1.228828    4.119967   -0.417293
     32          6           0        6.733505   -3.505040   -0.967226
     33          6           0        5.810832   -0.651637   -0.001507
     34          6           0        0.152224    4.152959   -0.215507
     35          6           0        1.212297    5.144561   -0.455519
     36          6           0        2.409405    4.528586   -0.186945
     37          6           0       -3.149252   -4.202947    0.192588
     38          6           0        5.337322    0.472152    0.852271
     39          6           0       -6.822482   -0.584722   -0.882050
     40          6           0        3.794836    5.212665   -0.221673
     41          6           0        2.118401    3.235283    0.130043
     42          6           0        0.814380    6.542380   -0.762192
     43          6           0        4.306535    5.501486    1.138310
     44          1           0        0.301541    0.473484    0.258588
     45          1           0       -3.129251   -0.946073    1.221337
     46          1           0       -2.699518   -2.735341    2.502005
     47          1           0       -1.308408   -3.594619    3.081843
     48          1           0        5.752880   -2.381416   -2.387525
     49          1           0       -4.922439    0.332916    1.300156
     50          1           0       -5.929491    1.589159    0.363623
     51          1           0        2.921800    0.094297    0.414624
     52          1           0       -0.451029    1.966198    0.480468
     53          1           0        1.367841   -4.609737    0.999894
     54          1           0        2.634659   -3.602183    1.830352
     55          1           0        1.024446   -4.079977    2.769038
     56          1           0        2.374677   -3.689087   -0.711434
     57          1           0       -1.238215   -5.209579    0.925787
     58          1           0       -2.772623   -5.238128    2.120527
     59          1           0       -4.707920   -1.174291   -0.533471
     60          1           0       -4.973463    0.199613   -1.962978
     61          1           0       -4.210811    4.946992   -0.135073
     62          1           0       -5.611686    3.821674   -0.400768
     63          1           0       -4.169648    4.145108   -1.744189
     64          1           0       -1.803437    5.011109   -0.792369
     65          1           0        7.762977   -3.146142   -0.805026
     66          1           0        7.050503   -4.314726   -1.737710
     67          1           0        6.732025   -3.985458    0.057972
     68          1           0        6.800309   -0.583139   -0.283201
     69          1           0        4.870241    1.435609    0.427604
     70          1           0        6.286926    0.819452    1.418941
     71          1           0        4.634048    0.183542    1.624328
     72          1           0        3.569669    6.197095   -0.651172
     73          1           0        4.582282    4.571470   -0.767517
     74          1           0        0.282580    6.445130   -1.747756
     75          1           0        1.678054    7.145854   -1.000764
     76          1           0        0.297381    7.169312    0.112656
     77          1           0        3.657862    6.220940    1.723683
     78          1           0        5.297466    5.812016    1.106482
     79          1           0        4.346231    4.619741    1.793633
     80          1           0       -3.526427   -4.477440   -1.632841
     81          1           0       -7.863538   -1.703428   -1.994235
 ---------------------------------------------------------------------

 SCF Done:  E(RB3LYP) =  -1949.11981536     A.U. after   24 cycles

 Excitation energies and oscillator strengths:

 Excited State   1:      Singlet-A      1.7112 eV  724.55 nm  f=0.3288  <S**2>=0.000
     156 ->157         0.70978
     156 <-157        -0.13271
 This state for optimization and/or second-order correction.
 Total Energy, E(TD-HF/TD-DFT) =  -1949.05693063
 Copying the excited state density for this state as the 1-particle RhoCI density.

 The electronic state is 1-A.
 Alpha  occ. eigenvalues --  -19.18494 -19.17435 -19.13877 -19.13047 -19.11224
 Alpha  occ. eigenvalues --  -19.09473 -14.37764 -14.37455 -14.35177 -14.28269
 Alpha  occ. eigenvalues --  -10.33340 -10.32271 -10.30070 -10.25396 -10.25317
 Alpha  occ. eigenvalues --  -10.24884 -10.24508 -10.23539 -10.23407 -10.23382
 Alpha  occ. eigenvalues --  -10.22624 -10.22337 -10.21878 -10.21809 -10.21802
 Alpha  occ. eigenvalues --  -10.21669 -10.21266 -10.21003 -10.20739 -10.20731
 Alpha  occ. eigenvalues --  -10.20606 -10.20491 -10.20477 -10.20317 -10.20289
 Alpha  occ. eigenvalues --  -10.20046 -10.19981 -10.19537 -10.19092 -10.18998
 Alpha  occ. eigenvalues --  -10.18333 -10.17672 -10.17036  -1.11485  -1.09194
 Alpha  occ. eigenvalues --   -1.02106  -1.00919  -1.00459  -0.99509  -0.97909
 Alpha  occ. eigenvalues --   -0.95231  -0.93743  -0.90767  -0.82489  -0.82177
 Alpha  occ. eigenvalues --   -0.81399  -0.80919  -0.80003  -0.78205  -0.77434
 Alpha  occ. eigenvalues --   -0.76681  -0.76121  -0.75737  -0.74573  -0.72469
 Alpha  occ. eigenvalues --   -0.71119  -0.69883  -0.69754  -0.67924  -0.67288
 Alpha  occ. eigenvalues --   -0.67017  -0.65236  -0.64153  -0.62184  -0.61291
 Alpha  occ. eigenvalues --   -0.59957  -0.59646  -0.58998  -0.58020  -0.56395
 Alpha  occ. eigenvalues --   -0.55947  -0.54972  -0.54558  -0.53753  -0.53218
 Alpha  occ. eigenvalues --   -0.51727  -0.51029  -0.50733  -0.49462  -0.49366
 Alpha  occ. eigenvalues --   -0.48890  -0.48786  -0.48153  -0.47839  -0.47501
 Alpha  occ. eigenvalues --   -0.46909  -0.46604  -0.46182  -0.45791  -0.45308
 Alpha  occ. eigenvalues --   -0.44901  -0.44640  -0.44302  -0.44034  -0.43602
 Alpha  occ. eigenvalues --   -0.43442  -0.43057  -0.42846  -0.42654  -0.42193
 Alpha  occ. eigenvalues --   -0.41616  -0.41462  -0.40868  -0.40572  -0.40477
 Alpha  occ. eigenvalues --   -0.40365  -0.39930  -0.39833  -0.39453  -0.39140
 Alpha  occ. eigenvalues --   -0.38989  -0.38780  -0.38392  -0.38156  -0.37879
 Alpha  occ. eigenvalues --   -0.37663  -0.37569  -0.37308  -0.36831  -0.36366
 Alpha  occ. eigenvalues --   -0.35647  -0.35407  -0.35395  -0.34935  -0.34455
 Alpha  occ. eigenvalues --   -0.34008  -0.33572  -0.33378  -0.33055  -0.32912
 Alpha  occ. eigenvalues --   -0.32480  -0.32393  -0.31854  -0.29757  -0.29398
 Alpha  occ. eigenvalues --   -0.28431  -0.27908  -0.26354  -0.26033  -0.25571
 Alpha  occ. eigenvalues --   -0.24643  -0.24271  -0.24027  -0.23445  -0.21160
 Alpha  occ. eigenvalues --   -0.17134
 Alpha virt. eigenvalues --   -0.10376  -0.06766  -0.04593  -0.02082  -0.01367
 Alpha virt. eigenvalues --   -0.00410   0.01866   0.02196   0.02750   0.03593
 Alpha virt. eigenvalues --    0.04272   0.04746   0.05097   0.05195   0.05966

 Mulliken charges:
               1
     1  O   -0.250062
     2  O   -0.193773
     3  O   -0.171375
     4  O   -0.211550
     5  O   -0.224443
     6  O   -0.260256
     7  N   -0.148050
     8  N   -0.062703
     9  N   -0.154990
    10  N   -0.385129
    11  C   -0.070509
    12  C    0.145426
    13  C   -0.178370
    14  C    0.139855
    15  C   -0.057646
    16  C    0.008733
    17  C   -0.061394
    18  C   -0.091327
    19  C    0.011044
    20  C    0.070749
    21  C    0.085466
    22  C    0.003406
    23  C   -0.016828
    24  C    0.033405
    25  C   -0.150843
    26  C    0.061794
    27  C    0.130874
    28  C   -0.062324
    29  C   -0.092389
    30  C    0.000947
    31  C   -0.104028
    32  C   -0.016175
    33  C   -0.085663
    34  C    0.111372
    35  C   -0.105576
    36  C   -0.113705
    37  C    0.147648
    38  C    0.008461
    39  C    0.157059
    40  C    0.111946
    41  C    0.147742
    42  C    0.078417
    43  C    0.020419
    44  H    0.143902
    45  H    0.015739
    46  H    0.037841
    47  H    0.007815
    48  H    0.016414
    49  H    0.034250
    50  H    0.017129
    51  H    0.078514
    52  H    0.150388
    53  H    0.002763
    54  H    0.056811
    55  H    0.054510
    56  H    0.157126
    57  H    0.064368
    58  H    0.063910
    59  H    0.114170
    60  H    0.069352
    61  H    0.036888
    62  H    0.045476
    63  H    0.036776
    64  H   -0.023601
    65  H    0.005108
    66  H    0.036316
    67  H    0.018133
    68  H   -0.027407
    69  H    0.095111
    70  H   -0.002923
    71  H    0.025169
    72  H   -0.011735
    73  H    0.027930
    74  H    0.035435
    75  H   -0.011048
    76  H    0.063985
    77  H    0.005952
    78  H   -0.008099
    79  H    0.011967
    80  H    0.198365
    81  H    0.151546
 Sum of Mulliken charges =  -0.00000

 Dipole moment (field-independent basis, Debye):
    X=             -0.3990    Y=              0.9076    Z=             -0.2622  Tot=              1.0255
 Quadrupole moment (field-independent basis, Debye-Ang):
   XX=           -248.1077   YY=           -240.3173   ZZ=           -252.7880
   XY=             12.7790   XZ=             12.6364   YZ=            -16.3342

 Normal termination of Gaussian 16 at Thu Jun 27 03:01:28 2019.
