 Gaussian 16, Revision A.03,
 Gaussian 16:  ES64L-G16RevA.03 25-Dec-2016

 --------------------------
 # td=(NStates=1) B3LYP/SVP
 --------------------------

 --
 TD
 --
 Symbolic Z-matrix:
 Charge =  0 Multiplicity = 1

                         Standard orientation:
 ---------------------------------------------------------------------
 Center     Atomic      Atomic             Coordinates (Angstroms)
 Number     Number       Type             X           Y           Z
 ---------------------------------------------------------------------
      1          8           0       -4.290986   -4.705464    2.090565
      2          8           0        2.699555   -4.675547    1.303900
      3          8           0        7.137798   -1.337291    1.954602
      4          8           0        3.878174   -3.266149   -0.081947
      5          8           0        7.589535   -0.479178   -0.123813
      6          8           0       -3.010230    2.373911   -0.758882
      7          7           0       -0.305900   -0.471909   -0.839264
      8          7           0        1.576474    1.860079   -0.481076
      9          7           0       -3.295558   -3.054135    0.899613
     10          7           0       -0.844372    2.774997   -0.228036
     11          6           0        0.676372   -2.369108   -1.472699
     12          6           0        0.975510   -1.086085   -1.041806
     13          6           0       -0.696721   -2.622606   -1.366895
     14          6           0       -1.230390   -1.400346   -0.749215
     15          6           0        3.795662    1.508240   -0.398046
     16          6           0        2.558834    0.852558   -0.685142
     17          6           0        2.179757   -0.488067   -1.082155
     18          6           0        3.517540    2.826061    0.112836
     19          6           0        1.663158   -3.422380   -2.039556
     20          6           0       -5.571580   -2.725022    1.426511
     21          6           0       -3.536662   -1.820701    0.321946
     22          6           0        2.092912    3.005687   -0.005089
     23          6           0       -4.950683   -1.560084    0.459282
     24          6           0        5.135094    0.748880   -0.371082
     25          6           0       -2.569878   -1.058930   -0.469067
     26          6           0       -1.464687   -3.872408   -1.758316
     27          6           0       -4.371840   -3.664368    1.513249
     28          6           0        1.959418   -4.602641   -0.989810
     29          6           0        5.370781   -0.212860    0.778745
     30          6           0        4.430856    3.804944    0.717583
     31          6           0        1.260066    4.131978    0.498133
     32          6           0       -6.779576   -3.444141    0.771413
     33          6           0       -5.758292   -0.553374    0.093089
     34          6           0       -0.069747    3.933501    0.273306
     35          6           0       -1.005549    5.033959    0.543233
     36          6           0       -2.340397    4.606518    0.234134
     37          6           0        2.870612   -3.969889    0.130945
     38          6           0       -5.517476    0.751822   -0.696148
     39          6           0        6.866375   -0.619045    0.751230
     40          6           0       -3.682322    5.283958    0.285526
     41          6           0       -2.142701    3.085258   -0.272547
     42          6           0       -0.609380    6.407924    1.121628
     43          6           0       -4.351346    5.571037   -1.018491
     44          1           0       -0.383842    0.297089   -0.251567
     45          1           0        3.057743   -1.247796   -1.026073
     46          1           0        2.582649   -2.818280   -2.232286
     47          1           0        1.316651   -3.999653   -2.998272
     48          1           0       -5.707867   -2.344654    2.474404
     49          1           0        5.280296    0.174305   -1.340580
     50          1           0        5.947758    1.600131   -0.468279
     51          1           0       -2.946484    0.023552   -0.637558
     52          1           0        0.678931    1.982049   -0.836527
     53          1           0       -1.588306   -4.683679   -0.849393
     54          1           0       -2.472116   -3.734613   -2.065044
     55          1           0       -0.895764   -4.508125   -2.574087
     56          1           0       -2.351137   -3.383150    0.760128
     57          1           0        1.145626   -5.025901   -0.437999
     58          1           0        2.517443   -5.397947   -1.407973
     59          1           0        4.835442   -1.246938    0.473769
     60          1           0        4.859337    0.170952    1.771123
     61          1           0        4.481772    4.724674    0.061881
     62          1           0        5.493197    3.309178    0.866590
     63          1           0        4.061784    4.263103    1.763079
     64          1           0        1.697135    5.042805    0.866577
     65          1           0       -7.597948   -2.691903    0.460401
     66          1           0       -6.884930   -4.136495    1.466205
     67          1           0       -6.417138   -3.876097   -0.081988
     68          1           0       -6.925356   -0.811487    0.436005
     69          1           0       -4.837801    1.372936   -0.115753
     70          1           0       -6.496221    1.234593   -1.156488
     71          1           0       -4.881607    0.464608   -1.685398
     72          1           0       -3.714704    6.207994    0.672933
     73          1           0       -4.378636    4.538455    0.809958
     74          1           0       -0.162248    6.288572    2.155911
     75          1           0       -1.606225    7.034068    1.090448
     76          1           0        0.186738    6.913498    0.375773
     77          1           0       -3.722414    6.285575   -1.758609
     78          1           0       -5.399636    5.872676   -0.925790
     79          1           0       -4.370459    4.671886   -1.728197
     80          1           0        3.392124   -4.244759    1.983123
     81          1           0        8.038595   -1.728302    1.855165
 ---------------------------------------------------------------------

 SCF Done:  E(RB3LYP) =  -1949.12032875     A.U. after   23 cycles

 Excitation energies and oscillator strengths:

 Excited State   1:      Singlet-A      1.7473 eV  709.57 nm  f=0.2639  <S**2>=0.000
     155 ->157         0.20584
     156 ->157         0.67614
     156 <-157        -0.10333
 This state for optimization and/or second-order correction.
 Total Energy, E(TD-HF/TD-DFT) =  -1949.05611582
 Copying the excited state density for this state as the 1-particle RhoCI density.

 The electronic state is 1-A.
 Alpha  occ. eigenvalues --  -19.21123 -19.16790 -19.15772 -19.14415 -19.12213
 Alpha  occ. eigenvalues --  -19.07800 -14.38441 -14.37850 -14.35323 -14.27029
 Alpha  occ. eigenvalues --  -10.34926 -10.32179 -10.30258 -10.26433 -10.25155
 Alpha  occ. eigenvalues --  -10.24506 -10.23776 -10.23757 -10.23580 -10.23322
 Alpha  occ. eigenvalues --  -10.22958 -10.22940 -10.22640 -10.22159 -10.22072
 Alpha  occ. eigenvalues --  -10.21801 -10.21727 -10.21595 -10.21338 -10.21135
 Alpha  occ. eigenvalues --  -10.20863 -10.20796 -10.20778 -10.20524 -10.20325
 Alpha  occ. eigenvalues --  -10.19815 -10.19745 -10.19063 -10.18770 -10.18765
 Alpha  occ. eigenvalues --  -10.18662 -10.17712 -10.17595  -1.10512  -1.09682
 Alpha  occ. eigenvalues --   -1.05891  -1.01215  -1.01051  -1.00583  -0.99034
 Alpha  occ. eigenvalues --   -0.97546  -0.96945  -0.87254  -0.83736  -0.81808
 Alpha  occ. eigenvalues --   -0.81540  -0.80898  -0.78549  -0.78139  -0.77669
 Alpha  occ. eigenvalues --   -0.77296  -0.76451  -0.75066  -0.73659  -0.72075
 Alpha  occ. eigenvalues --   -0.70860  -0.70360  -0.68772  -0.68404  -0.66878
 Alpha  occ. eigenvalues --   -0.65899  -0.65426  -0.64515  -0.62080  -0.60678
 Alpha  occ. eigenvalues --   -0.59983  -0.59746  -0.58821  -0.58019  -0.57066
 Alpha  occ. eigenvalues --   -0.55874  -0.54888  -0.54169  -0.53382  -0.52065
 Alpha  occ. eigenvalues --   -0.51558  -0.50874  -0.50694  -0.50380  -0.49721
 Alpha  occ. eigenvalues --   -0.49316  -0.48938  -0.48544  -0.48331  -0.48308
 Alpha  occ. eigenvalues --   -0.47504  -0.46888  -0.46415  -0.45630  -0.45120
 Alpha  occ. eigenvalues --   -0.44989  -0.44721  -0.44151  -0.43613  -0.43549
 Alpha  occ. eigenvalues --   -0.43173  -0.43042  -0.42733  -0.42263  -0.42016
 Alpha  occ. eigenvalues --   -0.41708  -0.41181  -0.41060  -0.40919  -0.40690
 Alpha  occ. eigenvalues --   -0.40458  -0.40287  -0.40175  -0.39844  -0.39540
 Alpha  occ. eigenvalues --   -0.39164  -0.38886  -0.38750  -0.38536  -0.38490
 Alpha  occ. eigenvalues --   -0.38262  -0.37970  -0.37774  -0.37529  -0.36772
 Alpha  occ. eigenvalues --   -0.36463  -0.36234  -0.35706  -0.35552  -0.34845
 Alpha  occ. eigenvalues --   -0.34503  -0.34328  -0.33318  -0.32807  -0.32504
 Alpha  occ. eigenvalues --   -0.32369  -0.32141  -0.31052  -0.30587  -0.30373
 Alpha  occ. eigenvalues --   -0.29368  -0.27513  -0.26925  -0.26866  -0.25224
 Alpha  occ. eigenvalues --   -0.24889  -0.24088  -0.22297  -0.21888  -0.20453
 Alpha  occ. eigenvalues --   -0.18212
 Alpha virt. eigenvalues --   -0.11000  -0.06095  -0.04791  -0.04330  -0.00458
 Alpha virt. eigenvalues --    0.00671   0.01041   0.01491   0.01979   0.03545
 Alpha virt. eigenvalues --    0.03925   0.04390   0.04974   0.05420   0.05838

 Mulliken charges:
               1
     1  O   -0.176357
     2  O   -0.231290
     3  O   -0.264242
     4  O   -0.255415
     5  O   -0.132678
     6  O   -0.253190
     7  N   -0.003675
     8  N   -0.054235
     9  N   -0.079536
    10  N   -0.346811
    11  C   -0.090040
    12  C    0.106016
    13  C   -0.117485
    14  C    0.055732
    15  C   -0.066451
    16  C    0.053722
    17  C   -0.110188
    18  C   -0.133673
    19  C    0.041845
    20  C   -0.134307
    21  C    0.042592
    22  C    0.042732
    23  C   -0.027782
    24  C    0.021438
    25  C   -0.140952
    26  C    0.016232
    27  C    0.105074
    28  C    0.070356
    29  C   -0.085168
    30  C    0.013232
    31  C   -0.128905
    32  C    0.156996
    33  C   -0.184033
    34  C    0.183583
    35  C   -0.140379
    36  C   -0.190791
    37  C    0.153179
    38  C    0.014521
    39  C    0.149805
    40  C    0.152865
    41  C    0.142275
    42  C    0.026837
    43  C   -0.070414
    44  H    0.123518
    45  H    0.056048
    46  H    0.034220
    47  H    0.042573
    48  H    0.061290
    49  H    0.023629
    50  H    0.029693
    51  H    0.067507
    52  H    0.112555
    53  H    0.036094
    54  H    0.029698
    55  H    0.033366
    56  H    0.125340
    57  H    0.026668
    58  H    0.042992
    59  H    0.090260
    60  H    0.060303
    61  H    0.036321
    62  H    0.037794
    63  H    0.039776
    64  H   -0.020160
    65  H    0.041937
    66  H   -0.003769
    67  H   -0.013288
    68  H    0.028872
    69  H    0.080626
    70  H    0.039042
    71  H    0.057599
    72  H   -0.039188
    73  H    0.019386
    74  H    0.042143
    75  H    0.036865
    76  H    0.038397
    77  H    0.012055
    78  H    0.012170
    79  H    0.023148
    80  H    0.227245
    81  H    0.176239
 Sum of Mulliken charges =  -0.00000

 Dipole moment (field-independent basis, Debye):
    X=              1.5381    Y=             -3.0719    Z=              0.9077  Tot=              3.5533
 Quadrupole moment (field-independent basis, Debye-Ang):
   XX=           -248.0949   YY=           -245.9869   ZZ=           -257.3230
   XY=             -7.5607   XZ=             11.4661   YZ=             16.6945

 Normal termination of Gaussian 16 at Fri Jun 28 19:27:08 2019.
