 Gaussian 16, Revision A.03,
 Gaussian 16:  ES64L-G16RevA.03 25-Dec-2016

 --------------------------
 # td=(NStates=1) B3LYP/SVP
 --------------------------

 --
 TD
 --
 Symbolic Z-matrix:
 Charge =  0 Multiplicity = 1

                         Standard orientation:
 ---------------------------------------------------------------------
 Center     Atomic      Atomic             Coordinates (Angstroms)
 Number     Number       Type             X           Y           Z
 ---------------------------------------------------------------------
      1          8           0        4.185332   -4.933060   -1.830144
      2          8           0       -3.220558   -4.962855   -1.116596
      3          8           0       -6.890789   -1.344814   -1.967359
      4          8           0       -3.708016   -3.090805    0.116810
      5          8           0       -7.635575   -0.765464    0.026731
      6          8           0        2.967616    2.288123    0.538849
      7          7           0        0.337336   -0.398637    0.637432
      8          7           0       -1.529961    1.962312    0.378720
      9          7           0        3.198208   -3.168269   -0.638026
     10          7           0        0.813797    2.923400    0.025522
     11          6           0       -0.625371   -2.380386    1.291931
     12          6           0       -0.949568   -1.029681    0.937983
     13          6           0        0.792587   -2.573883    1.322633
     14          6           0        1.258968   -1.444885    0.808914
     15          6           0       -3.753424    1.588345    0.295885
     16          6           0       -2.467171    0.959127    0.634249
     17          6           0       -2.217105   -0.332017    0.864046
     18          6           0       -3.455714    2.970757   -0.119780
     19          6           0       -1.695586   -3.319841    1.948690
     20          6           0        5.451194   -2.864749   -1.386214
     21          6           0        3.576114   -1.834061   -0.202901
     22          6           0       -2.091658    3.071847   -0.128517
     23          6           0        5.020317   -1.641742   -0.611699
     24          6           0       -5.132541    0.878151    0.458184
     25          6           0        2.664841   -0.990984    0.427423
     26          6           0        1.459578   -3.880366    1.765902
     27          6           0        4.214468   -3.844354   -1.328954
     28          6           0       -2.144066   -4.507651    1.060983
     29          6           0       -5.285255   -0.025422   -0.741783
     30          6           0       -4.457765    4.024731   -0.502196
     31          6           0       -1.298536    4.073194   -0.392604
     32          6           0        6.683340   -3.657193   -0.791765
     33          6           0        5.734292   -0.571509   -0.189021
     34          6           0        0.136225    4.059852   -0.287963
     35          6           0        1.169503    5.179344   -0.486652
     36          6           0        2.436663    4.606889   -0.183545
     37          6           0       -3.094932   -4.114988   -0.006996
     38          6           0        5.391682    0.633864    0.502027
     39          6           0       -6.698716   -0.723000   -0.810460
     40          6           0        3.713594    5.149464   -0.334177
     41          6           0        2.177374    3.137251    0.121397
     42          6           0        0.820406    6.557169   -0.765211
     43          6           0        4.378356    5.333670    1.125714
     44          1           0        0.396096    0.654061    0.110520
     45          1           0       -3.087105   -0.940172    1.011788
     46          1           0       -2.604272   -2.624716    2.350506
     47          1           0       -1.062783   -3.671563    2.922728
     48          1           0        5.632333   -2.539599   -2.344617
     49          1           0       -5.166376    0.434801    1.566112
     50          1           0       -5.889095    1.906112    0.503122
     51          1           0        2.826900    0.067069    0.714678
     52          1           0       -0.414346    1.639351    0.368935
     53          1           0        1.407892   -4.600951    0.992242
     54          1           0        2.479589   -3.655531    1.800925
     55          1           0        0.938147   -4.120780    2.801431
     56          1           0        2.135927   -3.463151   -0.706330
     57          1           0       -1.291275   -4.992908    0.710119
     58          1           0       -2.538019   -5.447900    1.611058
     59          1           0       -4.388566   -0.847245   -0.886820
     60          1           0       -5.153051    0.515518   -1.701317
     61          1           0       -4.385506    4.714002    0.213893
     62          1           0       -5.560340    3.755394   -0.779184
     63          1           0       -4.316195    4.413772   -1.466405
     64          1           0       -1.460167    5.197191   -0.830610
     65          1           0        7.575422   -2.934068   -1.185923
     66          1           0        6.784634   -4.524061   -1.146708
     67          1           0        6.456352   -3.679819    0.246482
     68          1           0        6.876592   -0.766065   -0.527073
     69          1           0        4.718852    1.289778   -0.109459
     70          1           0        6.178312    1.110906    0.815856
     71          1           0        4.763676    0.429410    1.586908
     72          1           0        3.765690    6.054937   -0.929177
     73          1           0        4.292369    4.432394   -0.661976
     74          1           0        0.197576    6.434808   -1.686897
     75          1           0        1.775312    7.216162   -0.980555
     76          1           0        0.371489    7.048364    0.013020
     77          1           0        3.702365    5.869118    1.855731
     78          1           0        5.269184    6.095263    1.149671
     79          1           0        4.994501    4.097267    1.363506
     80          1           0       -4.038390   -4.589125   -1.553898
     81          1           0       -7.776023   -1.660321   -1.957270
 ---------------------------------------------------------------------

 SCF Done:  E(RB3LYP) =  -1948.97126153     A.U. after   16 cycles

 Excitation energies and oscillator strengths:

 Excited State   1:      Singlet-A      1.7226 eV  719.76 nm  f=0.2086  <S**2>=0.000
     156 ->157         0.69993
 This state for optimization and/or second-order correction.
 Total Energy, E(TD-HF/TD-DFT) =  -1948.90795762
 Copying the excited state density for this state as the 1-particle RhoCI density.

 The electronic state is 1-A.
 Alpha  occ. eigenvalues --  -19.19619 -19.18471 -19.14846 -19.12285 -19.10985
 Alpha  occ. eigenvalues --  -19.10930 -14.37726 -14.36885 -14.35400 -14.29204
 Alpha  occ. eigenvalues --  -10.33796 -10.32677 -10.28854 -10.26974 -10.24040
 Alpha  occ. eigenvalues --  -10.23787 -10.23383 -10.23347 -10.23290 -10.23286
 Alpha  occ. eigenvalues --  -10.23179 -10.23058 -10.22748 -10.22129 -10.22015
 Alpha  occ. eigenvalues --  -10.21491 -10.21200 -10.20742 -10.20643 -10.20590
 Alpha  occ. eigenvalues --  -10.20199 -10.19997 -10.19748 -10.19604 -10.19576
 Alpha  occ. eigenvalues --  -10.19498 -10.19491 -10.19229 -10.19225 -10.18618
 Alpha  occ. eigenvalues --  -10.17995 -10.17946 -10.17295  -1.10769  -1.10250
 Alpha  occ. eigenvalues --   -1.03442  -1.02191  -1.01406  -0.98269  -0.98087
 Alpha  occ. eigenvalues --   -0.95252  -0.92698  -0.90980  -0.82541  -0.81474
 Alpha  occ. eigenvalues --   -0.81011  -0.80691  -0.80665  -0.78838  -0.77443
 Alpha  occ. eigenvalues --   -0.77178  -0.76677  -0.75939  -0.74002  -0.71998
 Alpha  occ. eigenvalues --   -0.71644  -0.69546  -0.68841  -0.68307  -0.67351
 Alpha  occ. eigenvalues --   -0.66503  -0.65204  -0.63644  -0.61787  -0.60809
 Alpha  occ. eigenvalues --   -0.60134  -0.59616  -0.57985  -0.57820  -0.57391
 Alpha  occ. eigenvalues --   -0.55629  -0.54900  -0.53372  -0.53000  -0.52906
 Alpha  occ. eigenvalues --   -0.52502  -0.51111  -0.50666  -0.50264  -0.49776
 Alpha  occ. eigenvalues --   -0.48904  -0.48546  -0.48425  -0.48140  -0.47782
 Alpha  occ. eigenvalues --   -0.47295  -0.47053  -0.46443  -0.46259  -0.45334
 Alpha  occ. eigenvalues --   -0.45151  -0.44832  -0.44478  -0.43964  -0.43601
 Alpha  occ. eigenvalues --   -0.43226  -0.42921  -0.42791  -0.42506  -0.42243
 Alpha  occ. eigenvalues --   -0.41909  -0.41681  -0.41532  -0.41458  -0.41056
 Alpha  occ. eigenvalues --   -0.40922  -0.40606  -0.40327  -0.40061  -0.39800
 Alpha  occ. eigenvalues --   -0.39662  -0.39013  -0.38837  -0.38525  -0.38148
 Alpha  occ. eigenvalues --   -0.37601  -0.37453  -0.36912  -0.36750  -0.36122
 Alpha  occ. eigenvalues --   -0.35710  -0.35189  -0.34718  -0.34683  -0.34346
 Alpha  occ. eigenvalues --   -0.34237  -0.34081  -0.33971  -0.33512  -0.32832
 Alpha  occ. eigenvalues --   -0.32340  -0.31547  -0.31165  -0.30479  -0.30101
 Alpha  occ. eigenvalues --   -0.27761  -0.27213  -0.25843  -0.25695  -0.25349
 Alpha  occ. eigenvalues --   -0.24836  -0.24678  -0.24334  -0.22474  -0.21494
 Alpha  occ. eigenvalues --   -0.18196
 Alpha virt. eigenvalues --   -0.10928  -0.06026  -0.03351  -0.02029  -0.00738
 Alpha virt. eigenvalues --    0.00812   0.01534   0.02354   0.02884   0.03034
 Alpha virt. eigenvalues --    0.03581   0.03826   0.04397   0.04838   0.05107

 Mulliken charges:
               1
     1  O   -0.194555
     2  O   -0.225670
     3  O   -0.140334
     4  O   -0.212210
     5  O   -0.275827
     6  O   -0.220562
     7  N   -0.238050
     8  N   -0.162692
     9  N   -0.226037
    10  N   -0.326802
    11  C   -0.111996
    12  C    0.076226
    13  C   -0.209962
    14  C    0.073678
    15  C   -0.143854
    16  C    0.103759
    17  C   -0.030840
    18  C   -0.124696
    19  C   -0.009645
    20  C   -0.046879
    21  C    0.121120
    22  C    0.262840
    23  C   -0.023994
    24  C    0.017386
    25  C   -0.135328
    26  C    0.165591
    27  C    0.136418
    28  C    0.065533
    29  C   -0.051444
    30  C    0.147279
    31  C   -0.195387
    32  C    0.126634
    33  C   -0.182713
    34  C   -0.007416
    35  C   -0.102009
    36  C   -0.172308
    37  C    0.157891
    38  C    0.121041
    39  C    0.158836
    40  C    0.193216
    41  C    0.187433
    42  C    0.085475
    43  C   -0.139908
    44  H    0.196110
    45  H   -0.004722
    46  H    0.054235
    47  H    0.033508
    48  H    0.013207
    49  H    0.067892
    50  H    0.052830
    51  H    0.040358
    52  H    0.196809
    53  H    0.015685
    54  H    0.006368
    55  H    0.045011
    56  H    0.173195
    57  H   -0.004207
    58  H    0.052505
    59  H    0.093291
    60  H    0.037454
    61  H    0.001751
    62  H    0.023138
    63  H    0.001227
    64  H    0.002605
    65  H    0.031844
    66  H   -0.028047
    67  H    0.013074
    68  H   -0.001281
    69  H    0.075314
    70  H   -0.041612
    71  H    0.045145
    72  H   -0.000475
    73  H   -0.040071
    74  H    0.039540
    75  H    0.019521
    76  H    0.020289
    77  H    0.033387
    78  H    0.018347
    79  H    0.069567
    80  H    0.196711
    81  H    0.161256
 Sum of Mulliken charges =  -0.00000

 Dipole moment (field-independent basis, Debye):
    X=             -2.5907    Y=              2.2841    Z=             -1.3662  Tot=              3.7142
 Quadrupole moment (field-independent basis, Debye-Ang):
   XX=           -259.1178   YY=           -235.5127   ZZ=           -255.3884
   XY=             15.9582   XZ=             15.4055   YZ=            -15.4524

 Normal termination of Gaussian 16 at Tue Jul  2 12:39:49 2019.
