 Gaussian 16, Revision A.03,
 Gaussian 16:  ES64L-G16RevA.03 25-Dec-2016

 --------------------------
 # td=(NStates=1) B3LYP/SVP
 --------------------------

 --
 TD
 --
 Symbolic Z-matrix:
 Charge =  0 Multiplicity = 1

                         Standard orientation:
 ---------------------------------------------------------------------
 Center     Atomic      Atomic             Coordinates (Angstroms)
 Number     Number       Type             X           Y           Z
 ---------------------------------------------------------------------
      1          8           0        4.366442   -4.901462   -1.699021
      2          8           0       -2.694047   -4.837960   -1.106981
      3          8           0       -6.905560   -1.921596   -1.765242
      4          8           0       -3.745223   -3.266081    0.181882
      5          8           0       -7.614980   -0.681260    0.020857
      6          8           0        3.000397    2.613902    0.468823
      7          7           0        0.250507   -0.517520    0.609303
      8          7           0       -1.665679    1.755765    0.372189
      9          7           0        3.368638   -3.042084   -0.765959
     10          7           0        0.755952    2.934287   -0.054467
     11          6           0       -0.567360   -2.421894    1.372901
     12          6           0       -0.906947   -1.073479    0.915030
     13          6           0        0.827144   -2.593514    1.177599
     14          6           0        1.278814   -1.286955    0.635786
     15          6           0       -3.818163    1.360230    0.266899
     16          6           0       -2.531041    0.850393    0.579942
     17          6           0       -2.306472   -0.556025    0.858885
     18          6           0       -3.676584    2.777657   -0.133259
     19          6           0       -1.509073   -3.462196    1.982363
     20          6           0        5.661569   -2.720450   -1.289847
     21          6           0        3.681448   -1.815526   -0.247349
     22          6           0       -2.208518    2.989886    0.026232
     23          6           0        5.100599   -1.531316   -0.576147
     24          6           0       -5.121913    0.546253    0.327885
     25          6           0        2.734428   -0.964939    0.371220
     26          6           0        1.651308   -3.697864    1.844668
     27          6           0        4.522014   -3.758113   -1.282150
     28          6           0       -1.831809   -4.588557    1.131269
     29          6           0       -5.422631   -0.246979   -1.013046
     30          6           0       -4.577566    3.896848   -0.618711
     31          6           0       -1.352391    4.054585   -0.324166
     32          6           0        6.963138   -3.257877   -0.915867
     33          6           0        5.782321   -0.488461   -0.198910
     34          6           0        0.036363    4.055848   -0.249173
     35          6           0        0.874257    5.199954   -0.421272
     36          6           0        2.142008    4.796749   -0.304683
     37          6           0       -2.848904   -4.142678    0.064129
     38          6           0        5.429440    0.697032    0.601698
     39          6           0       -6.772437   -0.931559   -0.819373
     40          6           0        3.474445    5.512968   -0.244638
     41          6           0        2.086709    3.359078    0.094981
     42          6           0        0.311588    6.636850   -0.751327
     43          6           0        4.131944    5.663519    1.227915
     44          1           0        0.366566    0.350353    0.090119
     45          1           0       -3.053752   -1.170951    1.329717
     46          1           0       -2.416597   -3.016592    2.364632
     47          1           0       -1.201411   -3.934773    2.997677
     48          1           0        5.616437   -2.601709   -2.485246
     49          1           0       -5.153909   -0.170385    1.260552
     50          1           0       -6.067440    1.145735    0.525336
     51          1           0        2.830629    0.091040    0.502212
     52          1           0       -0.521904    1.954309    0.465019
     53          1           0        1.964178   -4.438393    1.087533
     54          1           0        2.650298   -3.162879    2.203990
     55          1           0        1.136165   -4.086643    2.817654
     56          1           0        2.375939   -3.518631   -0.591369
     57          1           0       -1.034645   -4.956815    0.600645
     58          1           0       -2.089466   -5.516784    1.611493
     59          1           0       -4.585536   -1.027417   -1.333002
     60          1           0       -5.498474    0.541870   -1.947992
     61          1           0       -4.645167    4.758036    0.119415
     62          1           0       -5.612409    3.437388   -0.820756
     63          1           0       -4.225387    4.199475   -1.479485
     64          1           0       -1.920782    5.023510   -0.325977
     65          1           0        7.745803   -2.588170   -0.980641
     66          1           0        7.113064   -3.993980   -1.565773
     67          1           0        6.815314   -3.719720    0.100129
     68          1           0        6.761566   -0.339104   -0.835030
     69          1           0        4.782553    1.541331    0.102688
     70          1           0        6.388579    1.224620    1.158079
     71          1           0        4.548926    0.495036    1.329609
     72          1           0        3.263052    6.536727   -0.817827
     73          1           0        3.857132    4.656201   -0.922611
     74          1           0       -0.270516    6.501025   -1.694313
     75          1           0        1.260563    7.217229   -0.834272
     76          1           0       -0.341959    7.043325   -0.053029
     77          1           0        3.211437    6.366741    1.676112
     78          1           0        5.268418    6.129064    1.254992
     79          1           0        4.254319    4.690060    1.702242
     80          1           0       -3.524056   -4.594335   -1.504096
     81          1           0       -7.696052   -2.180082   -1.575324
 ---------------------------------------------------------------------

 SCF Done:  E(RB3LYP) =  -1949.07731131     A.U. after   18 cycles

 Excitation energies and oscillator strengths:

 Excited State   1:      Singlet-A      1.6899 eV  733.68 nm  f=0.3421  <S**2>=0.000
     156 ->157         0.71140
     156 <-157        -0.14103
 This state for optimization and/or second-order correction.
 Total Energy, E(TD-HF/TD-DFT) =  -1949.01520911
 Copying the excited state density for this state as the 1-particle RhoCI density.

 The electronic state is 1-A.
 Alpha  occ. eigenvalues --  -19.19798 -19.17564 -19.14744 -19.13787 -19.12717
 Alpha  occ. eigenvalues --  -19.10284 -14.39465 -14.37936 -14.35373 -14.28763
 Alpha  occ. eigenvalues --  -10.34041 -10.32587 -10.30917 -10.26305 -10.25516
 Alpha  occ. eigenvalues --  -10.24476 -10.23986 -10.23270 -10.22910 -10.22701
 Alpha  occ. eigenvalues --  -10.22536 -10.22398 -10.21753 -10.21586 -10.21162
 Alpha  occ. eigenvalues --  -10.21017 -10.20990 -10.20966 -10.20734 -10.20713
 Alpha  occ. eigenvalues --  -10.20647 -10.20626 -10.20525 -10.20201 -10.20009
 Alpha  occ. eigenvalues --  -10.19651 -10.19604 -10.19429 -10.19383 -10.19067
 Alpha  occ. eigenvalues --  -10.18770 -10.18491 -10.18113  -1.11467  -1.10765
 Alpha  occ. eigenvalues --   -1.03856  -1.02519  -1.01990  -1.00677  -1.00471
 Alpha  occ. eigenvalues --   -0.98689  -0.95112  -0.92045  -0.83428  -0.83309
 Alpha  occ. eigenvalues --   -0.80751  -0.79710  -0.79143  -0.78799  -0.78595
 Alpha  occ. eigenvalues --   -0.77483  -0.75982  -0.74566  -0.73267  -0.71740
 Alpha  occ. eigenvalues --   -0.70965  -0.70139  -0.68972  -0.68551  -0.68200
 Alpha  occ. eigenvalues --   -0.66562  -0.66117  -0.64984  -0.62295  -0.61189
 Alpha  occ. eigenvalues --   -0.61077  -0.59682  -0.58664  -0.57944  -0.57387
 Alpha  occ. eigenvalues --   -0.55815  -0.55449  -0.54092  -0.53017  -0.52612
 Alpha  occ. eigenvalues --   -0.52382  -0.51919  -0.51356  -0.50467  -0.50001
 Alpha  occ. eigenvalues --   -0.49444  -0.49208  -0.48871  -0.48720  -0.47485
 Alpha  occ. eigenvalues --   -0.47177  -0.46841  -0.46032  -0.45522  -0.45191
 Alpha  occ. eigenvalues --   -0.44929  -0.44701  -0.44343  -0.44018  -0.43634
 Alpha  occ. eigenvalues --   -0.43391  -0.42936  -0.42742  -0.42407  -0.42195
 Alpha  occ. eigenvalues --   -0.42018  -0.41990  -0.41596  -0.41371  -0.41152
 Alpha  occ. eigenvalues --   -0.41074  -0.40891  -0.40679  -0.40327  -0.39939
 Alpha  occ. eigenvalues --   -0.39509  -0.39179  -0.39021  -0.38404  -0.38149
 Alpha  occ. eigenvalues --   -0.37808  -0.37528  -0.37049  -0.36770  -0.36432
 Alpha  occ. eigenvalues --   -0.35893  -0.35867  -0.35256  -0.35211  -0.35173
 Alpha  occ. eigenvalues --   -0.34449  -0.33969  -0.33594  -0.33282  -0.33168
 Alpha  occ. eigenvalues --   -0.32729  -0.31920  -0.31817  -0.29965  -0.29341
 Alpha  occ. eigenvalues --   -0.29096  -0.27872  -0.27512  -0.26522  -0.26057
 Alpha  occ. eigenvalues --   -0.25338  -0.24370  -0.24058  -0.23055  -0.21511
 Alpha  occ. eigenvalues --   -0.17453
 Alpha virt. eigenvalues --   -0.10847  -0.05641  -0.04510  -0.02850  -0.01404
 Alpha virt. eigenvalues --   -0.00948   0.02700   0.03044   0.03570   0.04075
 Alpha virt. eigenvalues --    0.04269   0.04471   0.05501   0.06035   0.06173

 Mulliken charges:
               1
     1  O   -0.201526
     2  O   -0.159952
     3  O   -0.111470
     4  O   -0.271722
     5  O   -0.228603
     6  O   -0.240250
     7  N    0.094836
     8  N   -0.106276
     9  N   -0.187680
    10  N   -0.333520
    11  C   -0.098847
    12  C   -0.027697
    13  C   -0.199989
    14  C   -0.068738
    15  C   -0.101647
    16  C    0.063817
    17  C   -0.004115
    18  C   -0.140860
    19  C    0.078475
    20  C   -0.098113
    21  C    0.137868
    22  C    0.009419
    23  C    0.037010
    24  C    0.020679
    25  C   -0.089831
    26  C    0.031935
    27  C    0.124297
    28  C    0.118125
    29  C   -0.080038
    30  C    0.148296
    31  C   -0.113710
    32  C    0.188394
    33  C   -0.170744
    34  C    0.113442
    35  C   -0.123008
    36  C   -0.183395
    37  C    0.131362
    38  C   -0.046499
    39  C    0.157600
    40  C   -0.010363
    41  C    0.152144
    42  C    0.143332
    43  C   -0.050483
    44  H    0.145460
    45  H    0.021008
    46  H    0.000020
    47  H    0.007697
    48  H    0.060718
    49  H    0.037800
    50  H    0.033041
    51  H   -0.001831
    52  H    0.203665
    53  H    0.021435
    54  H    0.048639
    55  H    0.047867
    56  H    0.179321
    57  H   -0.014957
    58  H    0.029812
    59  H    0.071614
    60  H    0.065387
    61  H    0.042801
    62  H    0.019696
    63  H   -0.015446
    64  H   -0.014543
    65  H   -0.000392
    66  H   -0.016446
    67  H    0.019873
    68  H    0.018776
    69  H    0.092075
    70  H    0.037954
    71  H    0.041400
    72  H    0.024094
    73  H    0.041247
    74  H    0.029470
    75  H    0.015052
    76  H    0.007292
    77  H    0.043245
    78  H    0.044187
    79  H    0.047159
    80  H    0.167346
    81  H    0.096509
 Sum of Mulliken charges =  -0.00000

 Dipole moment (field-independent basis, Debye):
    X=             -1.0702    Y=             -0.7508    Z=             -0.3620  Tot=              1.3565
 Quadrupole moment (field-independent basis, Debye-Ang):
   XX=           -252.2564   YY=           -242.1101   ZZ=           -255.0422
   XY=              7.8589   XZ=              8.5038   YZ=            -12.8497

 Normal termination of Gaussian 16 at Mon Jul  1 03:44:38 2019.
