 Gaussian 16, Revision A.03,
 Gaussian 16:  ES64L-G16RevA.03 25-Dec-2016

 --------------------------
 # td=(NStates=1) B3LYP/SVP
 --------------------------

 --
 TD
 --
 Symbolic Z-matrix:
 Charge =  0 Multiplicity = 1

                         Standard orientation:
 ---------------------------------------------------------------------
 Center     Atomic      Atomic             Coordinates (Angstroms)
 Number     Number       Type             X           Y           Z
 ---------------------------------------------------------------------
      1          8           0        4.398587   -4.747737   -1.849779
      2          8           0       -2.692981   -5.027937   -1.261078
      3          8           0       -7.098382   -1.600873   -1.698005
      4          8           0       -3.647897   -3.401572   -0.098022
      5          8           0       -7.826761   -0.416854    0.075209
      6          8           0        2.951724    2.529283    0.271968
      7          7           0        0.244379   -0.483942    0.517657
      8          7           0       -1.622967    1.800854    0.423235
      9          7           0        3.333660   -2.977060   -0.693390
     10          7           0        0.704492    2.921382   -0.051386
     11          6           0       -0.618662   -2.457651    1.298369
     12          6           0       -0.860444   -1.080070    0.937929
     13          6           0        0.895253   -2.583629    1.176724
     14          6           0        1.349821   -1.351600    0.713211
     15          6           0       -3.848806    1.442068    0.222374
     16          6           0       -2.529434    0.723524    0.455785
     17          6           0       -2.186518   -0.514622    0.803651
     18          6           0       -3.662469    2.765973   -0.046453
     19          6           0       -1.558350   -3.478892    1.852726
     20          6           0        5.636692   -2.624874   -1.229759
     21          6           0        3.706628   -1.740121   -0.230153
     22          6           0       -2.205769    2.988895    0.051771
     23          6           0        5.061490   -1.504586   -0.383089
     24          6           0       -5.193406    0.683148    0.509131
     25          6           0        2.701127   -1.013498    0.458683
     26          6           0        1.614890   -3.806459    1.632905
     27          6           0        4.379965   -3.646739   -1.306794
     28          6           0       -1.855443   -4.687986    0.990578
     29          6           0       -5.463273   -0.228425   -0.668192
     30          6           0       -4.672306    3.785401   -0.346826
     31          6           0       -1.438038    4.057204   -0.316201
     32          6           0        6.813021   -3.442100   -0.675842
     33          6           0        5.928204   -0.442693    0.016776
     34          6           0        0.069515    3.951593   -0.265238
     35          6           0        0.917376    5.143419   -0.524595
     36          6           0        2.166925    4.760014   -0.248054
     37          6           0       -2.709182   -4.222523   -0.171362
     38          6           0        5.521479    0.751954    0.801451
     39          6           0       -6.959685   -0.722016   -0.629771
     40          6           0        3.525645    5.416856   -0.357713
     41          6           0        2.088521    3.341234    0.081976
     42          6           0        0.520308    6.634477   -0.865175
     43          6           0        4.250191    5.652618    0.915355
     44          1           0        0.432908    0.560022    0.276931
     45          1           0       -3.054628   -1.418441    0.843414
     46          1           0       -2.434011   -3.159547    2.248500
     47          1           0       -1.104667   -4.068033    2.747626
     48          1           0        5.653425   -2.094515   -2.306248
     49          1           0       -5.367864    0.091875    1.417678
     50          1           0       -5.982429    1.311381    0.726000
     51          1           0        2.925274   -0.011443    0.825820
     52          1           0       -0.479190    1.822724    0.635400
     53          1           0        1.590200   -4.491204    0.672117
     54          1           0        2.622452   -3.504649    1.949397
     55          1           0        1.365448   -4.179057    2.613619
     56          1           0        2.325282   -3.296325   -0.684511
     57          1           0       -1.051906   -5.283017    0.472611
     58          1           0       -2.519439   -5.482666    1.598077
     59          1           0       -4.748971   -1.028429   -0.524790
     60          1           0       -5.452147    0.297974   -1.520292
     61          1           0       -4.401100    4.648432    0.243689
     62          1           0       -5.542470    3.101773   -0.370540
     63          1           0       -4.762777    3.901511   -1.400881
     64          1           0       -2.029181    5.050839   -0.452400
     65          1           0        7.868293   -2.878915   -0.815902
     66          1           0        7.044153   -4.210457   -1.193801
     67          1           0        6.840626   -3.704565    0.424700
     68          1           0        6.993770   -0.615959   -0.137042
     69          1           0        4.899976    1.500341    0.439082
     70          1           0        6.398672    1.235054    1.263806
     71          1           0        4.856526    0.588672    1.520371
     72          1           0        3.478303    6.268016   -1.028131
     73          1           0        4.255895    4.776355   -0.984057
     74          1           0       -0.026600    6.626679   -1.673926
     75          1           0        1.259945    7.383494   -1.007768
     76          1           0        0.107562    7.096008   -0.085575
     77          1           0        3.752385    6.241030    1.722229
     78          1           0        5.415204    6.130645    0.886896
     79          1           0        4.593213    4.679844    1.282853
     80          1           0       -3.304600   -4.844867   -2.069271
     81          1           0       -8.020387   -1.843051   -1.375920
 ---------------------------------------------------------------------

 SCF Done:  E(RB3LYP) =  -1949.02757354     A.U. after   16 cycles

 Excitation energies and oscillator strengths:

 Excited State   1:      Singlet-A      1.5791 eV  785.14 nm  f=0.1676  <S**2>=0.000
     156 ->157         0.70415
 This state for optimization and/or second-order correction.
 Total Energy, E(TD-HF/TD-DFT) =  -1948.96954160
 Copying the excited state density for this state as the 1-particle RhoCI density.

 The electronic state is 1-A.
 Alpha  occ. eigenvalues --  -19.18350 -19.17572 -19.14579 -19.13089 -19.12623
 Alpha  occ. eigenvalues --  -19.10478 -14.37476 -14.36765 -14.35532 -14.30904
 Alpha  occ. eigenvalues --  -10.32772 -10.31882 -10.28665 -10.28513 -10.24554
 Alpha  occ. eigenvalues --  -10.23764 -10.23463 -10.23083 -10.22782 -10.22651
 Alpha  occ. eigenvalues --  -10.22074 -10.21732 -10.21265 -10.21190 -10.20761
 Alpha  occ. eigenvalues --  -10.20409 -10.20250 -10.20232 -10.20159 -10.19909
 Alpha  occ. eigenvalues --  -10.19772 -10.19769 -10.19660 -10.19641 -10.19490
 Alpha  occ. eigenvalues --  -10.19476 -10.19121 -10.19057 -10.18939 -10.18489
 Alpha  occ. eigenvalues --  -10.18385 -10.18035 -10.15732  -1.11226  -1.08165
 Alpha  occ. eigenvalues --   -1.05086  -1.01918  -1.01876  -0.98414  -0.97589
 Alpha  occ. eigenvalues --   -0.96850  -0.95381  -0.95227  -0.82164  -0.81669
 Alpha  occ. eigenvalues --   -0.81518  -0.80855  -0.80611  -0.78937  -0.77593
 Alpha  occ. eigenvalues --   -0.76569  -0.76289  -0.75234  -0.73887  -0.72353
 Alpha  occ. eigenvalues --   -0.71461  -0.71217  -0.70305  -0.67970  -0.67748
 Alpha  occ. eigenvalues --   -0.66464  -0.65308  -0.64016  -0.62553  -0.61947
 Alpha  occ. eigenvalues --   -0.60688  -0.58140  -0.57973  -0.57112  -0.56234
 Alpha  occ. eigenvalues --   -0.56123  -0.55392  -0.54865  -0.54688  -0.54244
 Alpha  occ. eigenvalues --   -0.52721  -0.51403  -0.50478  -0.50369  -0.49707
 Alpha  occ. eigenvalues --   -0.49416  -0.48734  -0.48218  -0.48067  -0.47525
 Alpha  occ. eigenvalues --   -0.47328  -0.47046  -0.46713  -0.45816  -0.45659
 Alpha  occ. eigenvalues --   -0.45351  -0.45142  -0.44522  -0.44281  -0.44208
 Alpha  occ. eigenvalues --   -0.43726  -0.43459  -0.43234  -0.42871  -0.42665
 Alpha  occ. eigenvalues --   -0.42412  -0.41797  -0.41368  -0.41004  -0.40894
 Alpha  occ. eigenvalues --   -0.40561  -0.40376  -0.40180  -0.39896  -0.39463
 Alpha  occ. eigenvalues --   -0.39410  -0.38913  -0.38760  -0.38466  -0.38182
 Alpha  occ. eigenvalues --   -0.38081  -0.37609  -0.37214  -0.36842  -0.36278
 Alpha  occ. eigenvalues --   -0.36028  -0.35958  -0.35561  -0.35312  -0.34967
 Alpha  occ. eigenvalues --   -0.34071  -0.33870  -0.33639  -0.33427  -0.32919
 Alpha  occ. eigenvalues --   -0.32638  -0.32357  -0.31580  -0.30119  -0.30003
 Alpha  occ. eigenvalues --   -0.29357  -0.27738  -0.26838  -0.26223  -0.25392
 Alpha  occ. eigenvalues --   -0.24996  -0.24847  -0.24107  -0.23584  -0.20692
 Alpha  occ. eigenvalues --   -0.17223
 Alpha virt. eigenvalues --   -0.10380  -0.06155  -0.04631  -0.02610   0.00764
 Alpha virt. eigenvalues --    0.01188   0.02341   0.03088   0.03484   0.04085
 Alpha virt. eigenvalues --    0.04290   0.04894   0.05097   0.06036   0.06492

 Mulliken charges:
               1
     1  O   -0.225567
     2  O   -0.229442
     3  O   -0.219180
     4  O   -0.270681
     5  O   -0.167760
     6  O   -0.147307
     7  N   -0.087474
     8  N   -0.219803
     9  N   -0.111558
    10  N   -0.237498
    11  C   -0.112639
    12  C    0.033577
    13  C   -0.203202
    14  C    0.062580
    15  C   -0.058841
    16  C    0.137379
    17  C   -0.143906
    18  C   -0.175953
    19  C    0.149137
    20  C   -0.136101
    21  C    0.099798
    22  C    0.099445
    23  C   -0.043645
    24  C    0.082129
    25  C   -0.136596
    26  C    0.095075
    27  C    0.141333
    28  C   -0.036639
    29  C    0.061204
    30  C    0.206805
    31  C   -0.138292
    32  C    0.110434
    33  C   -0.081255
    34  C    0.028893
    35  C   -0.139357
    36  C   -0.143539
    37  C    0.153527
    38  C    0.147828
    39  C    0.108149
    40  C    0.104204
    41  C    0.148981
    42  C    0.229584
    43  C   -0.060205
    44  H    0.166341
    45  H    0.085563
    46  H   -0.020775
    47  H    0.007875
    48  H    0.075855
    49  H    0.006988
    50  H   -0.026674
    51  H   -0.007180
    52  H    0.200326
    53  H    0.049013
    54  H    0.013524
    55  H    0.015490
    56  H    0.152349
    57  H    0.040858
    58  H    0.069849
    59  H    0.062683
    60  H   -0.008383
    61  H    0.046597
    62  H   -0.010237
    63  H   -0.000637
    64  H   -0.002849
    65  H    0.003076
    66  H   -0.029981
    67  H    0.030738
    68  H   -0.007220
    69  H    0.010964
    70  H   -0.003566
    71  H   -0.028549
    72  H   -0.010061
    73  H    0.022937
    74  H   -0.015126
    75  H   -0.012219
    76  H   -0.010498
    77  H    0.024426
    78  H    0.016521
    79  H    0.027815
    80  H    0.226969
    81  H    0.163576
 Sum of Mulliken charges =  -0.00000

 Dipole moment (field-independent basis, Debye):
    X=             -2.0291    Y=              3.3931    Z=              0.5614  Tot=              3.9932
 Quadrupole moment (field-independent basis, Debye-Ang):
   XX=           -258.0434   YY=           -231.9081   ZZ=           -253.4217
   XY=             18.4430   XZ=             13.5096   YZ=            -13.2086

 Normal termination of Gaussian 16 at Fri Jun 28 17:51:09 2019.
