 Gaussian 16, Revision A.03,
 Gaussian 16:  ES64L-G16RevA.03 25-Dec-2016

 --------------------------
 # td=(NStates=1) B3LYP/SVP
 --------------------------

 --
 TD
 --
 Symbolic Z-matrix:
 Charge =  0 Multiplicity = 1

                         Standard orientation:
 ---------------------------------------------------------------------
 Center     Atomic      Atomic             Coordinates (Angstroms)
 Number     Number       Type             X           Y           Z
 ---------------------------------------------------------------------
      1          8           0       -4.248796   -4.872427    1.860294
      2          8           0        2.788993   -4.834452    1.325457
      3          8           0        7.073525   -1.439243    1.793455
      4          8           0        3.687803   -3.044731    0.210952
      5          8           0        7.485753   -0.639598   -0.291780
      6          8           0       -3.026554    2.294514   -0.267540
      7          7           0       -0.233860   -0.514629   -0.548263
      8          7           0        1.565217    1.886549   -0.409398
      9          7           0       -3.204405   -3.150320    0.638726
     10          7           0       -0.859971    2.864522   -0.049473
     11          6           0        0.677824   -2.339759   -1.391289
     12          6           0        0.974523   -1.015329   -0.988978
     13          6           0       -0.636205   -2.639334   -1.175568
     14          6           0       -1.220847   -1.401175   -0.666870
     15          6           0        3.798944    1.654859   -0.343331
     16          6           0        2.567390    0.961327   -0.618411
     17          6           0        2.232451   -0.434807   -0.923441
     18          6           0        3.540652    2.987901   -0.054215
     19          6           0        1.761544   -3.383530   -1.910012
     20          6           0       -5.443984   -2.800691    1.181772
     21          6           0       -3.490205   -1.827461    0.172226
     22          6           0        2.048210    3.149553   -0.009295
     23          6           0       -4.949025   -1.773871    0.294477
     24          6           0        5.081988    0.831729   -0.464696
     25          6           0       -2.555014   -1.080156   -0.334482
     26          6           0       -1.362719   -3.883262   -1.577472
     27          6           0       -4.257261   -3.778902    1.253937
     28          6           0        2.131770   -4.489015   -0.908728
     29          6           0        5.418847   -0.132054    0.776683
     30          6           0        4.506913    3.989024    0.429120
     31          6           0        1.181695    4.151315    0.438511
     32          6           0       -6.706357   -3.588879    0.748825
     33          6           0       -5.764693   -0.697372   -0.122251
     34          6           0       -0.230482    3.977580    0.240320
     35          6           0       -1.209980    5.209561    0.459163
     36          6           0       -2.410065    4.598247    0.381627
     37          6           0        3.030915   -4.039038    0.169880
     38          6           0       -5.461806    0.500371   -1.027433
     39          6           0        6.791105   -0.652628    0.633039
     40          6           0       -3.807504    5.265719    0.425431
     41          6           0       -2.160000    3.148126   -0.031911
     42          6           0       -0.700683    6.558359    0.923244
     43          6           0       -4.428264    5.537882   -0.870998
     44          1           0       -0.629431    0.581877   -0.360842
     45          1           0        3.096967   -1.081920   -1.037795
     46          1           0        2.579784   -2.637120   -2.210838
     47          1           0        1.290712   -3.821173   -2.671209
     48          1           0       -5.780533   -2.609748    2.352664
     49          1           0        5.192633    0.087256   -1.285963
     50          1           0        5.975954    1.433845   -0.632446
     51          1           0       -2.650326   -0.040941   -0.721713
     52          1           0        0.515489    1.815439   -0.524359
     53          1           0       -1.478972   -4.728044   -0.671628
     54          1           0       -2.436049   -3.767020   -1.902481
     55          1           0       -0.874568   -4.109486   -2.512098
     56          1           0       -2.165942   -3.474873    0.903767
     57          1           0        1.307560   -4.977986   -0.640383
     58          1           0        2.611402   -5.187524   -1.596897
     59          1           0        4.763167   -0.895498    0.625313
     60          1           0        5.010810    0.332190    1.799955
     61          1           0        4.661223    4.746503   -0.277889
     62          1           0        5.462536    3.423510    0.569899
     63          1           0        4.249885    4.243365    1.520616
     64          1           0        1.340657    5.131971    0.898852
     65          1           0       -7.591943   -2.818497    0.761293
     66          1           0       -6.937766   -4.274202    1.455743
     67          1           0       -6.610188   -3.784954   -0.232884
     68          1           0       -6.870949   -0.715153    0.192736
     69          1           0       -5.154864    1.442209   -0.521009
     70          1           0       -6.289533    0.762149   -1.602476
     71          1           0       -4.555621    0.453385   -1.762329
     72          1           0       -3.719158    6.234932    1.086151
     73          1           0       -4.465379    4.523879    0.983187
     74          1           0       -0.071533    6.440381    1.841256
     75          1           0       -1.685874    7.327618    0.937031
     76          1           0       -0.071043    6.976213    0.141742
     77          1           0       -3.915406    6.374602   -1.472257
     78          1           0       -5.412808    6.015271   -0.875160
     79          1           0       -4.657402    4.637403   -1.529216
     80          1           0        3.271015   -4.858817    2.136637
     81          1           0        8.042772   -1.902135    1.713928
 ---------------------------------------------------------------------

 SCF Done:  E(RB3LYP) =  -1949.10840065     A.U. after   16 cycles

 Excitation energies and oscillator strengths:

 Excited State   1:      Singlet-A      1.8539 eV  668.79 nm  f=0.3710  <S**2>=0.000
     156 ->157         0.71040
     156 <-157        -0.13126
 This state for optimization and/or second-order correction.
 Total Energy, E(TD-HF/TD-DFT) =  -1949.04027238
 Copying the excited state density for this state as the 1-particle RhoCI density.

 The electronic state is 1-A.
 Alpha  occ. eigenvalues --  -19.16851 -19.16315 -19.15114 -19.13804 -19.10210
 Alpha  occ. eigenvalues --  -19.09955 -14.38829 -14.37456 -14.35760 -14.29896
 Alpha  occ. eigenvalues --  -10.34228 -10.31746 -10.28549 -10.26543 -10.24516
 Alpha  occ. eigenvalues --  -10.24358 -10.23630 -10.23320 -10.23314 -10.23154
 Alpha  occ. eigenvalues --  -10.21899 -10.21886 -10.21695 -10.21046 -10.21022
 Alpha  occ. eigenvalues --  -10.20898 -10.20859 -10.20610 -10.20566 -10.20416
 Alpha  occ. eigenvalues --  -10.20239 -10.20199 -10.20098 -10.20082 -10.19795
 Alpha  occ. eigenvalues --  -10.19470 -10.19459 -10.19252 -10.19089 -10.18557
 Alpha  occ. eigenvalues --  -10.18260 -10.18092 -10.17595  -1.09296  -1.09145
 Alpha  occ. eigenvalues --   -1.01252  -1.01224  -1.01206  -0.99294  -0.98648
 Alpha  occ. eigenvalues --   -0.96330  -0.94357  -0.92980  -0.83027  -0.81474
 Alpha  occ. eigenvalues --   -0.81172  -0.81064  -0.79779  -0.79151  -0.78916
 Alpha  occ. eigenvalues --   -0.77238  -0.76732  -0.75210  -0.74225  -0.72221
 Alpha  occ. eigenvalues --   -0.71155  -0.70173  -0.69505  -0.68941  -0.67806
 Alpha  occ. eigenvalues --   -0.66746  -0.65341  -0.63793  -0.62440  -0.61711
 Alpha  occ. eigenvalues --   -0.60870  -0.59246  -0.57316  -0.57163  -0.56404
 Alpha  occ. eigenvalues --   -0.55733  -0.55568  -0.54779  -0.53839  -0.53222
 Alpha  occ. eigenvalues --   -0.52830  -0.52280  -0.51930  -0.50169  -0.49488
 Alpha  occ. eigenvalues --   -0.49343  -0.48822  -0.48078  -0.47737  -0.47510
 Alpha  occ. eigenvalues --   -0.47242  -0.46209  -0.46090  -0.45368  -0.45209
 Alpha  occ. eigenvalues --   -0.45034  -0.44498  -0.44407  -0.44187  -0.43843
 Alpha  occ. eigenvalues --   -0.43376  -0.43137  -0.42506  -0.42219  -0.41951
 Alpha  occ. eigenvalues --   -0.41680  -0.41547  -0.41282  -0.41061  -0.40869
 Alpha  occ. eigenvalues --   -0.40622  -0.40253  -0.40142  -0.39856  -0.39614
 Alpha  occ. eigenvalues --   -0.39489  -0.39106  -0.38853  -0.38350  -0.38128
 Alpha  occ. eigenvalues --   -0.37935  -0.37186  -0.36952  -0.36634  -0.36517
 Alpha  occ. eigenvalues --   -0.36151  -0.35819  -0.34926  -0.34564  -0.34186
 Alpha  occ. eigenvalues --   -0.34116  -0.33866  -0.33390  -0.33352  -0.32928
 Alpha  occ. eigenvalues --   -0.32496  -0.31621  -0.31482  -0.30306  -0.29615
 Alpha  occ. eigenvalues --   -0.29080  -0.28095  -0.26439  -0.25932  -0.25568
 Alpha  occ. eigenvalues --   -0.25022  -0.24824  -0.24617  -0.24248  -0.22395
 Alpha  occ. eigenvalues --   -0.17484
 Alpha virt. eigenvalues --   -0.10273  -0.05978  -0.04374  -0.02263  -0.01160
 Alpha virt. eigenvalues --    0.00583   0.01960   0.02685   0.03145   0.03565
 Alpha virt. eigenvalues --    0.03860   0.04488   0.04778   0.05522   0.05976

 Mulliken charges:
               1
     1  O   -0.254215
     2  O   -0.266155
     3  O   -0.315039
     4  O   -0.164997
     5  O   -0.155344
     6  O   -0.238931
     7  N   -0.125750
     8  N   -0.150023
     9  N   -0.195411
    10  N   -0.226027
    11  C   -0.149136
    12  C    0.131118
    13  C   -0.146381
    14  C    0.006889
    15  C   -0.017743
    16  C    0.042043
    17  C   -0.063726
    18  C   -0.175041
    19  C    0.139598
    20  C   -0.167315
    21  C    0.216051
    22  C    0.163093
    23  C    0.025265
    24  C    0.022568
    25  C   -0.159961
    26  C    0.043623
    27  C    0.149450
    28  C    0.119745
    29  C    0.000864
    30  C    0.120226
    31  C   -0.100760
    32  C    0.141379
    33  C   -0.121744
    34  C   -0.024198
    35  C   -0.100093
    36  C   -0.187423
    37  C    0.181906
    38  C    0.041419
    39  C    0.165139
    40  C    0.065350
    41  C    0.133336
    42  C    0.059605
    43  C   -0.007144
    44  H    0.219833
    45  H    0.006369
    46  H    0.028091
    47  H   -0.047553
    48  H    0.066393
    49  H    0.021157
    50  H    0.005835
    51  H    0.037866
    52  H    0.144929
    53  H    0.051993
    54  H    0.029363
    55  H    0.012987
    56  H    0.178030
    57  H   -0.016722
    58  H    0.037722
    59  H    0.013778
    60  H    0.055027
    61  H    0.021007
    62  H    0.003872
    63  H    0.037891
    64  H   -0.036473
    65  H    0.001644
    66  H    0.007215
    67  H   -0.022802
    68  H    0.020906
    69  H    0.060873
    70  H   -0.008683
    71  H    0.032129
    72  H    0.011965
    73  H    0.016547
    74  H    0.058976
    75  H    0.045807
    76  H    0.023852
    77  H    0.003311
    78  H   -0.003605
    79  H    0.032383
    80  H    0.178749
    81  H    0.213228
 Sum of Mulliken charges =  -0.00000

 Dipole moment (field-independent basis, Debye):
    X=              2.2150    Y=              1.1232    Z=             -0.3548  Tot=              2.5088
 Quadrupole moment (field-independent basis, Debye-Ang):
   XX=           -250.3177   YY=           -238.8999   ZZ=           -253.9163
   XY=            -21.8031   XZ=             15.1888   YZ=             12.8496

 Normal termination of Gaussian 16 at Sat Jun 29 13:30:40 2019.
