 Gaussian 16, Revision A.03,
 Gaussian 16:  ES64L-G16RevA.03 25-Dec-2016

 --------------------------
 # td=(NStates=1) B3LYP/SVP
 --------------------------

 --
 TD
 --
 Symbolic Z-matrix:
 Charge =  0 Multiplicity = 1

                         Standard orientation:
 ---------------------------------------------------------------------
 Center     Atomic      Atomic             Coordinates (Angstroms)
 Number     Number       Type             X           Y           Z
 ---------------------------------------------------------------------
      1          8           0        4.439026   -4.837849   -1.725961
      2          8           0       -2.772363   -4.777020   -1.121028
      3          8           0       -6.741595   -1.819941   -1.873951
      4          8           0       -3.810200   -3.272614    0.031586
      5          8           0       -7.690738   -0.777160   -0.047746
      6          8           0        2.905025    2.474119    0.392800
      7          7           0        0.265167   -0.503461    0.606934
      8          7           0       -1.626585    1.789083    0.308175
      9          7           0        3.504258   -3.081030   -0.648384
     10          7           0        0.680479    3.014251    0.078944
     11          6           0       -0.527855   -2.378516    1.365676
     12          6           0       -0.930197   -1.098864    1.052180
     13          6           0        0.816935   -2.593535    1.243154
     14          6           0        1.309049   -1.382932    0.645480
     15          6           0       -3.857601    1.419278    0.287530
     16          6           0       -2.508674    0.708013    0.588559
     17          6           0       -2.231578   -0.489071    1.009268
     18          6           0       -3.682736    2.783325   -0.054364
     19          6           0       -1.588937   -3.335763    1.964842
     20          6           0        5.676829   -2.709817   -1.341488
     21          6           0        3.766577   -1.838208   -0.180828
     22          6           0       -2.209206    2.889162   -0.105518
     23          6           0        5.090676   -1.511877   -0.489573
     24          6           0       -5.225336    0.643849    0.401214
     25          6           0        2.656561   -0.952142    0.306494
     26          6           0        1.520445   -3.857422    1.578031
     27          6           0        4.602499   -3.722595   -1.308656
     28          6           0       -2.077098   -4.575318    1.203433
     29          6           0       -5.405393   -0.174874   -0.939175
     30          6           0       -4.674923    3.729497   -0.543683
     31          6           0       -1.468824    4.091138   -0.334867
     32          6           0        7.044325   -3.337537   -0.826985
     33          6           0        5.865540   -0.529873   -0.062510
     34          6           0       -0.024341    4.084070   -0.303989
     35          6           0        0.892298    5.233838   -0.377336
     36          6           0        2.189710    4.772484   -0.120322
     37          6           0       -2.905412   -4.088217   -0.029519
     38          6           0        5.500232    0.679258    0.652121
     39          6           0       -6.692371   -0.966391   -0.803500
     40          6           0        3.468148    5.476530   -0.223608
     41          6           0        2.064905    3.324789    0.158430
     42          6           0        0.506257    6.647985   -0.861324
     43          6           0        4.109598    5.741176    1.054325
     44          1           0        0.652488    0.486466    0.276275
     45          1           0       -3.138064   -1.190993    1.101115
     46          1           0       -2.453935   -2.884334    2.288999
     47          1           0       -1.101440   -3.872533    2.962291
     48          1           0        5.811081   -2.260489   -2.484548
     49          1           0       -5.228011    0.100293    1.339815
     50          1           0       -5.937755    1.251133    0.535337
     51          1           0        2.815177    0.166610    0.549360
     52          1           0       -0.596131    1.624493    0.302955
     53          1           0        1.286524   -4.618038    0.718208
     54          1           0        2.608643   -3.720763    1.771196
     55          1           0        1.031388   -4.297323    2.576602
     56          1           0        2.581469   -3.350586   -0.483503
     57          1           0       -1.206936   -5.113024    0.760158
     58          1           0       -2.703761   -5.176512    1.793194
     59          1           0       -4.681262   -0.952927   -1.045236
     60          1           0       -5.479188    0.292434   -1.813943
     61          1           0       -4.726526    4.514719    0.483644
     62          1           0       -5.672554    3.547505   -0.728553
     63          1           0       -4.280474    4.369328   -1.447773
     64          1           0       -1.926625    5.041001   -0.417615
     65          1           0        7.834820   -2.539624   -0.846702
     66          1           0        7.353321   -4.150150   -1.647413
     67          1           0        6.965903   -3.530437    0.329509
     68          1           0        6.986794   -0.707041   -0.420817
     69          1           0        4.795752    1.486045    0.319737
     70          1           0        6.507328    1.353703    0.716788
     71          1           0        4.905218    0.461843    1.445853
     72          1           0        3.384680    6.252349   -0.939078
     73          1           0        4.045825    4.732774   -0.870282
     74          1           0       -0.124583    6.823593   -1.750128
     75          1           0        1.278295    7.281347   -1.172077
     76          1           0        0.066603    7.061196   -0.070709
     77          1           0        3.400030    6.382179    1.544326
     78          1           0        5.070992    6.323304    0.939427
     79          1           0        4.225715    4.806362    1.670081
     80          1           0       -3.423231   -4.355882   -1.740916
     81          1           0       -7.744631   -2.174839   -1.831823
 ---------------------------------------------------------------------

 SCF Done:  E(RB3LYP) =  -1949.07796928     A.U. after   16 cycles

 Excitation energies and oscillator strengths:

 Excited State   1:      Singlet-A      1.6328 eV  759.36 nm  f=0.2373  <S**2>=0.000
     156 ->157         0.70807
 This state for optimization and/or second-order correction.
 Total Energy, E(TD-HF/TD-DFT) =  -1949.01796676
 Copying the excited state density for this state as the 1-particle RhoCI density.

 The electronic state is 1-A.
 Alpha  occ. eigenvalues --  -19.19925 -19.18871 -19.13102 -19.12911 -19.11821
 Alpha  occ. eigenvalues --  -19.11186 -14.37503 -14.36264 -14.36122 -14.27839
 Alpha  occ. eigenvalues --  -10.32680 -10.32267 -10.30055 -10.26574 -10.24787
 Alpha  occ. eigenvalues --  -10.24537 -10.23073 -10.22947 -10.22930 -10.22714
 Alpha  occ. eigenvalues --  -10.22525 -10.21948 -10.21916 -10.21623 -10.21508
 Alpha  occ. eigenvalues --  -10.21233 -10.21052 -10.21045 -10.20918 -10.20430
 Alpha  occ. eigenvalues --  -10.20428 -10.20057 -10.19743 -10.19468 -10.19252
 Alpha  occ. eigenvalues --  -10.18996 -10.18695 -10.18673 -10.18623 -10.18124
 Alpha  occ. eigenvalues --  -10.18033 -10.17805 -10.17775  -1.12864  -1.07498
 Alpha  occ. eigenvalues --   -1.04744  -1.02019  -1.00823  -0.98181  -0.97924
 Alpha  occ. eigenvalues --   -0.97183  -0.96162  -0.90955  -0.82123  -0.82071
 Alpha  occ. eigenvalues --   -0.81422  -0.81356  -0.80280  -0.78345  -0.77899
 Alpha  occ. eigenvalues --   -0.77401  -0.76089  -0.75554  -0.73722  -0.72025
 Alpha  occ. eigenvalues --   -0.71164  -0.69696  -0.69457  -0.68191  -0.67737
 Alpha  occ. eigenvalues --   -0.67409  -0.65961  -0.64873  -0.62806  -0.61691
 Alpha  occ. eigenvalues --   -0.60991  -0.59017  -0.58017  -0.57892  -0.57138
 Alpha  occ. eigenvalues --   -0.55859  -0.55805  -0.54327  -0.53345  -0.53076
 Alpha  occ. eigenvalues --   -0.52387  -0.51136  -0.50528  -0.50132  -0.49718
 Alpha  occ. eigenvalues --   -0.49526  -0.49191  -0.48653  -0.48078  -0.47755
 Alpha  occ. eigenvalues --   -0.46908  -0.46640  -0.46182  -0.45674  -0.45272
 Alpha  occ. eigenvalues --   -0.44904  -0.44665  -0.44477  -0.44204  -0.43942
 Alpha  occ. eigenvalues --   -0.43783  -0.43680  -0.43367  -0.42894  -0.42506
 Alpha  occ. eigenvalues --   -0.41755  -0.41597  -0.41334  -0.41121  -0.41054
 Alpha  occ. eigenvalues --   -0.40816  -0.40609  -0.40481  -0.39894  -0.39703
 Alpha  occ. eigenvalues --   -0.39325  -0.39021  -0.38876  -0.38773  -0.38667
 Alpha  occ. eigenvalues --   -0.38069  -0.37658  -0.37554  -0.37441  -0.37395
 Alpha  occ. eigenvalues --   -0.36585  -0.35847  -0.35470  -0.35074  -0.34941
 Alpha  occ. eigenvalues --   -0.34691  -0.33956  -0.33612  -0.33430  -0.32920
 Alpha  occ. eigenvalues --   -0.32836  -0.32020  -0.31617  -0.30639  -0.28723
 Alpha  occ. eigenvalues --   -0.28007  -0.27117  -0.27056  -0.25698  -0.25314
 Alpha  occ. eigenvalues --   -0.24786  -0.24381  -0.24076  -0.22903  -0.20644
 Alpha  occ. eigenvalues --   -0.17047
 Alpha virt. eigenvalues --   -0.10122  -0.06136  -0.04343  -0.01426  -0.01123
 Alpha virt. eigenvalues --   -0.00848   0.02521   0.02980   0.03544   0.03691
 Alpha virt. eigenvalues --    0.04494   0.04544   0.04737   0.05571   0.05741

 Mulliken charges:
               1
     1  O   -0.174141
     2  O   -0.125235
     3  O   -0.244841
     4  O   -0.263953
     5  O   -0.285181
     6  O   -0.201923
     7  N   -0.173798
     8  N   -0.058010
     9  N   -0.079520
    10  N   -0.340602
    11  C   -0.059508
    12  C    0.076514
    13  C   -0.150348
    14  C    0.004082
    15  C   -0.161311
    16  C    0.112436
    17  C   -0.080553
    18  C   -0.074183
    19  C    0.028264
    20  C   -0.139173
    21  C    0.034193
    22  C    0.098511
    23  C   -0.031344
    24  C    0.234917
    25  C   -0.136403
    26  C    0.009610
    27  C    0.174339
    28  C    0.091570
    29  C    0.087881
    30  C    0.023517
    31  C   -0.086089
    32  C   -0.002918
    33  C   -0.134445
    34  C    0.073582
    35  C   -0.110020
    36  C   -0.213478
    37  C    0.078288
    38  C    0.050830
    39  C    0.168151
    40  C    0.107976
    41  C    0.172197
    42  C    0.157173
    43  C    0.044149
    44  H    0.194394
    45  H    0.047517
    46  H   -0.007395
    47  H    0.022170
    48  H    0.081711
    49  H    0.014266
    50  H   -0.075490
    51  H    0.054988
    52  H    0.135486
    53  H    0.058690
    54  H    0.042965
    55  H    0.034364
    56  H    0.096545
    57  H    0.021633
    58  H    0.032901
    59  H    0.028189
    60  H    0.000387
    61  H    0.040994
    62  H    0.009317
    63  H    0.049634
    64  H   -0.042582
    65  H    0.023982
    66  H    0.067600
    67  H    0.046887
    68  H    0.011496
    69  H    0.066027
    70  H    0.026302
    71  H    0.002654
    72  H   -0.028863
    73  H    0.003129
    74  H    0.016830
    75  H   -0.018787
    76  H   -0.011625
    77  H   -0.004686
    78  H    0.016669
    79  H    0.034923
    80  H    0.190788
    81  H    0.214785
 Sum of Mulliken charges =  -0.00000

 Dipole moment (field-independent basis, Debye):
    X=             -1.1054    Y=              1.3353    Z=             -1.5568  Tot=              2.3300
 Quadrupole moment (field-independent basis, Debye-Ang):
   XX=           -248.1459   YY=           -239.3717   ZZ=           -252.6383
   XY=             10.1121   XZ=             12.6487   YZ=            -12.7438

 Normal termination of Gaussian 16 at Sat Jun 29 22:32:26 2019.
