 Gaussian 16, Revision A.03,
 Gaussian 16:  ES64L-G16RevA.03 25-Dec-2016

 --------------------------
 # td=(NStates=1) B3LYP/SVP
 --------------------------

 --
 TD
 --
 Symbolic Z-matrix:
 Charge =  0 Multiplicity = 1

                         Standard orientation:
 ---------------------------------------------------------------------
 Center     Atomic      Atomic             Coordinates (Angstroms)
 Number     Number       Type             X           Y           Z
 ---------------------------------------------------------------------
      1          8           0        3.918592   -4.865882   -1.971222
      2          8           0       -3.074691   -4.816989   -1.095616
      3          8           0       -7.001406   -1.227874   -1.961241
      4          8           0       -3.917616   -2.992690   -0.107977
      5          8           0       -7.491677   -0.545787    0.190557
      6          8           0        3.184086    2.169304    0.277269
      7          7           0        0.234297   -0.427539    0.580470
      8          7           0       -1.415073    1.940225    0.430810
      9          7           0        3.103149   -3.180830   -0.676706
     10          7           0        0.876707    2.816007    0.038529
     11          6           0       -0.742915   -2.298441    1.422070
     12          6           0       -1.051109   -1.016253    0.901832
     13          6           0        0.596244   -2.579128    1.243106
     14          6           0        1.220168   -1.395338    0.705008
     15          6           0       -3.719609    1.691584    0.267405
     16          6           0       -2.484520    1.029295    0.546103
     17          6           0       -2.277764   -0.325058    0.907313
     18          6           0       -3.429631    2.988942   -0.011974
     19          6           0       -1.793846   -3.244977    2.020180
     20          6           0        5.381476   -2.900938   -1.312039
     21          6           0        3.569992   -1.934134   -0.159754
     22          6           0       -1.924195    3.195958    0.009793
     23          6           0        4.862766   -1.746457   -0.495147
     24          6           0       -5.086299    1.090581    0.267049
     25          6           0        2.632755   -1.109504    0.277336
     26          6           0        1.314842   -3.853165    1.724926
     27          6           0        4.095393   -3.808161   -1.434243
     28          6           0       -2.280452   -4.424633    1.121965
     29          6           0       -5.396760    0.017367   -0.816042
     30          6           0       -4.299571    4.134694   -0.388270
     31          6           0       -1.078739    4.153685   -0.316416
     32          6           0        6.619212   -3.626636   -0.754698
     33          6           0        5.804252   -0.800142   -0.040477
     34          6           0        0.304860    4.022678   -0.230206
     35          6           0        1.313177    4.977632   -0.468319
     36          6           0        2.453956    4.456579   -0.163870
     37          6           0       -3.177412   -3.985635   -0.014280
     38          6           0        5.385673    0.299142    0.893865
     39          6           0       -6.820832   -0.550319   -0.765369
     40          6           0        3.919185    5.015494   -0.338655
     41          6           0        2.288896    3.002143    0.069654
     42          6           0        0.989480    6.436032   -0.786522
     43          6           0        4.623709    5.260977    0.940326
     44          1           0        0.509540    0.471147   -0.015294
     45          1           0       -3.210593   -0.967323    0.961301
     46          1           0       -2.684512   -2.794888    2.310615
     47          1           0       -1.479876   -3.859893    2.878534
     48          1           0        5.587790   -2.751644   -2.313445
     49          1           0       -5.289909    0.618867    1.213296
     50          1           0       -5.890461    1.989021    0.268538
     51          1           0        2.968954   -0.015955    0.475062
     52          1           0       -0.310661    2.099517    0.413756
     53          1           0        1.268648   -4.881314    0.954807
     54          1           0        2.274392   -3.646406    1.841278
     55          1           0        0.723568   -4.334515    2.652972
     56          1           0        2.147804   -3.361632   -0.496025
     57          1           0       -1.362258   -5.002734    0.764167
     58          1           0       -2.916382   -5.098350    1.881397
     59          1           0       -4.527764   -0.752976   -0.810762
     60          1           0       -5.275505    0.478741   -1.779765
     61          1           0       -4.440061    4.857774    0.342709
     62          1           0       -5.487957    3.783832   -0.746702
     63          1           0       -4.062203    4.623706   -1.419681
     64          1           0       -1.314423    5.299092   -0.473014
     65          1           0        7.520349   -2.835330   -0.503720
     66          1           0        6.829632   -4.440901   -1.485102
     67          1           0        6.349967   -4.161097    0.178093
     68          1           0        6.841411   -0.690698   -0.345148
     69          1           0        5.200065    1.136894    0.248439
     70          1           0        6.220508    0.742390    1.748633
     71          1           0        4.514995    0.071043    1.609157
     72          1           0        3.686968    5.938845   -1.019164
     73          1           0        4.548812    4.254139   -0.966115
     74          1           0        0.471394    6.340991   -1.737272
     75          1           0        1.905550    6.895652   -1.029322
     76          1           0        0.519746    6.935527    0.067980
     77          1           0        4.098616    6.246921    1.473161
     78          1           0        5.495569    5.802235    0.701773
     79          1           0        4.616642    4.450932    1.559478
     80          1           0       -3.639565   -4.435008   -1.761760
     81          1           0       -7.814946   -1.845465   -1.838622
 ---------------------------------------------------------------------

 SCF Done:  E(RB3LYP) =  -1949.11200963     A.U. after   17 cycles

 Excitation energies and oscillator strengths:

 Excited State   1:      Singlet-A      1.7491 eV  708.83 nm  f=0.3041  <S**2>=0.000
     156 ->157         0.70828
     156 <-157        -0.12362
 This state for optimization and/or second-order correction.
 Total Energy, E(TD-HF/TD-DFT) =  -1949.04773037
 Copying the excited state density for this state as the 1-particle RhoCI density.

 The electronic state is 1-A.
 Alpha  occ. eigenvalues --  -19.19075 -19.18164 -19.14569 -19.13663 -19.11482
 Alpha  occ. eigenvalues --  -19.10435 -14.38249 -14.35280 -14.33882 -14.29706
 Alpha  occ. eigenvalues --  -10.34065 -10.31954 -10.28776 -10.27359 -10.24703
 Alpha  occ. eigenvalues --  -10.23648 -10.23576 -10.23341 -10.23296 -10.22812
 Alpha  occ. eigenvalues --  -10.22416 -10.21718 -10.21641 -10.21148 -10.21097
 Alpha  occ. eigenvalues --  -10.20747 -10.20567 -10.20265 -10.20255 -10.20205
 Alpha  occ. eigenvalues --  -10.20181 -10.20152 -10.19994 -10.19978 -10.19851
 Alpha  occ. eigenvalues --  -10.19810 -10.19369 -10.19289 -10.18927 -10.18895
 Alpha  occ. eigenvalues --  -10.18841 -10.18170 -10.17979  -1.10486  -1.09288
 Alpha  occ. eigenvalues --   -1.03454  -1.01630  -1.01285  -1.00667  -0.96514
 Alpha  occ. eigenvalues --   -0.95477  -0.94736  -0.92728  -0.82457  -0.82104
 Alpha  occ. eigenvalues --   -0.81923  -0.80279  -0.79878  -0.78539  -0.77939
 Alpha  occ. eigenvalues --   -0.77004  -0.76187  -0.75815  -0.74001  -0.72451
 Alpha  occ. eigenvalues --   -0.70676  -0.70076  -0.69757  -0.68533  -0.67150
 Alpha  occ. eigenvalues --   -0.66270  -0.65663  -0.63658  -0.62000  -0.61105
 Alpha  occ. eigenvalues --   -0.60314  -0.59135  -0.58253  -0.57906  -0.56914
 Alpha  occ. eigenvalues --   -0.55503  -0.55074  -0.54802  -0.53694  -0.52629
 Alpha  occ. eigenvalues --   -0.51916  -0.51547  -0.51027  -0.49930  -0.49601
 Alpha  occ. eigenvalues --   -0.48958  -0.48339  -0.48120  -0.47921  -0.47577
 Alpha  occ. eigenvalues --   -0.46875  -0.46674  -0.46129  -0.45876  -0.45556
 Alpha  occ. eigenvalues --   -0.44990  -0.44771  -0.44278  -0.43958  -0.43800
 Alpha  occ. eigenvalues --   -0.43624  -0.42840  -0.42569  -0.42317  -0.42251
 Alpha  occ. eigenvalues --   -0.41853  -0.41663  -0.41347  -0.41088  -0.40806
 Alpha  occ. eigenvalues --   -0.40563  -0.40384  -0.40045  -0.39986  -0.39262
 Alpha  occ. eigenvalues --   -0.39101  -0.39008  -0.38492  -0.38270  -0.38013
 Alpha  occ. eigenvalues --   -0.37893  -0.37571  -0.37491  -0.36984  -0.36702
 Alpha  occ. eigenvalues --   -0.36399  -0.36156  -0.35899  -0.35413  -0.34503
 Alpha  occ. eigenvalues --   -0.34233  -0.33903  -0.33413  -0.33248  -0.32959
 Alpha  occ. eigenvalues --   -0.32419  -0.32387  -0.31362  -0.30148  -0.29767
 Alpha  occ. eigenvalues --   -0.28739  -0.28631  -0.26765  -0.25808  -0.25654
 Alpha  occ. eigenvalues --   -0.25240  -0.24778  -0.24366  -0.24097  -0.21708
 Alpha  occ. eigenvalues --   -0.17804
 Alpha virt. eigenvalues --   -0.10836  -0.06452  -0.04546  -0.02981   0.00316
 Alpha virt. eigenvalues --    0.01047   0.02036   0.02542   0.03437   0.03943
 Alpha virt. eigenvalues --    0.04275   0.04704   0.05253   0.05730   0.05875

 Mulliken charges:
               1
     1  O   -0.190697
     2  O   -0.170991
     3  O   -0.246172
     4  O   -0.251334
     5  O   -0.165471
     6  O   -0.230952
     7  N   -0.168313
     8  N   -0.204327
     9  N   -0.130630
    10  N   -0.352587
    11  C   -0.051485
    12  C    0.093029
    13  C   -0.153318
    14  C    0.032974
    15  C   -0.038545
    16  C    0.097561
    17  C   -0.077911
    18  C   -0.074773
    19  C    0.128184
    20  C   -0.028320
    21  C    0.118500
    22  C    0.132478
    23  C   -0.010768
    24  C    0.070683
    25  C   -0.134836
    26  C    0.039540
    27  C    0.113866
    28  C   -0.062771
    29  C   -0.044738
    30  C    0.007899
    31  C   -0.130091
    32  C    0.013619
    33  C   -0.099802
    34  C    0.023486
    35  C   -0.136845
    36  C   -0.152189
    37  C    0.160971
    38  C   -0.025364
    39  C    0.165954
    40  C   -0.006607
    41  C    0.196645
    42  C    0.174171
    43  C    0.074674
    44  H    0.196145
    45  H    0.039188
    46  H   -0.007600
    47  H    0.000819
    48  H    0.007006
    49  H    0.008594
    50  H    0.021304
    51  H    0.066970
    52  H    0.168947
    53  H    0.046168
    54  H    0.001560
    55  H    0.039101
    56  H    0.104874
    57  H    0.055541
    58  H    0.070052
    59  H    0.077910
    60  H    0.007840
    61  H    0.023095
    62  H    0.020299
    63  H    0.038181
    64  H    0.006864
    65  H    0.046947
    66  H    0.034186
    67  H    0.015837
    68  H    0.008587
    69  H    0.061977
    70  H    0.013403
    71  H    0.053199
    72  H    0.008005
    73  H    0.032080
    74  H    0.018102
    75  H   -0.023801
    76  H    0.047619
    77  H   -0.005599
    78  H   -0.001823
    79  H    0.022824
    80  H    0.172692
    81  H    0.198509
 Sum of Mulliken charges =  -0.00000

 Dipole moment (field-independent basis, Debye):
    X=             -1.5018    Y=              1.3094    Z=             -0.0075  Tot=              1.9925
 Quadrupole moment (field-independent basis, Debye-Ang):
   XX=           -247.2487   YY=           -238.5777   ZZ=           -256.0303
   XY=             20.2073   XZ=             11.7662   YZ=            -16.5428

 Normal termination of Gaussian 16 at Tue Jul  2 13:38:59 2019.
