 Gaussian 16, Revision A.03,
 Gaussian 16:  ES64L-G16RevA.03 25-Dec-2016

 --------------------------
 # td=(NStates=1) B3LYP/SVP
 --------------------------

 --
 TD
 --
 Symbolic Z-matrix:
 Charge =  0 Multiplicity = 1

                         Standard orientation:
 ---------------------------------------------------------------------
 Center     Atomic      Atomic             Coordinates (Angstroms)
 Number     Number       Type             X           Y           Z
 ---------------------------------------------------------------------
      1          8           0        4.041858   -4.888761   -1.868632
      2          8           0       -3.307834   -4.908150   -1.010939
      3          8           0       -7.009614   -1.455698   -1.715577
      4          8           0       -3.732793   -2.970518    0.127889
      5          8           0       -7.690670   -0.167254   -0.029228
      6          8           0        3.227301    2.227312    0.333516
      7          7           0        0.134869   -0.513135    0.557810
      8          7           0       -1.479195    1.854951    0.384016
      9          7           0        3.112085   -3.128160   -0.666054
     10          7           0        0.981332    2.743755    0.011998
     11          6           0       -0.775857   -2.364044    1.385523
     12          6           0       -0.999581   -1.085419    0.889341
     13          6           0        0.621368   -2.591388    1.322731
     14          6           0        1.287248   -1.382584    0.786893
     15          6           0       -3.724427    1.618375    0.356245
     16          6           0       -2.488329    0.931105    0.603528
     17          6           0       -2.276520   -0.427516    0.859283
     18          6           0       -3.415237    2.928828   -0.164209
     19          6           0       -1.744600   -3.357090    1.954200
     20          6           0        5.417948   -2.885423   -1.354748
     21          6           0        3.503167   -1.831160   -0.230096
     22          6           0       -1.984107    2.972369   -0.044421
     23          6           0        4.904433   -1.620567   -0.523513
     24          6           0       -5.060979    0.975775    0.445645
     25          6           0        2.566270   -1.020891    0.360094
     26          6           0        1.381339   -3.823983    1.813545
     27          6           0        4.186879   -3.832224   -1.305600
     28          6           0       -2.200657   -4.488812    1.033818
     29          6           0       -5.465328    0.254565   -0.911048
     30          6           0       -4.284809    4.046625   -0.556789
     31          6           0       -1.120019    4.082264   -0.491253
     32          6           0        6.690708   -3.650274   -1.000574
     33          6           0        5.703046   -0.709591   -0.131444
     34          6           0        0.346939    3.950914   -0.308825
     35          6           0        1.238789    5.024508   -0.462473
     36          6           0        2.528993    4.519106   -0.167426
     37          6           0       -3.147367   -3.992947   -0.085814
     38          6           0        5.533872    0.507963    0.797539
     39          6           0       -6.919196   -0.379752   -0.867089
     40          6           0        3.899902    5.110179   -0.268331
     41          6           0        2.317381    2.993246    0.113244
     42          6           0        0.981536    6.534113   -0.751496
     43          6           0        4.410660    5.343397    1.195426
     44          1           0        0.270627    0.359877    0.183753
     45          1           0       -3.360992   -0.984701    0.873342
     46          1           0       -2.699392   -2.847829    2.270315
     47          1           0       -1.374171   -3.837893    2.729839
     48          1           0        5.507169   -2.553815   -2.360918
     49          1           0       -5.035273    0.493103    1.341159
     50          1           0       -5.996031    1.579541    0.566515
     51          1           0        2.781667    0.014430    0.387669
     52          1           0       -0.457053    1.757133    0.606512
     53          1           0        1.681430   -4.768964    1.162544
     54          1           0        2.449407   -3.381460    2.323062
     55          1           0        0.724116   -4.266999    2.601776
     56          1           0        2.246396   -3.635534   -0.657197
     57          1           0       -1.469302   -5.002771    0.661187
     58          1           0       -2.784627   -5.097596    1.465395
     59          1           0       -4.779887   -0.510737   -1.244589
     60          1           0       -5.547765    1.041687   -1.651934
     61          1           0       -4.127485    4.893219   -0.010230
     62          1           0       -5.217050    3.757516   -0.261372
     63          1           0       -3.964835    4.347137   -1.581665
     64          1           0       -1.657764    5.056049   -0.804726
     65          1           0        7.569656   -3.002714   -1.255843
     66          1           0        6.855566   -4.576768   -1.537149
     67          1           0        6.771135   -3.932609   -0.023600
     68          1           0        6.806651   -1.080449   -0.311699
     69          1           0        5.495938    1.535861    0.146762
     70          1           0        6.582226    0.422814    1.305183
     71          1           0        4.703006    0.089179    1.488746
     72          1           0        3.838861    5.882151   -1.061085
     73          1           0        4.555736    4.264161   -0.724694
     74          1           0        0.320518    6.646867   -1.655842
     75          1           0        1.913449    7.009555   -1.083461
     76          1           0        0.488404    7.061542    0.188393
     77          1           0        3.698858    6.035190    1.620583
     78          1           0        5.434332    5.930719    1.344226
     79          1           0        4.470380    4.436305    1.706880
     80          1           0       -3.778101   -4.438745   -1.638743
     81          1           0       -7.866216   -2.189782   -1.571145
 ---------------------------------------------------------------------

 SCF Done:  E(RB3LYP) =  -1949.08207422     A.U. after   17 cycles

 Excitation energies and oscillator strengths:

 Excited State   1:      Singlet-A      1.7663 eV  701.94 nm  f=0.3225  <S**2>=0.000
     156 ->157         0.70840
     156 <-157        -0.11547
 This state for optimization and/or second-order correction.
 Total Energy, E(TD-HF/TD-DFT) =  -1949.01716366
 Copying the excited state density for this state as the 1-particle RhoCI density.

 The electronic state is 1-A.
 Alpha  occ. eigenvalues --  -19.21235 -19.17988 -19.14550 -19.13168 -19.11341
 Alpha  occ. eigenvalues --  -19.09422 -14.36954 -14.36345 -14.36086 -14.27984
 Alpha  occ. eigenvalues --  -10.33371 -10.31955 -10.28987 -10.25277 -10.24619
 Alpha  occ. eigenvalues --  -10.23727 -10.23568 -10.23066 -10.22952 -10.22916
 Alpha  occ. eigenvalues --  -10.22222 -10.21858 -10.21148 -10.20891 -10.20628
 Alpha  occ. eigenvalues --  -10.20234 -10.20178 -10.20006 -10.19987 -10.19955
 Alpha  occ. eigenvalues --  -10.19919 -10.19447 -10.19391 -10.19309 -10.19283
 Alpha  occ. eigenvalues --  -10.19214 -10.18954 -10.18607 -10.18572 -10.18248
 Alpha  occ. eigenvalues --  -10.18063 -10.17928 -10.17833  -1.14508  -1.09428
 Alpha  occ. eigenvalues --   -1.04655  -1.03580  -1.00997  -0.99884  -0.99641
 Alpha  occ. eigenvalues --   -0.98036  -0.93656  -0.90038  -0.82686  -0.82142
 Alpha  occ. eigenvalues --   -0.81759  -0.80790  -0.78888  -0.78334  -0.78065
 Alpha  occ. eigenvalues --   -0.76867  -0.75725  -0.74484  -0.73419  -0.71868
 Alpha  occ. eigenvalues --   -0.71249  -0.69921  -0.69430  -0.67996  -0.67357
 Alpha  occ. eigenvalues --   -0.66656  -0.65166  -0.64412  -0.63217  -0.62513
 Alpha  occ. eigenvalues --   -0.60514  -0.58815  -0.58289  -0.57721  -0.57266
 Alpha  occ. eigenvalues --   -0.56382  -0.55562  -0.55019  -0.53241  -0.52274
 Alpha  occ. eigenvalues --   -0.52077  -0.51868  -0.51348  -0.50977  -0.50296
 Alpha  occ. eigenvalues --   -0.49501  -0.49352  -0.48820  -0.47738  -0.47451
 Alpha  occ. eigenvalues --   -0.47134  -0.46349  -0.45638  -0.45385  -0.45130
 Alpha  occ. eigenvalues --   -0.44958  -0.44265  -0.44068  -0.43875  -0.43612
 Alpha  occ. eigenvalues --   -0.43444  -0.42982  -0.42741  -0.42586  -0.42202
 Alpha  occ. eigenvalues --   -0.41818  -0.41537  -0.41380  -0.40696  -0.40566
 Alpha  occ. eigenvalues --   -0.40364  -0.40024  -0.39973  -0.39459  -0.39171
 Alpha  occ. eigenvalues --   -0.39110  -0.38771  -0.38453  -0.38347  -0.37955
 Alpha  occ. eigenvalues --   -0.37903  -0.37716  -0.37560  -0.37115  -0.36972
 Alpha  occ. eigenvalues --   -0.36771  -0.36656  -0.35970  -0.35430  -0.35011
 Alpha  occ. eigenvalues --   -0.34608  -0.34261  -0.34005  -0.33396  -0.32506
 Alpha  occ. eigenvalues --   -0.32304  -0.32154  -0.31304  -0.29512  -0.29398
 Alpha  occ. eigenvalues --   -0.28376  -0.27285  -0.26930  -0.25787  -0.25484
 Alpha  occ. eigenvalues --   -0.25060  -0.24703  -0.22856  -0.21851  -0.20935
 Alpha  occ. eigenvalues --   -0.17482
 Alpha virt. eigenvalues --   -0.10345  -0.05924  -0.03822  -0.01227  -0.00358
 Alpha virt. eigenvalues --    0.00364   0.01851   0.03040   0.03693   0.04319
 Alpha virt. eigenvalues --    0.04530   0.04685   0.05508   0.05610   0.05990

 Mulliken charges:
               1
     1  O   -0.203241
     2  O   -0.086476
     3  O   -0.306539
     4  O   -0.213684
     5  O   -0.162794
     6  O   -0.217770
     7  N   -0.028396
     8  N   -0.028952
     9  N   -0.163991
    10  N   -0.336936
    11  C   -0.090755
    12  C    0.062562
    13  C   -0.146061
    14  C    0.097011
    15  C   -0.087163
    16  C    0.031120
    17  C   -0.105665
    18  C   -0.192023
    19  C    0.191468
    20  C   -0.033843
    21  C    0.135627
    22  C    0.029990
    23  C    0.050513
    24  C    0.085926
    25  C   -0.098775
    26  C   -0.037107
    27  C    0.115277
    28  C    0.160862
    29  C    0.017568
    30  C    0.226334
    31  C   -0.125343
    32  C    0.081150
    33  C   -0.249195
    34  C    0.108566
    35  C   -0.118025
    36  C   -0.209019
    37  C    0.080727
    38  C    0.048866
    39  C    0.140046
    40  C    0.055790
    41  C    0.152142
    42  C    0.072306
    43  C    0.012085
    44  H    0.081050
    45  H    0.089108
    46  H    0.005147
    47  H   -0.055986
    48  H    0.032938
    49  H   -0.006675
    50  H    0.016749
    51  H   -0.008541
    52  H    0.151894
    53  H    0.051048
    54  H    0.056244
    55  H    0.014546
    56  H    0.128165
    57  H   -0.043777
    58  H   -0.038760
    59  H    0.033264
    60  H    0.026210
    61  H   -0.013386
    62  H   -0.019819
    63  H    0.031699
    64  H    0.000991
    65  H    0.017588
    66  H    0.024724
    67  H   -0.012955
    68  H    0.006451
    69  H    0.099807
    70  H    0.016547
    71  H    0.052958
    72  H    0.007306
    73  H    0.024049
    74  H    0.017251
    75  H    0.009510
    76  H    0.050927
    77  H    0.007553
    78  H    0.016874
    79  H    0.025084
    80  H    0.143367
    81  H    0.246668
 Sum of Mulliken charges =  -0.00000

 Dipole moment (field-independent basis, Debye):
    X=             -3.3921    Y=             -0.9814    Z=             -0.6000  Tot=              3.5818
 Quadrupole moment (field-independent basis, Debye-Ang):
   XX=           -240.5906   YY=           -239.1913   ZZ=           -255.0563
   XY=             15.5127   XZ=             12.5477   YZ=            -10.8946

 Normal termination of Gaussian 16 at Mon Jul  1 11:06:13 2019.
