 Gaussian 16, Revision A.03,
 Gaussian 16:  ES64L-G16RevA.03 25-Dec-2016

 --------------------------
 # td=(NStates=1) B3LYP/SVP
 --------------------------

 --
 TD
 --
 Symbolic Z-matrix:
 Charge =  0 Multiplicity = 1

                         Standard orientation:
 ---------------------------------------------------------------------
 Center     Atomic      Atomic             Coordinates (Angstroms)
 Number     Number       Type             X           Y           Z
 ---------------------------------------------------------------------
      1          8           0        4.177795   -4.833680   -1.877053
      2          8           0       -2.919882   -4.884911   -0.953385
      3          8           0       -7.023903   -1.510803   -1.909901
      4          8           0       -3.653647   -3.073066    0.135042
      5          8           0       -7.489754   -0.596259    0.001751
      6          8           0        3.036999    2.423748    0.544885
      7          7           0        0.355243   -0.533025    0.497568
      8          7           0       -1.518957    1.767116    0.393818
      9          7           0        3.282643   -3.172260   -0.631627
     10          7           0        0.777349    2.792788    0.104109
     11          6           0       -0.645222   -2.368850    1.519978
     12          6           0       -0.904354   -1.055200    0.990781
     13          6           0        0.814072   -2.518264    1.390526
     14          6           0        1.256661   -1.453940    0.722104
     15          6           0       -3.789748    1.461364    0.237241
     16          6           0       -2.530782    0.915809    0.513882
     17          6           0       -2.199172   -0.471866    0.922186
     18          6           0       -3.519523    2.839872   -0.090500
     19          6           0       -1.621386   -3.380059    2.084038
     20          6           0        5.492641   -2.785142   -1.448536
     21          6           0        3.576256   -1.831564   -0.197700
     22          6           0       -2.045740    2.977880   -0.060954
     23          6           0        5.030541   -1.571084   -0.560590
     24          6           0       -5.133610    0.781700    0.300596
     25          6           0        2.664917   -0.994466    0.324604
     26          6           0        1.525067   -3.771131    1.826688
     27          6           0        4.288323   -3.755260   -1.410373
     28          6           0       -2.050087   -4.522461    1.199008
     29          6           0       -5.317653   -0.154096   -0.902539
     30          6           0       -4.591034    3.821155   -0.618612
     31          6           0       -1.287849    4.067917   -0.335943
     32          6           0        6.782956   -3.399222   -1.038839
     33          6           0        5.757276   -0.538120   -0.190829
     34          6           0        0.094090    3.894650   -0.250101
     35          6           0        1.026842    5.099427   -0.517421
     36          6           0        2.254922    4.674592   -0.201488
     37          6           0       -2.896737   -4.019779    0.030008
     38          6           0        5.483134    0.675270    0.515753
     39          6           0       -6.702498   -0.713696   -0.941984
     40          6           0        3.602445    5.293726   -0.159061
     41          6           0        2.187595    3.184375    0.158137
     42          6           0        0.582367    6.494840   -0.924276
     43          6           0        4.190398    5.637140    1.201598
     44          1           0        0.265397    0.381666    0.051580
     45          1           0       -2.956811   -1.256571    1.043809
     46          1           0       -2.248745   -2.673685    2.683226
     47          1           0       -1.109076   -3.880410    2.948605
     48          1           0        5.525268   -2.317530   -2.297638
     49          1           0       -5.268736    0.197800    1.236976
     50          1           0       -6.029966    1.627449    0.333303
     51          1           0        2.808218    0.030800    0.458497
     52          1           0       -0.335094    1.804494    0.859875
     53          1           0        1.396938   -4.534856    1.061648
     54          1           0        2.512222   -3.639064    1.925509
     55          1           0        1.041709   -4.290723    2.727034
     56          1           0        2.232019   -3.361463   -0.716444
     57          1           0       -1.238311   -5.005277    0.678472
     58          1           0       -2.648647   -5.388425    1.652480
     59          1           0       -4.796213   -1.058706   -0.882495
     60          1           0       -5.064553    0.346065   -1.829305
     61          1           0       -4.453008    4.889099   -0.068605
     62          1           0       -5.604186    3.602493   -0.027626
     63          1           0       -4.655102    4.006363   -1.624299
     64          1           0       -1.743352    5.017936   -0.616870
     65          1           0        7.740446   -2.903214   -1.161111
     66          1           0        6.971257   -4.261607   -1.669853
     67          1           0        6.724659   -3.660591    0.104350
     68          1           0        6.817430   -0.603893   -0.575075
     69          1           0        4.711528    1.459888   -0.019071
     70          1           0        6.336809    1.296105    0.936654
     71          1           0        4.955505    0.595360    1.495112
     72          1           0        3.617596    6.201806   -0.930930
     73          1           0        4.331065    4.853184   -0.874061
     74          1           0       -0.147968    6.437004   -1.739958
     75          1           0        1.637478    6.933838   -0.959088
     76          1           0        0.084547    6.783950    0.006896
     77          1           0        3.494665    6.301698    1.695181
     78          1           0        4.944316    6.314096    1.350015
     79          1           0        4.393800    4.819930    1.848414
     80          1           0       -3.696492   -4.773288   -1.661464
     81          1           0       -8.092081   -1.567367   -2.045826
 ---------------------------------------------------------------------

 SCF Done:  E(RB3LYP) =  -1949.10099931     A.U. after   16 cycles

 Excitation energies and oscillator strengths:

 Excited State   1:      Singlet-A      1.8792 eV  659.78 nm  f=0.3237  <S**2>=0.000
     155 ->157        -0.10791
     156 ->157         0.70132
     156 <-157        -0.12448
 This state for optimization and/or second-order correction.
 Total Energy, E(TD-HF/TD-DFT) =  -1949.03194057
 Copying the excited state density for this state as the 1-particle RhoCI density.

 The electronic state is 1-A.
 Alpha  occ. eigenvalues --  -19.20681 -19.18525 -19.13716 -19.11473 -19.11035
 Alpha  occ. eigenvalues --  -19.10307 -14.37191 -14.36144 -14.34782 -14.29925
 Alpha  occ. eigenvalues --  -10.33262 -10.30745 -10.29008 -10.27379 -10.23289
 Alpha  occ. eigenvalues --  -10.22902 -10.22805 -10.22793 -10.22548 -10.22535
 Alpha  occ. eigenvalues --  -10.22419 -10.21429 -10.21286 -10.20761 -10.20752
 Alpha  occ. eigenvalues --  -10.20428 -10.20242 -10.20230 -10.20146 -10.20026
 Alpha  occ. eigenvalues --  -10.19785 -10.19504 -10.19418 -10.19226 -10.18813
 Alpha  occ. eigenvalues --  -10.18788 -10.18679 -10.18662 -10.18640 -10.17962
 Alpha  occ. eigenvalues --  -10.17807 -10.17556 -10.16804  -1.11286  -1.09711
 Alpha  occ. eigenvalues --   -1.04874  -1.02928  -1.01714  -0.98407  -0.97712
 Alpha  occ. eigenvalues --   -0.96642  -0.93108  -0.90750  -0.82321  -0.81248
 Alpha  occ. eigenvalues --   -0.80959  -0.80198  -0.79810  -0.78505  -0.77732
 Alpha  occ. eigenvalues --   -0.76532  -0.76330  -0.75528  -0.73741  -0.71816
 Alpha  occ. eigenvalues --   -0.70685  -0.69686  -0.69421  -0.68525  -0.66972
 Alpha  occ. eigenvalues --   -0.66387  -0.64638  -0.63935  -0.63065  -0.62127
 Alpha  occ. eigenvalues --   -0.60165  -0.59397  -0.58562  -0.58049  -0.57469
 Alpha  occ. eigenvalues --   -0.55629  -0.54335  -0.54206  -0.52731  -0.52169
 Alpha  occ. eigenvalues --   -0.51740  -0.51414  -0.50128  -0.49893  -0.49646
 Alpha  occ. eigenvalues --   -0.49390  -0.48779  -0.48454  -0.47827  -0.47166
 Alpha  occ. eigenvalues --   -0.46670  -0.46142  -0.46058  -0.45589  -0.44884
 Alpha  occ. eigenvalues --   -0.44558  -0.44267  -0.44088  -0.43914  -0.43651
 Alpha  occ. eigenvalues --   -0.43391  -0.42995  -0.42842  -0.42676  -0.42227
 Alpha  occ. eigenvalues --   -0.41870  -0.41631  -0.41491  -0.41131  -0.40937
 Alpha  occ. eigenvalues --   -0.40842  -0.40728  -0.40265  -0.39928  -0.39612
 Alpha  occ. eigenvalues --   -0.39361  -0.39121  -0.39083  -0.38643  -0.37905
 Alpha  occ. eigenvalues --   -0.37477  -0.37288  -0.37027  -0.36849  -0.36458
 Alpha  occ. eigenvalues --   -0.36010  -0.35388  -0.34581  -0.34127  -0.33916
 Alpha  occ. eigenvalues --   -0.33726  -0.33616  -0.33253  -0.33149  -0.32810
 Alpha  occ. eigenvalues --   -0.31283  -0.30696  -0.30611  -0.29302  -0.29078
 Alpha  occ. eigenvalues --   -0.28120  -0.26504  -0.26237  -0.25930  -0.25109
 Alpha  occ. eigenvalues --   -0.24810  -0.24553  -0.24242  -0.23498  -0.21584
 Alpha  occ. eigenvalues --   -0.17381
 Alpha virt. eigenvalues --   -0.09994  -0.05026  -0.02599  -0.01623   0.00199
 Alpha virt. eigenvalues --    0.01208   0.01266   0.02711   0.02992   0.03680
 Alpha virt. eigenvalues --    0.04217   0.04564   0.04868   0.05610   0.06366

 Mulliken charges:
               1
     1  O   -0.162708
     2  O   -0.199800
     3  O   -0.203461
     4  O   -0.230275
     5  O   -0.272043
     6  O   -0.188310
     7  N   -0.056739
     8  N   -0.208707
     9  N   -0.185997
    10  N   -0.352689
    11  C   -0.164521
    12  C    0.021523
    13  C   -0.180765
    14  C    0.031131
    15  C   -0.068208
    16  C    0.068004
    17  C   -0.065786
    18  C   -0.132931
    19  C    0.117268
    20  C    0.050122
    21  C    0.119823
    22  C    0.150976
    23  C   -0.022477
    24  C    0.069859
    25  C   -0.080514
    26  C    0.167762
    27  C    0.119455
    28  C    0.053502
    29  C    0.059958
    30  C    0.045964
    31  C   -0.185867
    32  C    0.045605
    33  C   -0.137702
    34  C    0.125090
    35  C   -0.159186
    36  C   -0.162860
    37  C    0.121389
    38  C   -0.002526
    39  C    0.087851
    40  C    0.014112
    41  C    0.191599
    42  C    0.135188
    43  C    0.096254
    44  H    0.143172
    45  H    0.020401
    46  H    0.032967
    47  H   -0.001113
    48  H   -0.019682
    49  H    0.026274
    50  H    0.038224
    51  H   -0.023978
    52  H    0.251834
    53  H    0.004583
    54  H   -0.008123
    55  H    0.011044
    56  H    0.159273
    57  H    0.020171
    58  H    0.064395
    59  H    0.024604
    60  H    0.018232
    61  H    0.015037
    62  H    0.033906
    63  H    0.027314
    64  H   -0.033601
    65  H    0.009489
    66  H    0.016188
    67  H    0.029634
    68  H   -0.012387
    69  H    0.095071
    70  H    0.004550
    71  H    0.020748
    72  H   -0.014810
    73  H    0.010997
    74  H    0.039897
    75  H    0.038558
    76  H    0.031412
    77  H   -0.018641
    78  H   -0.023986
    79  H    0.021611
    80  H    0.236444
    81  H    0.241923
 Sum of Mulliken charges =  -0.00000

 Dipole moment (field-independent basis, Debye):
    X=             -2.8933    Y=              0.3932    Z=             -2.0125  Tot=              3.5463
 Quadrupole moment (field-independent basis, Debye-Ang):
   XX=           -248.9125   YY=           -234.0948   ZZ=           -249.1661
   XY=             21.4713   XZ=             20.9512   YZ=             -8.6898

 Normal termination of Gaussian 16 at Sat Jun 29 19:48:52 2019.
