 Gaussian 16, Revision A.03,
 Gaussian 16:  ES64L-G16RevA.03 25-Dec-2016

 --------------------------
 # td=(NStates=1) B3LYP/SVP
 --------------------------

 --
 TD
 --
 Symbolic Z-matrix:
 Charge =  0 Multiplicity = 1

                         Standard orientation:
 ---------------------------------------------------------------------
 Center     Atomic      Atomic             Coordinates (Angstroms)
 Number     Number       Type             X           Y           Z
 ---------------------------------------------------------------------
      1          8           0        4.259888   -4.788410   -1.846401
      2          8           0       -2.992013   -4.932021   -0.954283
      3          8           0       -6.903653   -1.645990   -1.945508
      4          8           0       -3.759730   -3.194159    0.150096
      5          8           0       -7.616193   -0.570029   -0.179643
      6          8           0        3.035752    2.519613    0.349463
      7          7           0        0.284253   -0.527320    0.530714
      8          7           0       -1.619582    1.761143    0.446450
      9          7           0        3.358641   -3.187539   -0.645924
     10          7           0        0.671132    2.911286   -0.101750
     11          6           0       -0.449320   -2.407750    1.396764
     12          6           0       -0.845746   -1.099285    0.975032
     13          6           0        0.881964   -2.582892    1.169166
     14          6           0        1.425810   -1.415373    0.743142
     15          6           0       -3.796069    1.421514    0.269899
     16          6           0       -2.553487    0.798411    0.585477
     17          6           0       -2.194313   -0.545046    0.891273
     18          6           0       -3.551829    2.681554   -0.100290
     19          6           0       -1.432389   -3.382382    2.055923
     20          6           0        5.639333   -2.756298   -1.410426
     21          6           0        3.656019   -1.804114   -0.303412
     22          6           0       -2.194540    2.982463   -0.057530
     23          6           0        5.085261   -1.514136   -0.601795
     24          6           0       -5.160788    0.697996    0.342977
     25          6           0        2.646037   -1.001611    0.241096
     26          6           0        1.656227   -3.730744    1.744967
     27          6           0        4.437510   -3.707984   -1.440501
     28          6           0       -2.059128   -4.554602    1.191458
     29          6           0       -5.432809   -0.164874   -0.788075
     30          6           0       -4.589631    3.805203   -0.400833
     31          6           0       -1.402055    4.126535   -0.336541
     32          6           0        6.916224   -3.297582   -0.739102
     33          6           0        5.841464   -0.431589   -0.269700
     34          6           0        0.068057    4.083379   -0.294733
     35          6           0        0.989255    5.242346   -0.406348
     36          6           0        2.212511    4.761183   -0.179786
     37          6           0       -2.975631   -4.090082    0.106742
     38          6           0        5.274566    0.773766    0.466843
     39          6           0       -6.732245   -0.814298   -0.897197
     40          6           0        3.562829    5.285192   -0.163296
     41          6           0        2.030940    3.229893    0.030087
     42          6           0        0.518904    6.651508   -0.794773
     43          6           0        4.165137    5.369215    1.270478
     44          1           0        0.261766    0.375451    0.086646
     45          1           0       -3.010215   -1.187147    1.205407
     46          1           0       -2.286385   -2.803487    2.612237
     47          1           0       -0.748584   -3.875689    2.708482
     48          1           0        5.779423   -2.251895   -2.480037
     49          1           0       -5.217603    0.208058    1.384416
     50          1           0       -5.928295    1.426331    0.735647
     51          1           0        2.902617    0.054833    0.354275
     52          1           0       -0.604926    1.765283    0.615877
     53          1           0        1.371616   -4.556420    1.038776
     54          1           0        2.694098   -3.599316    1.919547
     55          1           0        1.320388   -4.003800    2.883349
     56          1           0        2.411617   -3.500456   -0.834280
     57          1           0       -1.180236   -5.186662    0.907509
     58          1           0       -2.881179   -5.167784    1.639673
     59          1           0       -4.669960   -0.970443   -0.691313
     60          1           0       -5.321415    0.510173   -1.728655
     61          1           0       -4.328114    4.745192    0.042951
     62          1           0       -5.511677    3.394800   -0.228881
     63          1           0       -4.588131    4.004687   -1.494614
     64          1           0       -2.076778    5.013548   -0.497099
     65          1           0        7.688515   -2.527728   -0.597855
     66          1           0        7.149509   -4.142128   -1.136183
     67          1           0        6.633696   -3.498021    0.411278
     68          1           0        6.925341   -0.510879   -0.503183
     69          1           0        4.524807    1.292362    0.128152
     70          1           0        6.180451    1.500126    0.897840
     71          1           0        4.651353    0.428033    1.440835
     72          1           0        3.541917    6.505796   -0.350562
     73          1           0        4.224733    4.740783   -0.902853
     74          1           0        0.183620    6.609865   -1.722632
     75          1           0        1.413076    7.153371   -0.917589
     76          1           0       -0.159651    7.117293   -0.151162
     77          1           0        3.564796    6.128309    1.755657
     78          1           0        5.197737    5.677755    1.298797
     79          1           0        4.327614    4.384700    1.708300
     80          1           0       -3.503895   -4.770751   -1.634380
     81          1           0       -7.813577   -1.956257   -1.882525
 ---------------------------------------------------------------------

 SCF Done:  E(RB3LYP) =  -1949.11206620     A.U. after   17 cycles

 Excitation energies and oscillator strengths:

 Excited State   1:      Singlet-A      1.6061 eV  771.98 nm  f=0.3189  <S**2>=0.000
     156 ->157         0.71453
     156 <-157        -0.14581
 This state for optimization and/or second-order correction.
 Total Energy, E(TD-HF/TD-DFT) =  -1949.05304479
 Copying the excited state density for this state as the 1-particle RhoCI density.

 The electronic state is 1-A.
 Alpha  occ. eigenvalues --  -19.17365 -19.17136 -19.13557 -19.11934 -19.11546
 Alpha  occ. eigenvalues --  -19.10850 -14.36911 -14.35602 -14.35402 -14.29829
 Alpha  occ. eigenvalues --  -10.33184 -10.30862 -10.29425 -10.27275 -10.24441
 Alpha  occ. eigenvalues --  -10.23915 -10.23705 -10.23304 -10.23179 -10.23011
 Alpha  occ. eigenvalues --  -10.22510 -10.22470 -10.21697 -10.21503 -10.20567
 Alpha  occ. eigenvalues --  -10.20449 -10.20426 -10.20405 -10.20380 -10.20174
 Alpha  occ. eigenvalues --  -10.20098 -10.19982 -10.19678 -10.19527 -10.19521
 Alpha  occ. eigenvalues --  -10.19518 -10.19079 -10.18977 -10.18660 -10.18485
 Alpha  occ. eigenvalues --  -10.17949 -10.17386 -10.17038  -1.11451  -1.10893
 Alpha  occ. eigenvalues --   -1.06307  -1.02528  -1.01479  -0.99429  -0.98219
 Alpha  occ. eigenvalues --   -0.97215  -0.92583  -0.92197  -0.82785  -0.82262
 Alpha  occ. eigenvalues --   -0.81160  -0.81010  -0.80200  -0.79517  -0.78089
 Alpha  occ. eigenvalues --   -0.77474  -0.75992  -0.75446  -0.73729  -0.71961
 Alpha  occ. eigenvalues --   -0.71444  -0.69998  -0.69717  -0.69475  -0.68470
 Alpha  occ. eigenvalues --   -0.67578  -0.65589  -0.64780  -0.63207  -0.62610
 Alpha  occ. eigenvalues --   -0.61222  -0.59519  -0.58779  -0.57180  -0.56760
 Alpha  occ. eigenvalues --   -0.55769  -0.55488  -0.54109  -0.53793  -0.52846
 Alpha  occ. eigenvalues --   -0.52337  -0.51796  -0.51177  -0.51066  -0.49871
 Alpha  occ. eigenvalues --   -0.49733  -0.49339  -0.48227  -0.48199  -0.47818
 Alpha  occ. eigenvalues --   -0.47311  -0.46722  -0.46492  -0.45849  -0.45502
 Alpha  occ. eigenvalues --   -0.45357  -0.44755  -0.44467  -0.44327  -0.44037
 Alpha  occ. eigenvalues --   -0.43765  -0.42958  -0.42762  -0.42540  -0.42067
 Alpha  occ. eigenvalues --   -0.41871  -0.41793  -0.41465  -0.41310  -0.41053
 Alpha  occ. eigenvalues --   -0.40772  -0.40709  -0.40325  -0.39979  -0.39890
 Alpha  occ. eigenvalues --   -0.39448  -0.39186  -0.39173  -0.38620  -0.38331
 Alpha  occ. eigenvalues --   -0.37854  -0.37485  -0.37246  -0.36989  -0.36610
 Alpha  occ. eigenvalues --   -0.36253  -0.36218  -0.35580  -0.34961  -0.34837
 Alpha  occ. eigenvalues --   -0.34626  -0.33908  -0.33499  -0.32977  -0.32587
 Alpha  occ. eigenvalues --   -0.32574  -0.31966  -0.31740  -0.29704  -0.29088
 Alpha  occ. eigenvalues --   -0.28671  -0.27780  -0.26694  -0.26603  -0.25907
 Alpha  occ. eigenvalues --   -0.25465  -0.25023  -0.24171  -0.23867  -0.21587
 Alpha  occ. eigenvalues --   -0.17376
 Alpha virt. eigenvalues --   -0.11092  -0.05899  -0.04150  -0.00180  -0.00003
 Alpha virt. eigenvalues --    0.01580   0.02461   0.03487   0.04037   0.04727
 Alpha virt. eigenvalues --    0.05131   0.05565   0.05971   0.06036   0.06847

 Mulliken charges:
               1
     1  O   -0.145105
     2  O   -0.139531
     3  O   -0.183997
     4  O   -0.202627
     5  O   -0.184365
     6  O   -0.265688
     7  N   -0.097861
     8  N   -0.123816
     9  N   -0.183480
    10  N   -0.289125
    11  C   -0.116064
    12  C    0.030259
    13  C   -0.177878
    14  C    0.151429
    15  C   -0.092911
    16  C    0.048882
    17  C   -0.014641
    18  C   -0.144083
    19  C    0.109963
    20  C   -0.102570
    21  C    0.078615
    22  C    0.057866
    23  C   -0.032936
    24  C    0.028407
    25  C   -0.088583
    26  C    0.051305
    27  C    0.118145
    28  C    0.013628
    29  C    0.071080
    30  C    0.180922
    31  C   -0.093207
    32  C    0.113932
    33  C   -0.109774
    34  C    0.082275
    35  C   -0.151723
    36  C   -0.130334
    37  C    0.108308
    38  C    0.049711
    39  C    0.082403
    40  C   -0.013714
    41  C    0.197300
    42  C    0.288517
    43  C    0.022980
    44  H    0.116316
    45  H    0.000633
    46  H    0.038171
    47  H   -0.016114
    48  H    0.069467
    49  H    0.009668
    50  H    0.008892
    51  H   -0.008005
    52  H    0.133793
    53  H    0.028772
    54  H    0.024095
    55  H    0.043189
    56  H    0.138314
    57  H    0.038223
    58  H    0.054645
    59  H    0.056393
    60  H    0.051016
    61  H    0.022625
    62  H   -0.018745
    63  H    0.008404
    64  H   -0.019832
    65  H    0.028233
    66  H   -0.012632
    67  H    0.024616
    68  H   -0.003495
    69  H    0.011409
    70  H    0.022108
    71  H    0.029872
    72  H    0.008526
    73  H    0.036179
    74  H   -0.030839
    75  H   -0.035627
    76  H    0.012295
    77  H    0.013267
    78  H   -0.008055
    79  H    0.026236
    80  H    0.124901
    81  H    0.171179
 Sum of Mulliken charges =  -0.00000

 Dipole moment (field-independent basis, Debye):
    X=             -1.4507    Y=              0.2552    Z=             -0.4716  Tot=              1.5466
 Quadrupole moment (field-independent basis, Debye-Ang):
   XX=           -248.2125   YY=           -239.0248   ZZ=           -253.0112
   XY=              9.6634   XZ=             10.1312   YZ=            -10.7237

 Normal termination of Gaussian 16 at Sat Jun 29 02:08:56 2019.
