 Gaussian 16, Revision A.03,
 Gaussian 16:  ES64L-G16RevA.03 25-Dec-2016

 --------------------------
 # td=(NStates=1) B3LYP/SVP
 --------------------------

 --
 TD
 --
 Symbolic Z-matrix:
 Charge =  0 Multiplicity = 1

                         Standard orientation:
 ---------------------------------------------------------------------
 Center     Atomic      Atomic             Coordinates (Angstroms)
 Number     Number       Type             X           Y           Z
 ---------------------------------------------------------------------
      1          8           0        4.348823   -4.903638   -1.772545
      2          8           0       -2.894553   -4.819641   -0.938856
      3          8           0       -7.026571   -1.700363   -1.836637
      4          8           0       -3.882174   -3.209922    0.179429
      5          8           0       -7.645485   -0.530334   -0.031821
      6          8           0        3.033461    2.301856    0.253278
      7          7           0        0.329760   -0.540905    0.438929
      8          7           0       -1.524088    1.841645    0.221114
      9          7           0        3.321110   -3.128436   -0.646662
     10          7           0        0.803601    2.868262    0.034051
     11          6           0       -0.599805   -2.296618    1.402587
     12          6           0       -0.878544   -1.052774    0.918686
     13          6           0        0.716687   -2.530633    1.268149
     14          6           0        1.337934   -1.364091    0.710130
     15          6           0       -3.845283    1.550615    0.370857
     16          6           0       -2.521662    0.909073    0.450145
     17          6           0       -2.171041   -0.418601    0.729196
     18          6           0       -3.621550    2.813684   -0.083160
     19          6           0       -1.597232   -3.205429    2.180786
     20          6           0        5.563608   -2.780780   -1.351829
     21          6           0        3.570514   -1.839021   -0.229017
     22          6           0       -2.179828    3.037549   -0.030201
     23          6           0        5.056844   -1.602727   -0.578227
     24          6           0       -5.239569    0.796677    0.334131
     25          6           0        2.631222   -0.921998    0.266850
     26          6           0        1.435206   -3.718606    1.935399
     27          6           0        4.342642   -3.761390   -1.294346
     28          6           0       -2.080160   -4.401467    1.166416
     29          6           0       -5.466978   -0.032144   -0.920905
     30          6           0       -4.576088    3.856269   -0.601864
     31          6           0       -1.320489    4.082135   -0.368893
     32          6           0        6.844382   -3.480976   -0.955026
     33          6           0        5.794777   -0.543740   -0.215223
     34          6           0        0.129339    3.981140   -0.233834
     35          6           0        1.094625    5.055660   -0.464962
     36          6           0        2.335387    4.598272   -0.160732
     37          6           0       -3.029947   -4.063001    0.107326
     38          6           0        5.370754    0.687761    0.557558
     39          6           0       -6.861928   -0.783844   -0.898229
     40          6           0        3.750265    5.220814   -0.093174
     41          6           0        2.217744    3.198525    0.068872
     42          6           0        0.721710    6.507068   -0.735274
     43          6           0        4.339107    5.434203    1.259405
     44          1           0        0.452440    0.424609   -0.008747
     45          1           0       -2.989860   -1.233622    0.690690
     46          1           0       -2.674781   -2.586252    2.490457
     47          1           0       -1.198351   -3.785686    2.933339
     48          1           0        5.747150   -2.313582   -2.293624
     49          1           0       -5.477549    0.290122    1.223587
     50          1           0       -5.982535    1.748294    0.465291
     51          1           0        2.905525   -0.041139    0.303756
     52          1           0       -0.478566    1.601986    0.681380
     53          1           0        1.179813   -4.665561    1.140667
     54          1           0        2.534667   -3.531539    2.104597
     55          1           0        1.286683   -4.004213    2.822966
     56          1           0        2.546975   -3.826120   -0.330609
     57          1           0       -1.100885   -4.897194    0.869068
     58          1           0       -2.506707   -5.329102    1.714346
     59          1           0       -4.857280   -0.942791   -0.893779
     60          1           0       -5.136012    0.587464   -1.886461
     61          1           0       -4.818672    4.837453    0.066112
     62          1           0       -5.633348    3.351957   -0.785609
     63          1           0       -4.165989    4.368906   -1.664780
     64          1           0       -1.773431    5.032489   -0.756179
     65          1           0        7.716279   -2.874028   -1.070260
     66          1           0        6.887853   -4.406725   -1.642048
     67          1           0        6.781476   -3.893438    0.051726
     68          1           0        6.713516   -0.283138   -0.785601
     69          1           0        4.911237    1.718725   -0.104319
     70          1           0        6.222068    1.102429    1.228814
     71          1           0        4.466184    0.369513    1.085707
     72          1           0        3.821079    6.215127   -0.689731
     73          1           0        4.478654    4.576355   -0.580371
     74          1           0        0.127379    6.522262   -1.651394
     75          1           0        1.853616    6.993926   -1.013764
     76          1           0        0.293998    6.900886    0.293684
     77          1           0        3.660760    6.143314    2.127892
     78          1           0        5.372104    5.750756    1.419445
     79          1           0        4.476032    4.541602    1.713958
     80          1           0       -3.290862   -4.454217   -1.731805
     81          1           0       -7.907211   -1.987104   -1.762784
 ---------------------------------------------------------------------

 SCF Done:  E(RB3LYP) =  -1949.03246960     A.U. after   17 cycles

 Excitation energies and oscillator strengths:

 Excited State   1:      Singlet-A      1.6399 eV  756.03 nm  f=0.2163  <S**2>=0.000
     156 ->157         0.70538
     156 <-157        -0.11169
 This state for optimization and/or second-order correction.
 Total Energy, E(TD-HF/TD-DFT) =  -1948.97220295
 Copying the excited state density for this state as the 1-particle RhoCI density.

 The electronic state is 1-A.
 Alpha  occ. eigenvalues --  -19.19436 -19.19297 -19.13426 -19.12691 -19.11505
 Alpha  occ. eigenvalues --  -19.10883 -14.38032 -14.37885 -14.36261 -14.28779
 Alpha  occ. eigenvalues --  -10.33067 -10.32469 -10.29033 -10.26743 -10.24902
 Alpha  occ. eigenvalues --  -10.24343 -10.23214 -10.23151 -10.23111 -10.22917
 Alpha  occ. eigenvalues --  -10.22684 -10.22435 -10.22124 -10.21796 -10.21627
 Alpha  occ. eigenvalues --  -10.21612 -10.21332 -10.21253 -10.21146 -10.20807
 Alpha  occ. eigenvalues --  -10.20724 -10.20216 -10.19767 -10.19625 -10.19560
 Alpha  occ. eigenvalues --  -10.19420 -10.19138 -10.19046 -10.18970 -10.18469
 Alpha  occ. eigenvalues --  -10.18217 -10.18156 -10.17621  -1.12720  -1.12071
 Alpha  occ. eigenvalues --   -1.02377  -1.02230  -1.02157  -1.02119  -0.99411
 Alpha  occ. eigenvalues --   -0.97166  -0.95128  -0.91980  -0.82394  -0.81559
 Alpha  occ. eigenvalues --   -0.81183  -0.80613  -0.79549  -0.78437  -0.77793
 Alpha  occ. eigenvalues --   -0.76597  -0.75862  -0.75386  -0.73642  -0.72278
 Alpha  occ. eigenvalues --   -0.70744  -0.69625  -0.69212  -0.68725  -0.67512
 Alpha  occ. eigenvalues --   -0.67289  -0.64718  -0.63620  -0.62241  -0.62207
 Alpha  occ. eigenvalues --   -0.61558  -0.60615  -0.59284  -0.57798  -0.57381
 Alpha  occ. eigenvalues --   -0.56189  -0.55974  -0.54812  -0.53735  -0.52909
 Alpha  occ. eigenvalues --   -0.52063  -0.51820  -0.50661  -0.49798  -0.49588
 Alpha  occ. eigenvalues --   -0.49336  -0.48968  -0.48851  -0.48530  -0.47858
 Alpha  occ. eigenvalues --   -0.47580  -0.46676  -0.46513  -0.45408  -0.45366
 Alpha  occ. eigenvalues --   -0.44887  -0.44822  -0.44398  -0.43636  -0.43327
 Alpha  occ. eigenvalues --   -0.43199  -0.42900  -0.42543  -0.42351  -0.42034
 Alpha  occ. eigenvalues --   -0.41740  -0.41658  -0.41418  -0.41036  -0.40887
 Alpha  occ. eigenvalues --   -0.40328  -0.39774  -0.39450  -0.39244  -0.39070
 Alpha  occ. eigenvalues --   -0.38873  -0.38610  -0.38533  -0.38125  -0.38000
 Alpha  occ. eigenvalues --   -0.37854  -0.37514  -0.37401  -0.37090  -0.36743
 Alpha  occ. eigenvalues --   -0.36229  -0.36058  -0.35267  -0.34279  -0.34112
 Alpha  occ. eigenvalues --   -0.33812  -0.33534  -0.33407  -0.33381  -0.33015
 Alpha  occ. eigenvalues --   -0.32802  -0.32431  -0.31166  -0.29676  -0.29254
 Alpha  occ. eigenvalues --   -0.28124  -0.27384  -0.26752  -0.26560  -0.25756
 Alpha  occ. eigenvalues --   -0.25488  -0.24655  -0.24286  -0.23620  -0.21395
 Alpha  occ. eigenvalues --   -0.17559
 Alpha virt. eigenvalues --   -0.10696  -0.06450  -0.04097  -0.01322  -0.00073
 Alpha virt. eigenvalues --    0.00822   0.01713   0.02494   0.02982   0.03630
 Alpha virt. eigenvalues --    0.03903   0.04115   0.04691   0.05748   0.06208

 Mulliken charges:
               1
     1  O   -0.238369
     2  O   -0.130642
     3  O   -0.125063
     4  O   -0.230501
     5  O   -0.213481
     6  O   -0.200255
     7  N   -0.095546
     8  N   -0.173322
     9  N   -0.123223
    10  N   -0.322509
    11  C   -0.047155
    12  C    0.010950
    13  C   -0.162201
    14  C    0.104641
    15  C   -0.078756
    16  C    0.053301
    17  C   -0.108839
    18  C   -0.065799
    19  C    0.118893
    20  C   -0.041412
    21  C    0.069234
    22  C    0.143876
    23  C   -0.002180
    24  C    0.090912
    25  C    0.103436
    26  C    0.057206
    27  C    0.123496
    28  C   -0.077050
    29  C   -0.033090
    30  C   -0.052677
    31  C   -0.145620
    32  C    0.066039
    33  C   -0.161590
    34  C    0.090653
    35  C   -0.153923
    36  C   -0.109811
    37  C    0.130950
    38  C   -0.042865
    39  C    0.121321
    40  C    0.096394
    41  C    0.159617
    42  C    0.030966
    43  C   -0.013106
    44  H    0.159859
    45  H    0.053334
    46  H    0.063145
    47  H   -0.019258
    48  H    0.027321
    49  H    0.001634
    50  H    0.025417
    51  H   -0.186664
    52  H    0.219094
    53  H    0.043142
    54  H    0.030855
    55  H   -0.037301
    56  H    0.165746
    57  H    0.025297
    58  H    0.053824
    59  H    0.040028
    60  H    0.060300
    61  H    0.056930
    62  H    0.045598
    63  H    0.051239
    64  H   -0.018204
    65  H    0.010727
    66  H    0.040396
    67  H    0.003486
    68  H    0.001455
    69  H    0.097437
    70  H    0.020593
    71  H    0.023353
    72  H    0.005267
    73  H    0.008482
    74  H    0.038441
    75  H    0.041678
    76  H    0.074936
    77  H    0.014733
    78  H    0.005023
    79  H   -0.012415
    80  H    0.184726
    81  H    0.157448
 Sum of Mulliken charges =  -0.00000

 Dipole moment (field-independent basis, Debye):
    X=             -2.8460    Y=              0.9264    Z=             -0.6332  Tot=              3.0592
 Quadrupole moment (field-independent basis, Debye-Ang):
   XX=           -255.5713   YY=           -243.4370   ZZ=           -251.9685
   XY=             17.8178   XZ=             18.6459   YZ=            -14.2060

 Normal termination of Gaussian 16 at Sat Jun 29 14:18:43 2019.
