 Gaussian 16, Revision A.03,
 Gaussian 16:  ES64L-G16RevA.03 25-Dec-2016

 --------------------------
 # td=(NStates=1) B3LYP/SVP
 --------------------------

 --
 TD
 --
 Symbolic Z-matrix:
 Charge =  0 Multiplicity = 1

                         Standard orientation:
 ---------------------------------------------------------------------
 Center     Atomic      Atomic             Coordinates (Angstroms)
 Number     Number       Type             X           Y           Z
 ---------------------------------------------------------------------
      1          8           0        4.258819   -4.954559   -1.816663
      2          8           0       -3.137109   -5.129442   -1.001880
      3          8           0       -7.057137   -1.176149   -1.961813
      4          8           0       -3.800768   -3.048187   -0.157901
      5          8           0       -7.605872   -0.662686    0.222072
      6          8           0        3.087751    2.385953    0.587101
      7          7           0        0.266041   -0.526997    0.697099
      8          7           0       -1.528464    1.852611    0.343478
      9          7           0        3.282896   -3.292739   -0.690636
     10          7           0        0.851641    2.901348    0.137662
     11          6           0       -0.695152   -2.324155    1.448080
     12          6           0       -0.945613   -1.044762    1.000393
     13          6           0        0.639027   -2.645523    1.373741
     14          6           0        1.300487   -1.508430    0.849030
     15          6           0       -3.749344    1.655308    0.216758
     16          6           0       -2.437653    0.955202    0.490091
     17          6           0       -2.212898   -0.442526    0.793554
     18          6           0       -3.502770    2.887702   -0.193723
     19          6           0       -1.803159   -3.220049    1.988944
     20          6           0        5.494044   -2.824281   -1.435029
     21          6           0        3.568998   -1.948142   -0.208737
     22          6           0       -2.043359    3.085723   -0.143143
     23          6           0        4.977409   -1.666052   -0.599704
     24          6           0       -5.136887    0.891725    0.429320
     25          6           0        2.686443   -1.222108    0.543925
     26          6           0        1.377549   -3.816181    1.911043
     27          6           0        4.281996   -3.832596   -1.382539
     28          6           0       -2.170658   -4.468138    0.992056
     29          6           0       -5.444570    0.162499   -0.845471
     30          6           0       -4.457396    3.942917   -0.624207
     31          6           0       -1.148309    4.154259   -0.421252
     32          6           0        6.703069   -3.438484   -0.957072
     33          6           0        5.755989   -0.506874   -0.323118
     34          6           0        0.279835    4.044523   -0.243053
     35          6           0        1.282340    5.147022   -0.505248
     36          6           0        2.427054    4.575077   -0.149004
     37          6           0       -3.162926   -4.032910   -0.094230
     38          6           0        5.562422    0.571728    0.591432
     39          6           0       -6.800863   -0.639261   -0.680111
     40          6           0        3.853336    5.197097   -0.229361
     41          6           0        2.249662    3.101384    0.251753
     42          6           0        0.735349    6.477317   -0.954214
     43          6           0        4.237978    5.511416    1.302715
     44          1           0        0.470751    0.207759    0.138084
     45          1           0       -3.173732   -0.868700    1.102153
     46          1           0       -2.648801   -2.644802    2.326043
     47          1           0       -1.396820   -3.712266    2.950173
     48          1           0        5.583426   -2.594908   -2.511587
     49          1           0       -5.010822    0.065922    1.281019
     50          1           0       -5.879223    1.506144    0.967168
     51          1           0        2.824243   -0.181116    0.624358
     52          1           0       -0.333873    1.938655    0.229504
     53          1           0        1.045641   -4.758352    1.169777
     54          1           0        2.448763   -3.683550    2.083255
     55          1           0        0.940720   -4.153118    2.776620
     56          1           0        2.449823   -3.760195   -0.540972
     57          1           0       -1.213243   -4.953500    0.602195
     58          1           0       -2.582497   -5.298523    1.568603
     59          1           0       -4.557069   -0.650198   -1.036455
     60          1           0       -5.806597    0.857026   -1.677771
     61          1           0       -4.464462    4.835283   -0.183938
     62          1           0       -5.521795    3.518904   -0.384136
     63          1           0       -4.323981    3.899167   -1.817518
     64          1           0       -1.725094    5.082174   -0.614344
     65          1           0        7.715589   -2.859041   -1.035735
     66          1           0        7.017186   -4.469738   -1.447695
     67          1           0        6.816233   -3.688636    0.210313
     68          1           0        6.951150   -0.535017   -0.720371
     69          1           0        4.941253    1.467616    0.002315
     70          1           0        6.320609    1.138790    0.802626
     71          1           0        5.012585    0.448803    1.644396
     72          1           0        3.921726    6.050867   -1.093313
     73          1           0        4.584828    4.296020   -0.516066
     74          1           0        0.524774    6.441549   -2.126019
     75          1           0        1.536956    7.255753   -0.893279
     76          1           0       -0.157041    6.983558   -0.450058
     77          1           0        3.337806    6.060488    1.778664
     78          1           0        5.115199    6.153460    1.212358
     79          1           0        4.703183    4.530172    1.700484
     80          1           0       -3.835092   -4.928626   -1.844010
     81          1           0       -7.911163   -1.539383   -1.819079
 ---------------------------------------------------------------------

 SCF Done:  E(RB3LYP) =  -1949.08434857     A.U. after   16 cycles

 Excitation energies and oscillator strengths:

 Excited State   1:      Singlet-A      1.6726 eV  741.28 nm  f=0.3000  <S**2>=0.000
     156 ->157         0.71005
     156 <-157        -0.13613
 This state for optimization and/or second-order correction.
 Total Energy, E(TD-HF/TD-DFT) =  -1949.02288279
 Copying the excited state density for this state as the 1-particle RhoCI density.

 The electronic state is 1-A.
 Alpha  occ. eigenvalues --  -19.18713 -19.17310 -19.15610 -19.14294 -19.12535
 Alpha  occ. eigenvalues --  -19.09755 -14.36723 -14.36537 -14.34242 -14.30373
 Alpha  occ. eigenvalues --  -10.33521 -10.32530 -10.28061 -10.28050 -10.25232
 Alpha  occ. eigenvalues --  -10.23755 -10.23747 -10.23170 -10.22881 -10.22550
 Alpha  occ. eigenvalues --  -10.22422 -10.22084 -10.22067 -10.21424 -10.21390
 Alpha  occ. eigenvalues --  -10.21371 -10.21120 -10.21059 -10.20992 -10.20483
 Alpha  occ. eigenvalues --  -10.20442 -10.20296 -10.20279 -10.20177 -10.19838
 Alpha  occ. eigenvalues --  -10.19835 -10.19686 -10.19661 -10.19282 -10.19024
 Alpha  occ. eigenvalues --  -10.18948 -10.18670 -10.18289  -1.09493  -1.08787
 Alpha  occ. eigenvalues --   -1.06889  -1.03672  -1.01001  -1.00527  -0.98425
 Alpha  occ. eigenvalues --   -0.97138  -0.94574  -0.92937  -0.81970  -0.81659
 Alpha  occ. eigenvalues --   -0.81369  -0.80625  -0.79433  -0.78802  -0.76948
 Alpha  occ. eigenvalues --   -0.76682  -0.76059  -0.75120  -0.73987  -0.72023
 Alpha  occ. eigenvalues --   -0.70696  -0.69975  -0.68869  -0.68014  -0.67180
 Alpha  occ. eigenvalues --   -0.66037  -0.65024  -0.64296  -0.62038  -0.60466
 Alpha  occ. eigenvalues --   -0.59492  -0.58674  -0.58140  -0.57049  -0.56756
 Alpha  occ. eigenvalues --   -0.55552  -0.54716  -0.54454  -0.53582  -0.53207
 Alpha  occ. eigenvalues --   -0.52359  -0.51553  -0.50876  -0.49737  -0.49082
 Alpha  occ. eigenvalues --   -0.48868  -0.48351  -0.47968  -0.47815  -0.47480
 Alpha  occ. eigenvalues --   -0.47210  -0.46940  -0.46300  -0.45596  -0.45337
 Alpha  occ. eigenvalues --   -0.44726  -0.44508  -0.44113  -0.43976  -0.43700
 Alpha  occ. eigenvalues --   -0.43462  -0.43245  -0.42666  -0.42521  -0.42064
 Alpha  occ. eigenvalues --   -0.41787  -0.41467  -0.41313  -0.41177  -0.41012
 Alpha  occ. eigenvalues --   -0.40788  -0.40742  -0.40454  -0.40320  -0.39433
 Alpha  occ. eigenvalues --   -0.39273  -0.38868  -0.38694  -0.38444  -0.38267
 Alpha  occ. eigenvalues --   -0.38004  -0.37713  -0.37292  -0.36597  -0.36030
 Alpha  occ. eigenvalues --   -0.35842  -0.35329  -0.35087  -0.34875  -0.34504
 Alpha  occ. eigenvalues --   -0.34102  -0.33592  -0.33568  -0.33399  -0.33220
 Alpha  occ. eigenvalues --   -0.32946  -0.32526  -0.32118  -0.30444  -0.29384
 Alpha  occ. eigenvalues --   -0.29151  -0.28803  -0.26417  -0.25850  -0.25304
 Alpha  occ. eigenvalues --   -0.25143  -0.24981  -0.24775  -0.23874  -0.21810
 Alpha  occ. eigenvalues --   -0.17144
 Alpha virt. eigenvalues --   -0.10523  -0.05568  -0.04379  -0.01120  -0.00400
 Alpha virt. eigenvalues --    0.01072   0.01214   0.02680   0.03027   0.03520
 Alpha virt. eigenvalues --    0.03988   0.04578   0.05134   0.05542   0.06097

 Mulliken charges:
               1
     1  O   -0.205883
     2  O   -0.311353
     3  O   -0.207535
     4  O   -0.161891
     5  O   -0.211893
     6  O   -0.121649
     7  N   -0.041898
     8  N   -0.151734
     9  N   -0.065207
    10  N   -0.333495
    11  C   -0.092552
    12  C    0.106506
    13  C   -0.137299
    14  C    0.003144
    15  C   -0.073062
    16  C   -0.013183
    17  C   -0.034081
    18  C   -0.110738
    19  C    0.082881
    20  C    0.012409
    21  C    0.146272
    22  C    0.023158
    23  C   -0.024863
    24  C    0.026430
    25  C   -0.087472
    26  C    0.102208
    27  C    0.065957
    28  C   -0.027856
    29  C   -0.045614
    30  C    0.093001
    31  C   -0.086182
    32  C   -0.054885
    33  C   -0.154541
    34  C    0.071395
    35  C   -0.019409
    36  C   -0.234857
    37  C    0.190773
    38  C    0.071431
    39  C    0.156981
    40  C   -0.044088
    41  C    0.186675
    42  C    0.039855
    43  C   -0.022902
    44  H    0.090120
    45  H   -0.004826
    46  H    0.004574
    47  H    0.006456
    48  H    0.039232
    49  H    0.029292
    50  H    0.027258
    51  H   -0.009890
    52  H    0.221727
    53  H    0.024916
    54  H    0.043085
    55  H   -0.017790
    56  H    0.099693
    57  H    0.047726
    58  H    0.040317
    59  H    0.101737
    60  H    0.058579
    61  H    0.003058
    62  H    0.015409
    63  H    0.051291
    64  H   -0.021830
    65  H    0.019116
    66  H    0.042021
    67  H    0.020319
    68  H    0.033970
    69  H    0.072202
    70  H   -0.052457
    71  H    0.054460
    72  H    0.039520
    73  H    0.027662
    74  H    0.040855
    75  H    0.010611
    76  H    0.050585
    77  H    0.050323
    78  H    0.008801
    79  H    0.051669
    80  H    0.229414
    81  H    0.147841
 Sum of Mulliken charges =  -0.00000

 Dipole moment (field-independent basis, Debye):
    X=             -2.0194    Y=              2.8230    Z=             -0.4313  Tot=              3.4976
 Quadrupole moment (field-independent basis, Debye-Ang):
   XX=           -250.1354   YY=           -243.6478   ZZ=           -256.0300
   XY=             17.8620   XZ=             13.5458   YZ=            -14.4282

 Normal termination of Gaussian 16 at Fri Jun 28 18:23:18 2019.
