 Gaussian 16, Revision A.03,
 Gaussian 16:  ES64L-G16RevA.03 25-Dec-2016

 --------------------------
 # td=(NStates=1) B3LYP/SVP
 --------------------------

 --
 TD
 --
 Symbolic Z-matrix:
 Charge =  0 Multiplicity = 1

                         Standard orientation:
 ---------------------------------------------------------------------
 Center     Atomic      Atomic             Coordinates (Angstroms)
 Number     Number       Type             X           Y           Z
 ---------------------------------------------------------------------
      1          8           0       -4.179172   -4.745396    1.995135
      2          8           0        3.083689   -4.877670    1.143552
      3          8           0        7.136800   -1.470492    1.736358
      4          8           0        3.826691   -3.062569   -0.052438
      5          8           0        7.709324   -0.187968    0.027618
      6          8           0       -3.076555    2.231085   -0.409768
      7          7           0       -0.331535   -0.446440   -0.658548
      8          7           0        1.582179    1.851332   -0.481255
      9          7           0       -3.281841   -2.978930    0.658319
     10          7           0       -0.791274    2.872336   -0.097443
     11          6           0        0.622712   -2.456255   -1.285141
     12          6           0        0.854608   -1.036794   -1.009679
     13          6           0       -0.771166   -2.612921   -1.177809
     14          6           0       -1.316197   -1.384464   -0.699556
     15          6           0        3.753254    1.489431   -0.265095
     16          6           0        2.491315    0.853535   -0.650691
     17          6           0        2.176650   -0.489612   -1.082001
     18          6           0        3.562203    2.832736    0.041854
     19          6           0        1.596084   -3.341388   -1.957267
     20          6           0       -5.460943   -2.781608    1.307998
     21          6           0       -3.623036   -1.739568    0.067631
     22          6           0        2.083484    3.059704    0.012524
     23          6           0       -4.994948   -1.623692    0.418115
     24          6           0        5.009020    0.705613   -0.374495
     25          6           0       -2.616293   -0.942896   -0.430989
     26          6           0       -1.443099   -3.851133   -1.563745
     27          6           0       -4.325720   -3.683266    1.374847
     28          6           0        2.108421   -4.416922   -1.054913
     29          6           0        5.333476   -0.134674    0.718150
     30          6           0        4.552368    3.780213    0.572533
     31          6           0        1.233699    4.104642    0.335740
     32          6           0       -6.807811   -3.496145    0.902158
     33          6           0       -5.812527   -0.584556   -0.044062
     34          6           0       -0.115314    3.977986    0.203741
     35          6           0       -1.117383    5.060651    0.544875
     36          6           0       -2.404634    4.477304    0.349696
     37          6           0        3.070575   -3.984397    0.071718
     38          6           0       -5.424518    0.666346   -0.694296
     39          6           0        6.788781   -0.579085    0.803201
     40          6           0       -3.700792    5.095192    0.400181
     41          6           0       -2.167841    3.095361   -0.013155
     42          6           0       -0.828661    6.453435    0.792452
     43          6           0       -4.338828    5.329438   -1.106069
     44          1           0       -0.506152    0.498031   -0.233039
     45          1           0        3.109276   -1.256101   -1.194286
     46          1           0        2.497595   -2.657522   -2.172389
     47          1           0        1.240300   -3.625195   -2.983255
     48          1           0       -5.747828   -2.363248    2.409311
     49          1           0        5.142308   -0.086291   -1.151142
     50          1           0        5.924418    1.350822   -0.279135
     51          1           0       -2.953566    0.097250   -0.397159
     52          1           0        0.517540    1.765066   -0.406193
     53          1           0       -1.229783   -4.818728   -0.804866
     54          1           0       -2.497428   -3.773232   -1.855594
     55          1           0       -0.823513   -4.258759   -2.487110
     56          1           0       -2.443337   -3.449225    0.697849
     57          1           0        1.272832   -4.952193   -0.603041
     58          1           0        2.773382   -5.169224   -1.585779
     59          1           0        4.990100   -1.107364    0.724869
     60          1           0        5.133501    0.389405    1.766678
     61          1           0        4.357892    5.001061    0.446713
     62          1           0        5.622506    3.572715    0.011606
     63          1           0        4.587938    3.759986    1.789785
     64          1           0        1.645387    5.076235    0.576353
     65          1           0       -7.649750   -2.702471    0.926667
     66          1           0       -6.882782   -4.319114    1.376128
     67          1           0       -6.797025   -4.121800   -0.122295
     68          1           0       -6.899986   -0.652728    0.116169
     69          1           0       -4.914356    1.329125   -0.017857
     70          1           0       -6.494869    1.408627   -1.107660
     71          1           0       -4.802875    0.480432   -1.733661
     72          1           0       -3.642232    6.175726    0.817898
     73          1           0       -4.524319    4.622836    0.956253
     74          1           0       -0.486929    6.648681    2.077606
     75          1           0       -1.793443    7.046742    0.977552
     76          1           0       -0.073322    6.985718    0.069949
     77          1           0       -3.583167    5.794998   -1.746208
     78          1           0       -5.393400    5.926637   -1.246347
     79          1           0       -4.505739    4.135569   -1.616251
     80          1           0        3.758112   -4.401883    1.751174
     81          1           0        8.022153   -1.587849    1.728816
 ---------------------------------------------------------------------

 SCF Done:  E(RB3LYP) =  -1949.04370050     A.U. after   25 cycles

 Excitation energies and oscillator strengths:

 Excited State   1:      Singlet-A      1.5318 eV  809.40 nm  f=0.2876  <S**2>=0.000
     156 ->157         0.71302
     156 <-157        -0.14645
 This state for optimization and/or second-order correction.
 Total Energy, E(TD-HF/TD-DFT) =  -1948.98740759
 Copying the excited state density for this state as the 1-particle RhoCI density.

 The electronic state is 1-A.
 Alpha  occ. eigenvalues --  -19.20564 -19.18266 -19.16062 -19.11943 -19.11700
 Alpha  occ. eigenvalues --  -19.09610 -14.38728 -14.36291 -14.35879 -14.29013
 Alpha  occ. eigenvalues --  -10.34666 -10.32166 -10.29750 -10.26392 -10.24872
 Alpha  occ. eigenvalues --  -10.24358 -10.24349 -10.24280 -10.23614 -10.23229
 Alpha  occ. eigenvalues --  -10.22869 -10.22734 -10.22407 -10.22358 -10.22137
 Alpha  occ. eigenvalues --  -10.22073 -10.21975 -10.21161 -10.20947 -10.20823
 Alpha  occ. eigenvalues --  -10.20741 -10.20643 -10.20487 -10.20482 -10.20424
 Alpha  occ. eigenvalues --  -10.20235 -10.20198 -10.19896 -10.19742 -10.19437
 Alpha  occ. eigenvalues --  -10.19063 -10.18931 -10.18598  -1.11058  -1.10978
 Alpha  occ. eigenvalues --   -1.02958  -1.02656  -0.99555  -0.98067  -0.97542
 Alpha  occ. eigenvalues --   -0.96787  -0.95046  -0.91009  -0.83981  -0.83466
 Alpha  occ. eigenvalues --   -0.81794  -0.81346  -0.79882  -0.79263  -0.78814
 Alpha  occ. eigenvalues --   -0.78213  -0.77254  -0.75155  -0.73921  -0.72362
 Alpha  occ. eigenvalues --   -0.70972  -0.70749  -0.69123  -0.68496  -0.67835
 Alpha  occ. eigenvalues --   -0.67179  -0.65778  -0.64156  -0.62041  -0.61547
 Alpha  occ. eigenvalues --   -0.60306  -0.59966  -0.59594  -0.57485  -0.57231
 Alpha  occ. eigenvalues --   -0.56254  -0.55428  -0.55181  -0.53912  -0.52815
 Alpha  occ. eigenvalues --   -0.52578  -0.52260  -0.51776  -0.51374  -0.50324
 Alpha  occ. eigenvalues --   -0.50162  -0.49734  -0.49237  -0.47968  -0.47787
 Alpha  occ. eigenvalues --   -0.47483  -0.46881  -0.46210  -0.45696  -0.45384
 Alpha  occ. eigenvalues --   -0.44820  -0.44756  -0.44583  -0.44241  -0.43944
 Alpha  occ. eigenvalues --   -0.43750  -0.43152  -0.42785  -0.42556  -0.42467
 Alpha  occ. eigenvalues --   -0.42247  -0.41766  -0.41668  -0.41015  -0.40810
 Alpha  occ. eigenvalues --   -0.40693  -0.40327  -0.40180  -0.40100  -0.39623
 Alpha  occ. eigenvalues --   -0.39533  -0.39193  -0.38775  -0.38519  -0.38360
 Alpha  occ. eigenvalues --   -0.37671  -0.37305  -0.36851  -0.36336  -0.36169
 Alpha  occ. eigenvalues --   -0.35623  -0.35394  -0.35114  -0.34902  -0.34817
 Alpha  occ. eigenvalues --   -0.34429  -0.34136  -0.33381  -0.33304  -0.32470
 Alpha  occ. eigenvalues --   -0.31356  -0.31298  -0.31289  -0.30816  -0.29750
 Alpha  occ. eigenvalues --   -0.27070  -0.26918  -0.26797  -0.26282  -0.26020
 Alpha  occ. eigenvalues --   -0.25236  -0.24869  -0.23941  -0.22667  -0.21795
 Alpha  occ. eigenvalues --   -0.17489
 Alpha virt. eigenvalues --   -0.11362  -0.07024  -0.05226  -0.02270  -0.02075
 Alpha virt. eigenvalues --   -0.00424   0.01249   0.02141   0.02600   0.02859
 Alpha virt. eigenvalues --    0.03553   0.03838   0.04493   0.04666   0.05405

 Mulliken charges:
               1
     1  O   -0.231674
     2  O   -0.225726
     3  O   -0.117263
     4  O   -0.203522
     5  O   -0.291238
     6  O   -0.317984
     7  N   -0.063246
     8  N   -0.122643
     9  N   -0.173729
    10  N   -0.312366
    11  C   -0.116403
    12  C    0.070835
    13  C   -0.119530
    14  C    0.130336
    15  C   -0.059396
    16  C    0.054583
    17  C   -0.093852
    18  C   -0.054888
    19  C    0.064908
    20  C   -0.074037
    21  C    0.121734
    22  C    0.100151
    23  C   -0.017282
    24  C    0.106756
    25  C   -0.127693
    26  C   -0.009136
    27  C    0.157633
    28  C    0.043259
    29  C    0.015108
    30  C   -0.081674
    31  C   -0.095901
    32  C    0.076729
    33  C   -0.117181
    34  C    0.096624
    35  C   -0.062299
    36  C   -0.079131
    37  C    0.134662
    38  C   -0.032597
    39  C    0.089023
    40  C    0.041607
    41  C    0.196412
    42  C   -0.034064
    43  C   -0.133367
    44  H    0.163632
    45  H    0.084683
    46  H    0.014121
    47  H    0.039784
    48  H    0.079173
    49  H    0.020128
    50  H    0.012938
    51  H    0.007088
    52  H    0.149121
    53  H    0.054502
    54  H    0.042217
    55  H    0.020945
    56  H    0.100362
    57  H    0.024929
    58  H    0.055477
    59  H    0.003150
    60  H    0.044658
    61  H    0.040013
    62  H    0.064753
    63  H    0.056162
    64  H   -0.030737
    65  H    0.050181
    66  H   -0.026956
    67  H    0.010167
    68  H    0.002665
    69  H    0.083727
    70  H    0.014518
    71  H    0.072014
    72  H    0.003731
    73  H    0.022790
    74  H    0.029604
    75  H    0.024000
    76  H    0.066665
    77  H    0.021250
    78  H    0.039435
    79  H    0.057659
    80  H    0.207444
    81  H    0.141469
 Sum of Mulliken charges =  -0.00000

 Dipole moment (field-independent basis, Debye):
    X=              1.1372    Y=             -0.8298    Z=              0.9822  Tot=              1.7165
 Quadrupole moment (field-independent basis, Debye-Ang):
   XX=           -256.3233   YY=           -243.7237   ZZ=           -256.6117
   XY=            -13.9644   XZ=             13.4623   YZ=             18.0487

 Normal termination of Gaussian 16 at Tue Jul  2 03:10:48 2019.
