 Gaussian 16, Revision A.03,
 Gaussian 16:  ES64L-G16RevA.03 25-Dec-2016

 --------------------------
 # td=(NStates=1) B3LYP/SVP
 --------------------------

 --
 TD
 --
 Symbolic Z-matrix:
 Charge =  0 Multiplicity = 1

                         Standard orientation:
 ---------------------------------------------------------------------
 Center     Atomic      Atomic             Coordinates (Angstroms)
 Number     Number       Type             X           Y           Z
 ---------------------------------------------------------------------
      1          8           0        4.610782   -4.795756   -1.699709
      2          8           0       -2.872568   -4.958087   -1.158394
      3          8           0       -6.882562   -1.657548   -1.824285
      4          8           0       -3.758906   -3.309625    0.080015
      5          8           0       -7.589014   -0.837105    0.222217
      6          8           0        2.963617    2.536255    0.274794
      7          7           0        0.338246   -0.578090    0.484678
      8          7           0       -1.606731    1.818692    0.268149
      9          7           0        3.383868   -3.126182   -0.652407
     10          7           0        0.778759    2.955614   -0.030754
     11          6           0       -0.531348   -2.407285    1.425127
     12          6           0       -0.894691   -1.098260    0.934805
     13          6           0        0.848025   -2.619605    1.267328
     14          6           0        1.416630   -1.455933    0.689627
     15          6           0       -3.847401    1.414396    0.240769
     16          6           0       -2.468583    0.773343    0.456877
     17          6           0       -2.214172   -0.492670    0.873869
     18          6           0       -3.605207    2.715581   -0.131781
     19          6           0       -1.480902   -3.378738    1.979746
     20          6           0        5.602463   -2.670366   -1.364915
     21          6           0        3.668220   -1.780964   -0.270309
     22          6           0       -2.198727    2.894325   -0.127331
     23          6           0        5.017176   -1.499263   -0.535605
     24          6           0       -5.098429    0.694725    0.377835
     25          6           0        2.683439   -1.008484    0.392763
     26          6           0        1.606811   -3.640060    1.853804
     27          6           0        4.605380   -3.695397   -1.234217
     28          6           0       -1.882525   -4.560066    1.092121
     29          6           0       -5.451734   -0.216965   -0.839771
     30          6           0       -4.608370    3.671093   -0.742063
     31          6           0       -1.445504    3.998797   -0.411627
     32          6           0        6.960572   -3.180684   -0.959244
     33          6           0        5.790011   -0.455724   -0.058011
     34          6           0       -0.034463    4.028368   -0.304731
     35          6           0        0.801943    5.165514   -0.438716
     36          6           0        2.106204    4.790792   -0.256285
     37          6           0       -2.891843   -4.146591   -0.058767
     38          6           0        5.499255    0.811172    0.700777
     39          6           0       -6.776673   -0.923946   -0.673207
     40          6           0        3.433413    5.455922   -0.210717
     41          6           0        2.062173    3.334476   -0.019218
     42          6           0        0.395554    6.602004   -0.660774
     43          6           0        3.939629    5.702809    1.244669
     44          1           0        0.428793    0.233970   -0.205644
     45          1           0       -2.925030   -1.185520    1.330623
     46          1           0       -2.399032   -2.911182    2.298577
     47          1           0       -1.194533   -3.710595    3.027764
     48          1           0        5.484681   -2.368077   -2.466000
     49          1           0       -5.076013   -0.082654    1.361002
     50          1           0       -5.929155    1.445422    0.700386
     51          1           0        2.805480    0.068490    0.600255
     52          1           0       -0.526337    1.722109    0.612295
     53          1           0        1.898318   -4.560721    1.174081
     54          1           0        2.575613   -3.139207    2.112952
     55          1           0        0.931340   -3.956301    2.601851
     56          1           0        2.569830   -3.597484   -0.597203
     57          1           0       -0.817986   -5.013022    0.672476
     58          1           0       -2.705947   -5.295241    1.599100
     59          1           0       -4.567325   -0.825986   -0.887156
     60          1           0       -5.545601    0.368019   -1.724246
     61          1           0       -4.649345    4.582255   -0.015138
     62          1           0       -5.619528    3.316873   -0.795111
     63          1           0       -4.139742    4.044036   -1.670307
     64          1           0       -1.952546    5.032480   -0.438448
     65          1           0        7.589423   -2.336896   -1.067463
     66          1           0        7.305932   -4.053523   -1.651683
     67          1           0        6.979295   -3.560087    0.013088
     68          1           0        6.939824   -0.489923   -0.271434
     69          1           0        4.651673    1.563738   -0.099664
     70          1           0        6.365007    1.335723    1.049909
     71          1           0        4.808627    0.711756    1.655682
     72          1           0        3.353365    6.304464   -0.811582
     73          1           0        4.171150    4.721477   -0.746444
     74          1           0       -0.120394    6.656132   -1.556949
     75          1           0        1.271153    7.386180   -0.669990
     76          1           0       -0.456144    6.837559    0.166288
     77          1           0        3.100939    6.299977    1.696478
     78          1           0        4.898053    6.126044    1.608809
     79          1           0        3.891066    4.733579    1.867214
     80          1           0       -3.664492   -4.646936   -1.746362
     81          1           0       -7.798165   -2.006129   -1.769739
 ---------------------------------------------------------------------

 SCF Done:  E(RB3LYP) =  -1949.13895982     A.U. after   19 cycles

 Excitation energies and oscillator strengths:

 Excited State   1:      Singlet-A      1.5719 eV  788.74 nm  f=0.2288  <S**2>=0.000
     156 ->157         0.70721
     156 <-157        -0.11172
 This state for optimization and/or second-order correction.
 Total Energy, E(TD-HF/TD-DFT) =  -1949.08119280
 Copying the excited state density for this state as the 1-particle RhoCI density.

 The electronic state is 1-A.
 Alpha  occ. eigenvalues --  -19.19465 -19.18855 -19.14086 -19.14063 -19.11456
 Alpha  occ. eigenvalues --  -19.09315 -14.37224 -14.36821 -14.35826 -14.27246
 Alpha  occ. eigenvalues --  -10.33580 -10.32716 -10.29080 -10.24705 -10.24698
 Alpha  occ. eigenvalues --  -10.24590 -10.23485 -10.23376 -10.23326 -10.22481
 Alpha  occ. eigenvalues --  -10.22408 -10.21742 -10.21556 -10.21548 -10.21130
 Alpha  occ. eigenvalues --  -10.20831 -10.20717 -10.20600 -10.20268 -10.20220
 Alpha  occ. eigenvalues --  -10.20184 -10.19970 -10.19690 -10.19636 -10.19206
 Alpha  occ. eigenvalues --  -10.19198 -10.19086 -10.18929 -10.18887 -10.18425
 Alpha  occ. eigenvalues --  -10.18299 -10.18176 -10.17944  -1.09785  -1.09709
 Alpha  occ. eigenvalues --   -1.04637  -1.01603  -1.00869  -1.00316  -0.99915
 Alpha  occ. eigenvalues --   -0.96260  -0.94226  -0.91462  -0.82756  -0.82499
 Alpha  occ. eigenvalues --   -0.82311  -0.81822  -0.79536  -0.78916  -0.77632
 Alpha  occ. eigenvalues --   -0.77566  -0.76534  -0.75073  -0.73955  -0.72117
 Alpha  occ. eigenvalues --   -0.71305  -0.70610  -0.68632  -0.67830  -0.67364
 Alpha  occ. eigenvalues --   -0.67290  -0.66155  -0.64429  -0.62564  -0.61373
 Alpha  occ. eigenvalues --   -0.59828  -0.59404  -0.58941  -0.57066  -0.56362
 Alpha  occ. eigenvalues --   -0.56176  -0.54886  -0.54162  -0.53621  -0.52897
 Alpha  occ. eigenvalues --   -0.52114  -0.51246  -0.50794  -0.50393  -0.49887
 Alpha  occ. eigenvalues --   -0.49483  -0.49054  -0.48881  -0.48597  -0.48493
 Alpha  occ. eigenvalues --   -0.47346  -0.46803  -0.46435  -0.46003  -0.45588
 Alpha  occ. eigenvalues --   -0.44563  -0.44477  -0.44013  -0.43870  -0.43395
 Alpha  occ. eigenvalues --   -0.43003  -0.42798  -0.42483  -0.42340  -0.41997
 Alpha  occ. eigenvalues --   -0.41796  -0.41661  -0.41268  -0.41228  -0.41081
 Alpha  occ. eigenvalues --   -0.40392  -0.40241  -0.39958  -0.39655  -0.39510
 Alpha  occ. eigenvalues --   -0.39440  -0.39121  -0.38968  -0.38501  -0.38252
 Alpha  occ. eigenvalues --   -0.38128  -0.37897  -0.37562  -0.37364  -0.36916
 Alpha  occ. eigenvalues --   -0.36515  -0.36460  -0.35883  -0.35127  -0.34346
 Alpha  occ. eigenvalues --   -0.33995  -0.33709  -0.33625  -0.33354  -0.33082
 Alpha  occ. eigenvalues --   -0.32625  -0.32377  -0.31788  -0.29945  -0.29346
 Alpha  occ. eigenvalues --   -0.29081  -0.26791  -0.25973  -0.25727  -0.25154
 Alpha  occ. eigenvalues --   -0.24788  -0.24514  -0.23519  -0.22556  -0.21226
 Alpha  occ. eigenvalues --   -0.17444
 Alpha virt. eigenvalues --   -0.10789  -0.06082  -0.04625  -0.01072  -0.00554
 Alpha virt. eigenvalues --   -0.00363   0.01591   0.02638   0.03263   0.03611
 Alpha virt. eigenvalues --    0.04221   0.05125   0.05189   0.05811   0.05978

 Mulliken charges:
               1
     1  O   -0.181048
     2  O   -0.219703
     3  O   -0.197113
     4  O   -0.238069
     5  O   -0.213446
     6  O   -0.243026
     7  N   -0.162661
     8  N   -0.063141
     9  N   -0.146679
    10  N   -0.277326
    11  C   -0.086573
    12  C    0.002121
    13  C   -0.144260
    14  C    0.116693
    15  C   -0.043720
    16  C    0.099711
    17  C   -0.027834
    18  C   -0.145867
    19  C    0.077999
    20  C   -0.024934
    21  C    0.126489
    22  C    0.114898
    23  C   -0.021053
    24  C   -0.051322
    25  C   -0.175252
    26  C    0.076944
    27  C    0.096092
    28  C   -0.035178
    29  C    0.040120
    30  C    0.113383
    31  C   -0.189133
    32  C    0.098367
    33  C   -0.152185
    34  C    0.094945
    35  C   -0.114572
    36  C   -0.207484
    37  C    0.133330
    38  C   -0.055117
    39  C    0.167690
    40  C    0.126082
    41  C    0.121714
    42  C    0.083934
    43  C   -0.026549
    44  H    0.163246
    45  H    0.005267
    46  H   -0.017132
    47  H    0.020776
    48  H    0.066447
    49  H    0.043896
    50  H    0.032291
    51  H    0.027998
    52  H    0.199347
    53  H    0.024569
    54  H    0.040194
    55  H   -0.001532
    56  H    0.088198
    57  H    0.065423
    58  H    0.074597
    59  H    0.046143
    60  H    0.023138
    61  H    0.023570
    62  H    0.015423
    63  H    0.034789
    64  H   -0.003955
    65  H    0.009266
    66  H    0.042830
    67  H    0.001470
    68  H    0.018309
    69  H    0.135582
    70  H    0.010959
    71  H    0.050162
    72  H   -0.024385
    73  H    0.023741
    74  H    0.000225
    75  H    0.042724
    76  H    0.031369
    77  H    0.003210
    78  H    0.023835
    79  H    0.025063
    80  H    0.213412
    81  H    0.172267
 Sum of Mulliken charges =  -0.00000

 Dipole moment (field-independent basis, Debye):
    X=             -2.7247    Y=              0.5146    Z=             -0.9203  Tot=              2.9216
 Quadrupole moment (field-independent basis, Debye-Ang):
   XX=           -243.9920   YY=           -248.2122   ZZ=           -252.3617
   XY=             10.5008   XZ=             15.8653   YZ=             -9.9338

 Normal termination of Gaussian 16 at Sat Jun 29 11:36:00 2019.
