 Gaussian 16, Revision A.03,
 Gaussian 16:  ES64L-G16RevA.03 25-Dec-2016

 --------------------------
 # td=(NStates=1) B3LYP/SVP
 --------------------------

 --
 TD
 --
 Symbolic Z-matrix:
 Charge =  0 Multiplicity = 1

                         Standard orientation:
 ---------------------------------------------------------------------
 Center     Atomic      Atomic             Coordinates (Angstroms)
 Number     Number       Type             X           Y           Z
 ---------------------------------------------------------------------
      1          8           0       -4.241454   -4.927035    1.985511
      2          8           0        2.697538   -4.802606    1.226017
      3          8           0        7.045211   -1.545508    1.878187
      4          8           0        3.813068   -3.110976    0.045302
      5          8           0        7.480105   -0.804025   -0.257174
      6          8           0       -3.006384    2.533289   -0.514152
      7          7           0       -0.296005   -0.389294   -0.660905
      8          7           0        1.613426    1.847981   -0.560662
      9          7           0       -3.296862   -3.213396    0.564662
     10          7           0       -0.739439    2.909467   -0.155831
     11          6           0        0.675295   -2.352490   -1.429362
     12          6           0        0.918650   -1.072864   -0.970572
     13          6           0       -0.663891   -2.616930   -1.201871
     14          6           0       -1.311963   -1.380500   -0.738641
     15          6           0        3.773367    1.569625   -0.248050
     16          6           0        2.530302    0.976039   -0.535033
     17          6           0        2.200087   -0.346418   -0.963611
     18          6           0        3.471212    2.887814    0.050387
     19          6           0        1.740320   -3.329420   -1.916097
     20          6           0       -5.567066   -2.742410    1.240124
     21          6           0       -3.639410   -1.985793    0.116511
     22          6           0        2.097288    3.068960   -0.106109
     23          6           0       -5.000130   -1.682034    0.424880
     24          6           0        5.082255    0.785063   -0.262085
     25          6           0       -2.692740   -1.104716   -0.460889
     26          6           0       -1.351272   -3.887483   -1.637271
     27          6           0       -4.328187   -3.828222    1.428971
     28          6           0        2.147717   -4.536666   -1.053142
     29          6           0        5.294609   -0.174213    1.015083
     30          6           0        4.419641    3.867597    0.501427
     31          6           0        1.242773    4.014495    0.345582
     32          6           0       -6.700222   -3.622813    0.642507
     33          6           0       -5.766525   -0.516215    0.197380
     34          6           0       -0.136721    4.080079    0.286786
     35          6           0       -1.065761    5.186232    0.522455
     36          6           0       -2.270471    4.682133    0.220205
     37          6           0        2.876703   -3.946117    0.081593
     38          6           0       -5.474902    0.641247   -0.626053
     39          6           0        6.627385   -0.817997    0.719810
     40          6           0       -3.600778    5.405935    0.346397
     41          6           0       -2.080115    3.212913   -0.177509
     42          6           0       -0.635090    6.518197    1.097764
     43          6           0       -4.198251    5.695476   -0.995423
     44          1           0       -0.422800    0.608399   -0.384949
     45          1           0        3.047962   -1.004922   -0.953231
     46          1           0        2.710879   -2.826156   -2.217862
     47          1           0        1.138790   -3.796800   -2.786397
     48          1           0       -5.806265   -2.441445    2.212369
     49          1           0        5.264871    0.124394   -1.308203
     50          1           0        6.047980    1.501130   -0.205505
     51          1           0       -3.011705    0.043946   -0.542454
     52          1           0        0.569189    1.781975   -0.580369
     53          1           0       -1.526741   -4.727124   -0.866326
     54          1           0       -2.386064   -3.619031   -2.011788
     55          1           0       -0.707234   -4.320130   -2.599005
     56          1           0       -2.206444   -3.446802    0.891173
     57          1           0        1.111582   -5.229000   -0.824942
     58          1           0        2.814201   -5.144395   -1.784971
     59          1           0        4.258831   -0.791795    1.557896
     60          1           0        5.660484    0.733615    1.776200
     61          1           0        4.167002    4.770507    0.017795
     62          1           0        5.380357    3.472834    0.048240
     63          1           0        4.347016    3.897367    1.489928
     64          1           0        1.717669    5.073548    0.597436
     65          1           0       -7.544326   -2.998842    0.484358
     66          1           0       -7.051890   -4.390580    1.426143
     67          1           0       -6.348972   -4.269803   -0.354621
     68          1           0       -6.854110   -0.654226    0.605205
     69          1           0       -4.698284    1.330229   -0.099344
     70          1           0       -6.332963    1.225199   -0.996445
     71          1           0       -4.680959    0.321908   -1.621317
     72          1           0       -3.578273    6.340989    0.907535
     73          1           0       -4.298093    4.651923    0.755746
     74          1           0       -0.541869    6.346259    2.257799
     75          1           0       -1.658996    7.257371    1.161638
     76          1           0        0.222288    6.821087    0.555225
     77          1           0       -3.739425    6.161167   -1.957309
     78          1           0       -4.932097    6.314745   -0.997596
     79          1           0       -4.340824    4.689002   -1.760504
     80          1           0        3.366431   -4.518373    1.792616
     81          1           0        7.885653   -2.007588    1.598581
 ---------------------------------------------------------------------

 SCF Done:  E(RB3LYP) =  -1948.97933088     A.U. after   19 cycles

 Excitation energies and oscillator strengths:

 Excited State   1:      Singlet-A      1.5783 eV  785.57 nm  f=0.3346  <S**2>=0.000
     156 ->157         0.71679
     156 <-157        -0.15240
 This state for optimization and/or second-order correction.
 Total Energy, E(TD-HF/TD-DFT) =  -1948.92133031
 Copying the excited state density for this state as the 1-particle RhoCI density.

 The electronic state is 1-A.
 Alpha  occ. eigenvalues --  -19.18658 -19.17069 -19.16171 -19.13926 -19.13690
 Alpha  occ. eigenvalues --  -19.09780 -14.38285 -14.38055 -14.35193 -14.28688
 Alpha  occ. eigenvalues --  -10.35009 -10.33738 -10.31382 -10.25873 -10.25228
 Alpha  occ. eigenvalues --  -10.24938 -10.24878 -10.24256 -10.23913 -10.23292
 Alpha  occ. eigenvalues --  -10.22581 -10.22398 -10.22390 -10.22248 -10.21822
 Alpha  occ. eigenvalues --  -10.21793 -10.21373 -10.21363 -10.21192 -10.20776
 Alpha  occ. eigenvalues --  -10.20488 -10.20364 -10.20294 -10.20117 -10.19924
 Alpha  occ. eigenvalues --  -10.19890 -10.19284 -10.19244 -10.19126 -10.18892
 Alpha  occ. eigenvalues --  -10.18302 -10.18129 -10.17530  -1.08993  -1.05585
 Alpha  occ. eigenvalues --   -1.03444  -1.02268  -1.01305  -1.00830  -0.96620
 Alpha  occ. eigenvalues --   -0.96446  -0.95510  -0.91392  -0.83198  -0.82841
 Alpha  occ. eigenvalues --   -0.81985  -0.81150  -0.79568  -0.79006  -0.78247
 Alpha  occ. eigenvalues --   -0.77342  -0.76156  -0.75396  -0.73838  -0.72872
 Alpha  occ. eigenvalues --   -0.71847  -0.69655  -0.68934  -0.68339  -0.67567
 Alpha  occ. eigenvalues --   -0.66672  -0.65391  -0.62801  -0.62361  -0.61487
 Alpha  occ. eigenvalues --   -0.60289  -0.58941  -0.57981  -0.57614  -0.56911
 Alpha  occ. eigenvalues --   -0.55380  -0.54267  -0.53908  -0.53143  -0.52530
 Alpha  occ. eigenvalues --   -0.52195  -0.51772  -0.51596  -0.49925  -0.49713
 Alpha  occ. eigenvalues --   -0.49129  -0.48680  -0.47757  -0.47580  -0.47125
 Alpha  occ. eigenvalues --   -0.46850  -0.46406  -0.46094  -0.45880  -0.45492
 Alpha  occ. eigenvalues --   -0.45188  -0.44736  -0.44443  -0.44227  -0.43874
 Alpha  occ. eigenvalues --   -0.43754  -0.43369  -0.42670  -0.42633  -0.42119
 Alpha  occ. eigenvalues --   -0.41639  -0.41180  -0.41113  -0.40517  -0.40468
 Alpha  occ. eigenvalues --   -0.40225  -0.39978  -0.39520  -0.39367  -0.39299
 Alpha  occ. eigenvalues --   -0.39023  -0.38867  -0.38470  -0.38400  -0.37829
 Alpha  occ. eigenvalues --   -0.37666  -0.37382  -0.37150  -0.37073  -0.36901
 Alpha  occ. eigenvalues --   -0.36729  -0.36233  -0.35843  -0.35492  -0.35415
 Alpha  occ. eigenvalues --   -0.34900  -0.34748  -0.33848  -0.33379  -0.33188
 Alpha  occ. eigenvalues --   -0.32967  -0.30868  -0.30805  -0.29642  -0.28969
 Alpha  occ. eigenvalues --   -0.28293  -0.28182  -0.27213  -0.26858  -0.25925
 Alpha  occ. eigenvalues --   -0.25292  -0.25099  -0.23878  -0.23084  -0.21440
 Alpha  occ. eigenvalues --   -0.17224
 Alpha virt. eigenvalues --   -0.11061  -0.06091  -0.05595  -0.04256  -0.03705
 Alpha virt. eigenvalues --   -0.02054   0.01452   0.01998   0.02650   0.03887
 Alpha virt. eigenvalues --    0.04056   0.04383   0.04606   0.05136   0.05243

 Mulliken charges:
               1
     1  O   -0.202669
     2  O   -0.198268
     3  O   -0.256258
     4  O   -0.252037
     5  O   -0.293255
     6  O   -0.205224
     7  N   -0.155446
     8  N   -0.004408
     9  N   -0.208820
    10  N   -0.357882
    11  C   -0.073155
    12  C    0.060298
    13  C   -0.154842
    14  C    0.094055
    15  C   -0.000375
    16  C   -0.010626
    17  C   -0.030910
    18  C   -0.184345
    19  C    0.019066
    20  C   -0.086660
    21  C    0.099216
    22  C    0.081708
    23  C   -0.018541
    24  C   -0.082911
    25  C   -0.163364
    26  C    0.000965
    27  C    0.169348
    28  C   -0.022315
    29  C   -0.086298
    30  C    0.214403
    31  C   -0.137764
    32  C    0.025043
    33  C   -0.099019
    34  C    0.059528
    35  C   -0.072077
    36  C   -0.195331
    37  C    0.208374
    38  C   -0.034986
    39  C    0.232942
    40  C    0.166515
    41  C    0.156390
    42  C    0.051491
    43  C   -0.048989
    44  H    0.149115
    45  H    0.001050
    46  H    0.042964
    47  H    0.022285
    48  H    0.024508
    49  H    0.075656
    50  H    0.043438
    51  H    0.057770
    52  H    0.129865
    53  H    0.044596
    54  H    0.040315
    55  H    0.033765
    56  H    0.198380
    57  H    0.073091
    58  H    0.083779
    59  H    0.128420
    60  H    0.077835
    61  H    0.003399
    62  H    0.019975
    63  H   -0.003795
    64  H   -0.017573
    65  H    0.005347
    66  H    0.038591
    67  H    0.049203
    68  H    0.016345
    69  H    0.103098
    70  H    0.029080
    71  H    0.058792
    72  H   -0.002058
    73  H    0.016553
    74  H    0.047150
    75  H    0.033609
    76  H    0.039006
    77  H   -0.003419
    78  H   -0.040093
    79  H    0.034566
    80  H    0.151763
    81  H    0.191060
 Sum of Mulliken charges =  -0.00000

 Dipole moment (field-independent basis, Debye):
    X=              0.4280    Y=              0.3321    Z=              1.3935  Tot=              1.4951
 Quadrupole moment (field-independent basis, Debye-Ang):
   XX=           -256.2939   YY=           -244.4833   ZZ=           -257.0064
   XY=             -9.8158   XZ=              7.7702   YZ=             15.8929

 Normal termination of Gaussian 16 at Wed Jul  3 20:45:26 2019.
