 Gaussian 16, Revision A.03,
 Gaussian 16:  ES64L-G16RevA.03 25-Dec-2016

 --------------------------
 # td=(NStates=1) B3LYP/SVP
 --------------------------

 --
 TD
 --
 Symbolic Z-matrix:
 Charge =  0 Multiplicity = 1

                         Standard orientation:
 ---------------------------------------------------------------------
 Center     Atomic      Atomic             Coordinates (Angstroms)
 Number     Number       Type             X           Y           Z
 ---------------------------------------------------------------------
      1          8           0        4.181704   -4.764884   -2.024437
      2          8           0       -2.871559   -4.919508   -1.130359
      3          8           0       -7.015975   -1.563094   -1.792797
      4          8           0       -3.761375   -3.193624    0.019613
      5          8           0       -7.642795   -0.367995   -0.074803
      6          8           0        3.085732    2.452676    0.343824
      7          7           0        0.303446   -0.541650    0.578704
      8          7           0       -1.568565    1.720195    0.348181
      9          7           0        3.284422   -3.115763   -0.652742
     10          7           0        0.805261    2.838196    0.127860
     11          6           0       -0.638411   -2.326883    1.523234
     12          6           0       -0.932206   -0.972442    1.026636
     13          6           0        0.805555   -2.633780    1.307305
     14          6           0        1.427192   -1.411767    0.788124
     15          6           0       -3.810772    1.509326    0.343769
     16          6           0       -2.447998    0.777854    0.524475
     17          6           0       -2.227917   -0.538422    0.847631
     18          6           0       -3.495639    2.839539   -0.019276
     19          6           0       -1.661701   -3.360547    2.057479
     20          6           0        5.446941   -2.687531   -1.422288
     21          6           0        3.623306   -1.882352   -0.146547
     22          6           0       -2.062749    2.940033   -0.049764
     23          6           0        5.078520   -1.641796   -0.450598
     24          6           0       -5.139576    0.849558    0.353980
     25          6           0        2.782780   -1.110705    0.443397
     26          6           0        1.529331   -3.774875    1.849188
     27          6           0        4.221025   -3.750644   -1.457391
     28          6           0       -2.061931   -4.542873    1.187550
     29          6           0       -5.390986   -0.153959   -0.894943
     30          6           0       -4.528216    3.889424   -0.566978
     31          6           0       -1.401593    4.073252   -0.376538
     32          6           0        6.800354   -3.353058   -1.132758
     33          6           0        5.876219   -0.639809   -0.057824
     34          6           0        0.191029    4.020498   -0.335531
     35          6           0        1.068972    5.131676   -0.518255
     36          6           0        2.339908    4.649252   -0.180311
     37          6           0       -2.880407   -4.065361    0.012709
     38          6           0        5.441973    0.627129    0.737498
     39          6           0       -6.702304   -0.771003   -0.799817
     40          6           0        3.566812    5.501962   -0.235247
     41          6           0        2.121943    3.178918    0.162802
     42          6           0        0.550196    6.439758   -0.901025
     43          6           0        4.183990    5.635728    1.180115
     44          1           0        0.519201    0.417690    0.302187
     45          1           0       -3.084392   -1.320478    1.095441
     46          1           0       -2.621534   -2.760930    2.497768
     47          1           0       -1.092395   -4.005975    2.900556
     48          1           0        5.436425   -2.240133   -2.556034
     49          1           0       -5.324768    0.246905    1.016306
     50          1           0       -6.006248    1.469541    0.352789
     51          1           0        3.157856   -0.151941    0.503680
     52          1           0       -0.582692    1.716461    0.563319
     53          1           0        1.241963   -4.797395    1.452274
     54          1           0        2.419095   -3.694670    1.997594
     55          1           0        1.060460   -4.216359    2.760959
     56          1           0        2.518624   -3.749832   -0.409739
     57          1           0       -1.036678   -5.111225    0.778416
     58          1           0       -2.744320   -5.213610    1.672724
     59          1           0       -4.615658   -0.867068   -0.957630
     60          1           0       -5.322669    0.416257   -1.816668
     61          1           0       -4.659977    4.875965   -0.010028
     62          1           0       -5.643139    3.605028   -0.732084
     63          1           0       -4.338602    4.124337   -1.646185
     64          1           0       -1.726198    4.990653   -0.532213
     65          1           0        7.645041   -2.569022   -1.176723
     66          1           0        7.098978   -4.227541   -1.898086
     67          1           0        6.807591   -3.677855    0.074528
     68          1           0        6.766454   -0.585320   -0.229973
     69          1           0        4.668059    1.130720    0.077137
     70          1           0        6.282049    1.345491    1.176360
     71          1           0        4.869929    0.341909    1.556707
     72          1           0        3.407687    6.553494   -0.477251
     73          1           0        4.263505    4.966933   -0.808636
     74          1           0        0.265435    6.544791   -1.912439
     75          1           0        1.361126    7.108830   -0.868133
     76          1           0       -0.043055    6.847262   -0.115567
     77          1           0        3.502184    6.392793    1.714906
     78          1           0        5.231580    6.031541    0.955353
     79          1           0        4.305007    4.579091    1.659828
     80          1           0       -3.727271   -4.798099   -1.537311
     81          1           0       -7.878280   -1.850246   -1.771285
 ---------------------------------------------------------------------

 SCF Done:  E(RB3LYP) =  -1948.99755253     A.U. after   16 cycles

 Excitation energies and oscillator strengths:

 Excited State   1:      Singlet-A      1.6355 eV  758.07 nm  f=0.2778  <S**2>=0.000
     156 ->157         0.71229
     156 <-157        -0.14307
 This state for optimization and/or second-order correction.
 Total Energy, E(TD-HF/TD-DFT) =  -1948.93744794
 Copying the excited state density for this state as the 1-particle RhoCI density.

 The electronic state is 1-A.
 Alpha  occ. eigenvalues --  -19.18004 -19.17786 -19.14968 -19.11814 -19.11334
 Alpha  occ. eigenvalues --  -19.10796 -14.37624 -14.36414 -14.36278 -14.29931
 Alpha  occ. eigenvalues --  -10.34080 -10.31798 -10.28807 -10.27127 -10.24538
 Alpha  occ. eigenvalues --  -10.24170 -10.24095 -10.23965 -10.23670 -10.23385
 Alpha  occ. eigenvalues --  -10.23315 -10.23241 -10.21475 -10.21291 -10.21119
 Alpha  occ. eigenvalues --  -10.20950 -10.20853 -10.20524 -10.20497 -10.20319
 Alpha  occ. eigenvalues --  -10.20084 -10.19964 -10.19653 -10.19524 -10.19502
 Alpha  occ. eigenvalues --  -10.19493 -10.18995 -10.18714 -10.18580 -10.18054
 Alpha  occ. eigenvalues --  -10.18052 -10.17568 -10.17264  -1.11430  -1.08664
 Alpha  occ. eigenvalues --   -1.06052  -1.02137  -1.00019  -0.99842  -0.98325
 Alpha  occ. eigenvalues --   -0.96165  -0.95492  -0.91594  -0.82215  -0.81786
 Alpha  occ. eigenvalues --   -0.81545  -0.81480  -0.80761  -0.79971  -0.78182
 Alpha  occ. eigenvalues --   -0.77683  -0.77110  -0.75978  -0.74033  -0.72390
 Alpha  occ. eigenvalues --   -0.71364  -0.70083  -0.69774  -0.68742  -0.67210
 Alpha  occ. eigenvalues --   -0.67115  -0.65401  -0.63985  -0.62850  -0.62532
 Alpha  occ. eigenvalues --   -0.60793  -0.59995  -0.59564  -0.57831  -0.57322
 Alpha  occ. eigenvalues --   -0.56564  -0.55785  -0.55260  -0.54058  -0.53715
 Alpha  occ. eigenvalues --   -0.53104  -0.51924  -0.51266  -0.50555  -0.50059
 Alpha  occ. eigenvalues --   -0.49749  -0.49192  -0.48526  -0.47847  -0.47503
 Alpha  occ. eigenvalues --   -0.47347  -0.47222  -0.46876  -0.46809  -0.46464
 Alpha  occ. eigenvalues --   -0.46041  -0.45570  -0.45216  -0.44573  -0.43787
 Alpha  occ. eigenvalues --   -0.43587  -0.43454  -0.42916  -0.42674  -0.42090
 Alpha  occ. eigenvalues --   -0.41933  -0.41808  -0.41595  -0.40958  -0.40925
 Alpha  occ. eigenvalues --   -0.40626  -0.40533  -0.40348  -0.39823  -0.39381
 Alpha  occ. eigenvalues --   -0.39179  -0.38630  -0.38420  -0.38341  -0.38101
 Alpha  occ. eigenvalues --   -0.37264  -0.37070  -0.36990  -0.36424  -0.36130
 Alpha  occ. eigenvalues --   -0.36119  -0.35935  -0.35636  -0.35414  -0.35073
 Alpha  occ. eigenvalues --   -0.34978  -0.33911  -0.33682  -0.33019  -0.33014
 Alpha  occ. eigenvalues --   -0.32834  -0.32232  -0.31184  -0.30303  -0.29515
 Alpha  occ. eigenvalues --   -0.29257  -0.27108  -0.26725  -0.26315  -0.25352
 Alpha  occ. eigenvalues --   -0.24734  -0.24636  -0.23659  -0.23189  -0.22192
 Alpha  occ. eigenvalues --   -0.17446
 Alpha virt. eigenvalues --   -0.11117  -0.06269  -0.03689  -0.03291  -0.00954
 Alpha virt. eigenvalues --    0.00982   0.01471   0.02719   0.03451   0.04100
 Alpha virt. eigenvalues --    0.04753   0.05070   0.05649   0.05741   0.06838

 Mulliken charges:
               1
     1  O   -0.144048
     2  O   -0.227206
     3  O   -0.105237
     4  O   -0.252436
     5  O   -0.290792
     6  O   -0.210472
     7  N   -0.122010
     8  N   -0.007153
     9  N   -0.135632
    10  N   -0.322014
    11  C   -0.137260
    12  C    0.113402
    13  C   -0.150701
    14  C    0.104993
    15  C   -0.094301
    16  C    0.066510
    17  C   -0.137080
    18  C   -0.083543
    19  C   -0.017425
    20  C   -0.131807
    21  C    0.123092
    22  C    0.184819
    23  C    0.084956
    24  C    0.258287
    25  C   -0.069532
    26  C    0.204967
    27  C    0.121177
    28  C    0.033749
    29  C   -0.015006
    30  C    0.011544
    31  C   -0.069978
    32  C   -0.045090
    33  C   -0.055997
    34  C    0.028815
    35  C   -0.165989
    36  C   -0.170725
    37  C    0.164781
    38  C    0.023047
    39  C    0.128952
    40  C    0.121973
    41  C    0.163773
    42  C    0.230093
    43  C   -0.082566
    44  H    0.127802
    45  H    0.070786
    46  H    0.053656
    47  H    0.025494
    48  H    0.057522
    49  H   -0.093103
    50  H   -0.001544
    51  H   -0.070058
    52  H    0.129425
    53  H   -0.006341
    54  H   -0.062764
    55  H   -0.012205
    56  H    0.132145
    57  H    0.071191
    58  H    0.050920
    59  H    0.026517
    60  H    0.037365
    61  H    0.035203
    62  H    0.026104
    63  H    0.027571
    64  H   -0.079953
    65  H    0.032278
    66  H    0.053955
    67  H    0.031329
    68  H   -0.138337
    69  H    0.091675
    70  H    0.025191
    71  H    0.009711
    72  H    0.006690
    73  H    0.000053
    74  H    0.018315
    75  H   -0.048956
    76  H    0.017860
    77  H    0.028404
    78  H    0.021062
    79  H    0.055636
    80  H    0.175725
    81  H    0.148746
 Sum of Mulliken charges =  -0.00000

 Dipole moment (field-independent basis, Debye):
    X=             -1.9935    Y=              1.4453    Z=             -0.0059  Tot=              2.4623
 Quadrupole moment (field-independent basis, Debye-Ang):
   XX=           -257.5472   YY=           -225.5743   ZZ=           -256.7052
   XY=             21.6648   XZ=             15.2204   YZ=            -19.8497

 Normal termination of Gaussian 16 at Mon Jul  1 15:10:59 2019.
