 Gaussian 16, Revision A.03,
 Gaussian 16:  ES64L-G16RevA.03 25-Dec-2016

 --------------------------
 # td=(NStates=1) B3LYP/SVP
 --------------------------

 --
 TD
 --
 Symbolic Z-matrix:
 Charge =  0 Multiplicity = 1

                         Standard orientation:
 ---------------------------------------------------------------------
 Center     Atomic      Atomic             Coordinates (Angstroms)
 Number     Number       Type             X           Y           Z
 ---------------------------------------------------------------------
      1          8           0        4.385249   -4.809834   -1.881366
      2          8           0       -2.985008   -4.667664   -1.053518
      3          8           0       -7.058420   -1.464763   -1.933234
      4          8           0       -3.812788   -3.051527    0.161637
      5          8           0       -7.574881   -0.563757    0.006634
      6          8           0        2.951464    2.413140    0.576500
      7          7           0        0.325631   -0.424840    0.650448
      8          7           0       -1.617659    1.778678    0.465574
      9          7           0        3.364694   -3.089383   -0.776113
     10          7           0        0.789864    2.935593    0.078118
     11          6           0       -0.633934   -2.459240    1.334205
     12          6           0       -0.852466   -1.050089    1.022453
     13          6           0        0.803149   -2.645666    1.183708
     14          6           0        1.396961   -1.419589    0.703829
     15          6           0       -3.816149    1.436542    0.290161
     16          6           0       -2.582629    0.710812    0.562538
     17          6           0       -2.273405   -0.545940    1.039688
     18          6           0       -3.533288    2.751163   -0.010272
     19          6           0       -1.579839   -3.417897    1.975180
     20          6           0        5.591149   -2.677585   -1.366898
     21          6           0        3.598532   -1.839827   -0.230044
     22          6           0       -2.160999    2.914775    0.037442
     23          6           0        5.001475   -1.562460   -0.559025
     24          6           0       -5.234738    0.825005    0.181805
     25          6           0        2.654309   -1.007594    0.310327
     26          6           0        1.478300   -3.868167    1.636802
     27          6           0        4.330005   -3.727618   -1.428924
     28          6           0       -2.104510   -4.544395    1.134189
     29          6           0       -5.438538   -0.136967   -0.996247
     30          6           0       -4.546193    3.794064   -0.436622
     31          6           0       -1.353277    4.045104   -0.280819
     32          6           0        6.720398   -3.454369   -0.711205
     33          6           0        5.945121   -0.570629   -0.188657
     34          6           0        0.107818    3.929632   -0.254965
     35          6           0        1.060681    5.096446   -0.491101
     36          6           0        2.287286    4.633361   -0.236896
     37          6           0       -3.001092   -4.018596    0.004880
     38          6           0        5.546692    0.623977    0.586117
     39          6           0       -6.780300   -0.793162   -0.788867
     40          6           0        3.623034    5.360807   -0.318431
     41          6           0        2.109992    3.227317    0.164271
     42          6           0        0.736146    6.540032   -0.833679
     43          6           0        4.249581    5.667942    1.068154
     44          1           0        0.621976    0.459964    0.175737
     45          1           0       -3.075643   -1.152481    1.229557
     46          1           0       -2.431773   -2.849984    2.588857
     47          1           0       -0.957952   -3.837714    2.914699
     48          1           0        5.607658   -2.234258   -2.366245
     49          1           0       -5.224680    0.309099    1.253719
     50          1           0       -5.979423    1.698430    0.201646
     51          1           0        3.109373    0.069285    0.489997
     52          1           0       -0.595600    1.793650    0.457928
     53          1           0        1.521812   -4.659381    0.946930
     54          1           0        2.664018   -3.491900    1.828468
     55          1           0        1.343800   -4.291975    2.770574
     56          1           0        2.345172   -3.491442   -0.766272
     57          1           0       -1.180379   -5.208054    0.753744
     58          1           0       -2.548862   -5.351769    1.598189
     59          1           0       -4.790309   -0.947064   -1.183779
     60          1           0       -5.264543    0.531955   -1.960772
     61          1           0       -4.061679    5.026522   -0.178775
     62          1           0       -5.461304    3.770895    0.270676
     63          1           0       -4.830063    3.802728   -1.589355
     64          1           0       -1.796580    4.883142   -0.608844
     65          1           0        7.641830   -2.813432   -0.445656
     66          1           0        7.061182   -4.313720   -1.411971
     67          1           0        6.309934   -4.006812    0.246540
     68          1           0        6.966262   -0.681764   -0.336617
     69          1           0        4.808977    1.133089   -0.174417
     70          1           0        6.409038    1.266188    0.940238
     71          1           0        5.093991    0.318243    1.463994
     72          1           0        3.440233    6.153748   -1.009787
     73          1           0        4.477542    4.553294   -0.739935
     74          1           0        0.101895    6.437611   -1.819342
     75          1           0        1.481409    7.249111   -1.117568
     76          1           0        0.266830    6.986522    0.067910
     77          1           0        3.741437    6.269350    1.780233
     78          1           0        5.150831    6.128665    0.944497
     79          1           0        4.318466    4.660698    1.577667
     80          1           0       -3.647873   -4.375496   -1.654054
     81          1           0       -8.015296   -1.943196   -1.696409
 ---------------------------------------------------------------------

 SCF Done:  E(RB3LYP) =  -1949.07769456     A.U. after   16 cycles

 Excitation energies and oscillator strengths:

 Excited State   1:      Singlet-A      1.7136 eV  723.55 nm  f=0.2842  <S**2>=0.000
     156 ->157         0.70813
     156 <-157        -0.10369
 This state for optimization and/or second-order correction.
 Total Energy, E(TD-HF/TD-DFT) =  -1949.01472235
 Copying the excited state density for this state as the 1-particle RhoCI density.

 The electronic state is 1-A.
 Alpha  occ. eigenvalues --  -19.21840 -19.17879 -19.13264 -19.12954 -19.10717
 Alpha  occ. eigenvalues --  -19.10352 -14.37891 -14.37476 -14.34975 -14.28578
 Alpha  occ. eigenvalues --  -10.34031 -10.31185 -10.28144 -10.26305 -10.24478
 Alpha  occ. eigenvalues --  -10.24380 -10.23616 -10.23410 -10.23124 -10.23088
 Alpha  occ. eigenvalues --  -10.22981 -10.22559 -10.22516 -10.21391 -10.21281
 Alpha  occ. eigenvalues --  -10.21220 -10.20724 -10.20659 -10.20340 -10.20194
 Alpha  occ. eigenvalues --  -10.19923 -10.19907 -10.19871 -10.19461 -10.19355
 Alpha  occ. eigenvalues --  -10.19265 -10.19259 -10.19125 -10.19069 -10.18018
 Alpha  occ. eigenvalues --  -10.17716 -10.17306 -10.16748  -1.16190  -1.10934
 Alpha  occ. eigenvalues --   -1.05044  -1.01247  -1.01129  -0.99511  -0.97906
 Alpha  occ. eigenvalues --   -0.96438  -0.95359  -0.94196  -0.82235  -0.81622
 Alpha  occ. eigenvalues --   -0.80892  -0.80653  -0.79689  -0.78933  -0.77891
 Alpha  occ. eigenvalues --   -0.77113  -0.75369  -0.74497  -0.74004  -0.72426
 Alpha  occ. eigenvalues --   -0.70535  -0.69422  -0.69135  -0.68754  -0.67152
 Alpha  occ. eigenvalues --   -0.66377  -0.64801  -0.64503  -0.62554  -0.62162
 Alpha  occ. eigenvalues --   -0.61752  -0.59680  -0.57885  -0.57662  -0.56028
 Alpha  occ. eigenvalues --   -0.55243  -0.55103  -0.54617  -0.53461  -0.53254
 Alpha  occ. eigenvalues --   -0.52625  -0.52288  -0.50994  -0.50609  -0.50185
 Alpha  occ. eigenvalues --   -0.49970  -0.49036  -0.48537  -0.48356  -0.47404
 Alpha  occ. eigenvalues --   -0.47089  -0.46341  -0.46177  -0.45528  -0.45163
 Alpha  occ. eigenvalues --   -0.44879  -0.44509  -0.44023  -0.43809  -0.43650
 Alpha  occ. eigenvalues --   -0.43479  -0.42745  -0.42605  -0.42378  -0.42014
 Alpha  occ. eigenvalues --   -0.41777  -0.41683  -0.41527  -0.41338  -0.40975
 Alpha  occ. eigenvalues --   -0.40809  -0.40675  -0.40340  -0.40069  -0.39995
 Alpha  occ. eigenvalues --   -0.39464  -0.39353  -0.38952  -0.38367  -0.37731
 Alpha  occ. eigenvalues --   -0.37283  -0.36809  -0.36554  -0.36170  -0.35603
 Alpha  occ. eigenvalues --   -0.35549  -0.35380  -0.34694  -0.34481  -0.34290
 Alpha  occ. eigenvalues --   -0.33933  -0.33692  -0.33066  -0.32717  -0.32643
 Alpha  occ. eigenvalues --   -0.32367  -0.32250  -0.31946  -0.29958  -0.29061
 Alpha  occ. eigenvalues --   -0.28812  -0.27040  -0.26421  -0.25248  -0.24984
 Alpha  occ. eigenvalues --   -0.24777  -0.24471  -0.24130  -0.23668  -0.21080
 Alpha  occ. eigenvalues --   -0.17395
 Alpha virt. eigenvalues --   -0.10282  -0.05863  -0.04531  -0.01559  -0.00012
 Alpha virt. eigenvalues --    0.01415   0.02087   0.02303   0.02940   0.03465
 Alpha virt. eigenvalues --    0.03714   0.04230   0.05058   0.05551   0.05920

 Mulliken charges:
               1
     1  O   -0.168844
     2  O   -0.030419
     3  O   -0.260968
     4  O   -0.308287
     5  O   -0.156269
     6  O   -0.226025
     7  N   -0.151569
     8  N   -0.087857
     9  N   -0.105695
    10  N   -0.189589
    11  C   -0.108919
    12  C    0.088226
    13  C   -0.124248
    14  C    0.127537
    15  C   -0.095619
    16  C    0.095262
    17  C    0.013762
    18  C   -0.082967
    19  C    0.015090
    20  C   -0.071538
    21  C    0.088306
    22  C    0.073999
    23  C   -0.087005
    24  C    0.052220
    25  C   -0.171323
    26  C   -0.037247
    27  C    0.063943
    28  C    0.049097
    29  C   -0.007338
    30  C   -0.057957
    31  C   -0.046680
    32  C    0.011450
    33  C   -0.112511
    34  C    0.033610
    35  C   -0.140503
    36  C   -0.146758
    37  C    0.106771
    38  C    0.061830
    39  C    0.142675
    40  C    0.043780
    41  C    0.122352
    42  C    0.073910
    43  C    0.039356
    44  H    0.168051
    45  H   -0.030938
    46  H    0.046664
    47  H    0.028691
    48  H    0.032935
    49  H    0.043308
    50  H    0.024573
    51  H    0.073982
    52  H    0.118692
    53  H    0.025511
    54  H    0.041190
    55  H    0.053134
    56  H    0.156104
    57  H    0.031403
    58  H    0.017154
    59  H    0.018676
    60  H    0.059928
    61  H    0.035710
    62  H    0.057061
    63  H    0.063253
    64  H   -0.091908
    65  H    0.031038
    66  H    0.040639
    67  H    0.032884
    68  H   -0.028236
    69  H    0.088217
    70  H    0.008195
    71  H    0.019602
    72  H   -0.006864
    73  H    0.030074
    74  H    0.036083
    75  H    0.002832
    76  H    0.039711
    77  H   -0.008173
    78  H   -0.009748
    79  H    0.034531
    80  H    0.176988
    81  H    0.212013
 Sum of Mulliken charges =  -0.00000

 Dipole moment (field-independent basis, Debye):
    X=             -3.2504    Y=             -0.4917    Z=             -0.9536  Tot=              3.4229
 Quadrupole moment (field-independent basis, Debye-Ang):
   XX=           -254.1358   YY=           -235.1910   ZZ=           -255.1179
   XY=             24.3510   XZ=             15.4766   YZ=            -13.0124

 Normal termination of Gaussian 16 at Mon Jul  1 23:03:24 2019.
