 Gaussian 16, Revision A.03,
 Gaussian 16:  ES64L-G16RevA.03 25-Dec-2016

 --------------------------
 # td=(NStates=1) B3LYP/SVP
 --------------------------

 --
 TD
 --
 Symbolic Z-matrix:
 Charge =  0 Multiplicity = 1

                         Standard orientation:
 ---------------------------------------------------------------------
 Center     Atomic      Atomic             Coordinates (Angstroms)
 Number     Number       Type             X           Y           Z
 ---------------------------------------------------------------------
      1          8           0        4.330047   -4.959378   -1.828118
      2          8           0       -3.009163   -4.896251   -1.087089
      3          8           0       -6.705689   -1.821367   -1.767524
      4          8           0       -3.833167   -3.308892    0.336687
      5          8           0       -7.613913   -0.458033   -0.091409
      6          8           0        2.958936    2.406094    0.438419
      7          7           0        0.243768   -0.421649    0.625044
      8          7           0       -1.608123    1.869232    0.276925
      9          7           0        3.320315   -3.076527   -0.726044
     10          7           0        0.703882    2.843997   -0.010724
     11          6           0       -0.671857   -2.358602    1.386668
     12          6           0       -0.957771   -1.024365    0.930652
     13          6           0        0.731180   -2.486978    1.320759
     14          6           0        1.344254   -1.383768    0.785223
     15          6           0       -3.836376    1.504858    0.199368
     16          6           0       -2.540357    0.870900    0.505623
     17          6           0       -2.260848   -0.452948    0.779081
     18          6           0       -3.553070    2.819340   -0.160334
     19          6           0       -1.623801   -3.257505    2.021660
     20          6           0        5.536750   -2.776499   -1.292573
     21          6           0        3.536977   -1.783089   -0.257517
     22          6           0       -2.130747    2.976892   -0.057774
     23          6           0        4.993462   -1.579127   -0.588313
     24          6           0       -5.133729    0.839691    0.190350
     25          6           0        2.599282   -0.985721    0.405431
     26          6           0        1.570675   -3.682897    1.848217
     27          6           0        4.370947   -3.872351   -1.298640
     28          6           0       -1.844895   -4.468203    1.143338
     29          6           0       -5.378510   -0.138268   -0.862278
     30          6           0       -4.527142    3.855553   -0.536542
     31          6           0       -1.226809    4.102285   -0.339866
     32          6           0        6.847636   -3.453288   -0.952520
     33          6           0        5.765173   -0.575016   -0.119954
     34          6           0        0.109696    3.989896   -0.274527
     35          6           0        1.038574    5.119351   -0.397268
     36          6           0        2.271730    4.680839   -0.169182
     37          6           0       -2.933351   -4.195559    0.060452
     38          6           0        5.377071    0.622648    0.644163
     39          6           0       -6.720139   -0.795944   -0.751217
     40          6           0        3.624585    5.350196   -0.192050
     41          6           0        2.078669    3.207518    0.170609
     42          6           0        0.639444    6.406641   -0.846745
     43          6           0        4.198190    5.705424    1.165621
     44          1           0        0.400380    0.603372    0.214441
     45          1           0       -3.200749   -1.032747    1.112989
     46          1           0       -2.429971   -2.731198    2.285075
     47          1           0       -1.214032   -3.651726    2.961810
     48          1           0        5.561440   -2.523754   -2.450573
     49          1           0       -5.339543    0.298617    1.194516
     50          1           0       -5.910883    1.650777    0.158894
     51          1           0        2.949060    0.082113    0.462933
     52          1           0       -0.565588    1.793133    0.465688
     53          1           0        1.624028   -4.450404    1.101532
     54          1           0        2.644058   -3.515964    1.987407
     55          1           0        1.021477   -4.072310    2.848844
     56          1           0        2.471468   -3.416290   -0.641602
     57          1           0       -1.030740   -4.897888    0.653729
     58          1           0       -2.528321   -5.155082    1.783270
     59          1           0       -4.790560   -0.801535   -0.837794
     60          1           0       -5.086740    0.185193   -1.961500
     61          1           0       -4.423698    4.756184    0.013779
     62          1           0       -5.690585    3.428798   -0.704692
     63          1           0       -4.142729    4.303239   -1.631222
     64          1           0       -1.779425    5.050695   -0.746250
     65          1           0        7.798336   -2.849013   -1.007129
     66          1           0        6.828462   -4.446750   -1.297702
     67          1           0        6.817040   -3.759096    0.067001
     68          1           0        6.866586   -0.735214   -0.442182
     69          1           0        4.928393    1.295085   -0.231187
     70          1           0        6.353059    1.361895    0.909674
     71          1           0        4.726733    0.298943    1.375341
     72          1           0        3.821300    6.244417   -1.041136
     73          1           0        4.223338    4.566395   -0.738329
     74          1           0        0.329027    6.281767   -1.814218
     75          1           0        1.643458    7.229490   -0.885741
     76          1           0       -0.010478    6.906349   -0.124412
     77          1           0        3.598899    6.756882    1.501620
     78          1           0        5.310460    6.023009    0.971910
     79          1           0        3.975872    4.890492    1.980734
     80          1           0       -3.613582   -4.576224   -1.683913
     81          1           0       -7.539917   -2.285841   -1.735241
 ---------------------------------------------------------------------

 SCF Done:  E(RB3LYP) =  -1949.05203314     A.U. after   16 cycles

 Excitation energies and oscillator strengths:

 Excited State   1:      Singlet-A      1.8463 eV  671.55 nm  f=0.3456  <S**2>=0.000
     156 ->157         0.70732
     156 <-157        -0.10344
 This state for optimization and/or second-order correction.
 Total Energy, E(TD-HF/TD-DFT) =  -1948.98418463
 Copying the excited state density for this state as the 1-particle RhoCI density.

 The electronic state is 1-A.
 Alpha  occ. eigenvalues --  -19.20023 -19.16717 -19.14688 -19.13194 -19.12745
 Alpha  occ. eigenvalues --  -19.10084 -14.37198 -14.36613 -14.36187 -14.28661
 Alpha  occ. eigenvalues --  -10.34117 -10.32261 -10.30786 -10.26454 -10.24939
 Alpha  occ. eigenvalues --  -10.23922 -10.23412 -10.23100 -10.23014 -10.22773
 Alpha  occ. eigenvalues --  -10.22208 -10.21803 -10.21393 -10.21345 -10.20717
 Alpha  occ. eigenvalues --  -10.20588 -10.20536 -10.20372 -10.20199 -10.20099
 Alpha  occ. eigenvalues --  -10.20055 -10.19828 -10.19687 -10.19657 -10.19513
 Alpha  occ. eigenvalues --  -10.19332 -10.19330 -10.18865 -10.18629 -10.18566
 Alpha  occ. eigenvalues --  -10.18496 -10.18316 -10.18196  -1.10871  -1.09612
 Alpha  occ. eigenvalues --   -1.04454  -1.01440  -1.01251  -1.00568  -0.98387
 Alpha  occ. eigenvalues --   -0.96165  -0.95470  -0.92288  -0.83727  -0.83059
 Alpha  occ. eigenvalues --   -0.81781  -0.81461  -0.80509  -0.79231  -0.78658
 Alpha  occ. eigenvalues --   -0.77381  -0.76482  -0.75689  -0.74237  -0.72609
 Alpha  occ. eigenvalues --   -0.71362  -0.70419  -0.69445  -0.68622  -0.68383
 Alpha  occ. eigenvalues --   -0.67802  -0.65863  -0.64541  -0.63686  -0.61965
 Alpha  occ. eigenvalues --   -0.60635  -0.59280  -0.58388  -0.57880  -0.57216
 Alpha  occ. eigenvalues --   -0.56643  -0.55715  -0.55070  -0.53319  -0.52481
 Alpha  occ. eigenvalues --   -0.52075  -0.51504  -0.51134  -0.50584  -0.49634
 Alpha  occ. eigenvalues --   -0.49402  -0.49021  -0.48421  -0.48350  -0.47637
 Alpha  occ. eigenvalues --   -0.47105  -0.46675  -0.46298  -0.45878  -0.45550
 Alpha  occ. eigenvalues --   -0.45051  -0.44710  -0.44492  -0.44165  -0.43908
 Alpha  occ. eigenvalues --   -0.43638  -0.43105  -0.42842  -0.42533  -0.42244
 Alpha  occ. eigenvalues --   -0.42081  -0.41822  -0.41676  -0.41527  -0.41215
 Alpha  occ. eigenvalues --   -0.40843  -0.40421  -0.39904  -0.39753  -0.39586
 Alpha  occ. eigenvalues --   -0.39336  -0.39305  -0.38750  -0.38578  -0.38366
 Alpha  occ. eigenvalues --   -0.38141  -0.37824  -0.37633  -0.37302  -0.37150
 Alpha  occ. eigenvalues --   -0.36518  -0.36129  -0.35769  -0.35475  -0.35142
 Alpha  occ. eigenvalues --   -0.34023  -0.33787  -0.33483  -0.33271  -0.32570
 Alpha  occ. eigenvalues --   -0.32271  -0.32001  -0.30680  -0.30348  -0.29625
 Alpha  occ. eigenvalues --   -0.28264  -0.27845  -0.27263  -0.26527  -0.25416
 Alpha  occ. eigenvalues --   -0.24838  -0.24698  -0.24165  -0.23775  -0.21268
 Alpha  occ. eigenvalues --   -0.17764
 Alpha virt. eigenvalues --   -0.10195  -0.05005  -0.03834  -0.02451  -0.00413
 Alpha virt. eigenvalues --   -0.00224   0.02132   0.03161   0.03689   0.04001
 Alpha virt. eigenvalues --    0.04719   0.04919   0.05350   0.05465   0.06500

 Mulliken charges:
               1
     1  O   -0.189424
     2  O   -0.124345
     3  O   -0.256263
     4  O   -0.317795
     5  O   -0.146417
     6  O   -0.212087
     7  N   -0.207596
     8  N   -0.007750
     9  N   -0.109368
    10  N   -0.335827
    11  C   -0.143233
    12  C    0.087438
    13  C   -0.160471
    14  C    0.178298
    15  C   -0.066729
    16  C    0.027147
    17  C   -0.065468
    18  C   -0.106958
    19  C    0.227164
    20  C   -0.108823
    21  C    0.034411
    22  C    0.018941
    23  C   -0.011883
    24  C    0.064836
    25  C   -0.129029
    26  C    0.058797
    27  C    0.163475
    28  C    0.062402
    29  C    0.159348
    30  C    0.025730
    31  C   -0.190838
    32  C    0.109657
    33  C   -0.190679
    34  C    0.143255
    35  C   -0.104654
    36  C   -0.136395
    37  C    0.117060
    38  C    0.069706
    39  C    0.147378
    40  C    0.007522
    41  C    0.151534
    42  C    0.088069
    43  C   -0.050142
    44  H    0.178146
    45  H    0.054458
    46  H   -0.041347
    47  H    0.000071
    48  H    0.056861
    49  H    0.026457
    50  H    0.005988
    51  H    0.040332
    52  H    0.157831
    53  H    0.011007
    54  H    0.023447
    55  H    0.038016
    56  H    0.063968
    57  H    0.016757
    58  H    0.058060
    59  H   -0.124483
    60  H    0.043390
    61  H    0.019131
    62  H    0.060958
    63  H    0.025816
    64  H   -0.007479
    65  H    0.033893
    66  H    0.009135
    67  H   -0.024586
    68  H    0.000158
    69  H    0.085188
    70  H    0.034938
    71  H    0.036380
    72  H    0.018662
    73  H    0.013385
    74  H    0.016383
    75  H    0.023138
    76  H    0.028970
    77  H    0.023470
    78  H    0.036648
    79  H    0.059411
    80  H    0.165113
    81  H    0.162336
 Sum of Mulliken charges =  -0.00000

 Dipole moment (field-independent basis, Debye):
    X=             -1.7659    Y=              0.0020    Z=             -0.3772  Tot=              1.8058
 Quadrupole moment (field-independent basis, Debye-Ang):
   XX=           -253.3848   YY=           -243.4283   ZZ=           -254.2834
   XY=             15.1495   XZ=             11.1801   YZ=            -13.1854

 Normal termination of Gaussian 16 at Mon Jul  1 03:40:58 2019.
