 Gaussian 16, Revision A.03,
 Gaussian 16:  ES64L-G16RevA.03 25-Dec-2016

 --------------------------
 # td=(NStates=1) B3LYP/SVP
 --------------------------

 --
 TD
 --
 Symbolic Z-matrix:
 Charge =  0 Multiplicity = 1

                         Standard orientation:
 ---------------------------------------------------------------------
 Center     Atomic      Atomic             Coordinates (Angstroms)
 Number     Number       Type             X           Y           Z
 ---------------------------------------------------------------------
      1          8           0        4.094897   -4.823119   -1.853544
      2          8           0       -3.179284   -4.619495   -1.050224
      3          8           0       -6.976538   -1.386427   -1.905480
      4          8           0       -4.015735   -3.035905    0.218000
      5          8           0       -7.682778   -0.290506   -0.135071
      6          8           0        3.069011    2.160404    0.318808
      7          7           0        0.244358   -0.407630    0.609790
      8          7           0       -1.457727    1.802704    0.392670
      9          7           0        3.169896   -3.173334   -0.632400
     10          7           0        0.843068    2.775883    0.061580
     11          6           0       -0.714541   -2.335124    1.437682
     12          6           0       -0.984653   -0.990456    1.047961
     13          6           0        0.655560   -2.631131    1.228611
     14          6           0        1.253072   -1.477851    0.752687
     15          6           0       -3.737828    1.684387    0.331816
     16          6           0       -2.503101    0.876017    0.564045
     17          6           0       -2.205219   -0.464264    0.830331
     18          6           0       -3.363055    2.922343   -0.030329
     19          6           0       -1.743157   -3.264248    1.989190
     20          6           0        5.348034   -2.839320   -1.384383
     21          6           0        3.488527   -1.927015   -0.181918
     22          6           0       -1.951237    3.059051    0.039884
     23          6           0        4.903474   -1.664911   -0.520246
     24          6           0       -5.104339    0.985383    0.290434
     25          6           0        2.636230   -1.121635    0.501183
     26          6           0        1.451298   -3.813415    1.767612
     27          6           0        4.124463   -3.769993   -1.355175
     28          6           0       -2.247883   -4.454257    1.079744
     29          6           0       -5.398942    0.064568   -0.828028
     30          6           0       -4.371577    3.936562   -0.646887
     31          6           0       -1.162184    4.185159   -0.216111
     32          6           0        6.759220   -3.598359   -1.108928
     33          6           0        5.724373   -0.725603   -0.119735
     34          6           0        0.321272    4.020863   -0.201316
     35          6           0        1.250319    5.099684   -0.380968
     36          6           0        2.495536    4.532512   -0.154112
     37          6           0       -3.238414   -3.940804    0.104621
     38          6           0        5.502822    0.489664    0.665602
     39          6           0       -6.732282   -0.499384   -0.922533
     40          6           0        4.020019    4.949039   -0.301568
     41          6           0        2.227033    3.099994    0.109729
     42          6           0        0.802183    6.554125   -0.736143
     43          6           0        4.652317    5.159362    1.060931
     44          1           0        0.563395    0.423281    0.155707
     45          1           0       -3.090839   -1.099698    1.005710
     46          1           0       -2.752634   -2.651030    2.287909
     47          1           0       -1.315954   -3.680477    2.868545
     48          1           0        5.300637   -2.364377   -2.470214
     49          1           0       -5.267773    0.408605    1.094382
     50          1           0       -5.862699    1.741257    0.473712
     51          1           0        2.916951   -0.006902    0.725250
     52          1           0       -0.541388    1.770617    0.709598
     53          1           0        1.316366   -4.839961    1.277817
     54          1           0        2.506132   -3.565851    1.545993
     55          1           0        1.266514   -3.933202    2.992605
     56          1           0        2.190675   -3.574972   -0.713172
     57          1           0       -1.430865   -5.020959    0.531215
     58          1           0       -2.856539   -5.435235    1.399154
     59          1           0       -4.513025   -0.781405   -0.771018
     60          1           0       -5.141397    0.353243   -1.934768
     61          1           0       -4.471603    4.728760    0.093496
     62          1           0       -5.568226    3.401468   -0.648678
     63          1           0       -4.010545    4.321026   -1.722441
     64          1           0       -1.529332    5.059040   -0.473759
     65          1           0        7.357751   -2.661075   -1.253614
     66          1           0        6.830517   -4.368367   -1.742334
     67          1           0        6.714346   -3.950906    0.020209
     68          1           0        6.770065   -0.956220   -0.445987
     69          1           0        5.019695    1.199169    0.129894
     70          1           0        6.526137    0.802509    1.058699
     71          1           0        4.665459    0.552807    1.321996
     72          1           0        4.278071    5.867339   -0.868379
     73          1           0        4.593523    4.157982   -0.915323
     74          1           0        0.168067    6.642736   -1.776219
     75          1           0        1.725789    7.046498   -0.815046
     76          1           0        0.186472    7.009227   -0.020598
     77          1           0        3.948051    5.698285    1.735345
     78          1           0        5.624006    5.697090    0.930135
     79          1           0        4.756296    4.188823    1.419544
     80          1           0       -3.957927   -4.005778   -1.335919
     81          1           0       -7.931947   -1.801982   -1.912912
 ---------------------------------------------------------------------

 SCF Done:  E(RB3LYP) =  -1949.09403071     A.U. after   17 cycles

 Excitation energies and oscillator strengths:

 Excited State   1:      Singlet-A      1.6212 eV  764.76 nm  f=0.2455  <S**2>=0.000
     156 ->157         0.70785
     156 <-157        -0.13139
 This state for optimization and/or second-order correction.
 Total Energy, E(TD-HF/TD-DFT) =  -1949.03445179
 Copying the excited state density for this state as the 1-particle RhoCI density.

 The electronic state is 1-A.
 Alpha  occ. eigenvalues --  -19.19423 -19.17791 -19.15143 -19.11196 -19.10781
 Alpha  occ. eigenvalues --  -19.10447 -14.37288 -14.36937 -14.35653 -14.29390
 Alpha  occ. eigenvalues --  -10.33385 -10.31928 -10.27843 -10.27085 -10.24178
 Alpha  occ. eigenvalues --  -10.24098 -10.23799 -10.23686 -10.23483 -10.23353
 Alpha  occ. eigenvalues --  -10.23302 -10.22582 -10.22350 -10.22291 -10.21607
 Alpha  occ. eigenvalues --  -10.21522 -10.21134 -10.20982 -10.20962 -10.20799
 Alpha  occ. eigenvalues --  -10.20746 -10.20423 -10.20280 -10.20180 -10.20044
 Alpha  occ. eigenvalues --  -10.19622 -10.19546 -10.19012 -10.19011 -10.18828
 Alpha  occ. eigenvalues --  -10.18752 -10.17442 -10.16312  -1.13365  -1.07866
 Alpha  occ. eigenvalues --   -1.05979  -1.02413  -0.99339  -0.97574  -0.97141
 Alpha  occ. eigenvalues --   -0.97131  -0.95080  -0.91068  -0.82817  -0.82319
 Alpha  occ. eigenvalues --   -0.81830  -0.81618  -0.79376  -0.79188  -0.78293
 Alpha  occ. eigenvalues --   -0.77529  -0.76460  -0.75553  -0.74774  -0.72472
 Alpha  occ. eigenvalues --   -0.70819  -0.69839  -0.69576  -0.68833  -0.68420
 Alpha  occ. eigenvalues --   -0.67290  -0.65508  -0.65409  -0.63039  -0.61066
 Alpha  occ. eigenvalues --   -0.59536  -0.59134  -0.58291  -0.57627  -0.57157
 Alpha  occ. eigenvalues --   -0.56022  -0.55751  -0.54558  -0.53792  -0.53394
 Alpha  occ. eigenvalues --   -0.52153  -0.51950  -0.51621  -0.51297  -0.50477
 Alpha  occ. eigenvalues --   -0.49761  -0.49353  -0.48907  -0.48060  -0.47335
 Alpha  occ. eigenvalues --   -0.47113  -0.46673  -0.46411  -0.46005  -0.45476
 Alpha  occ. eigenvalues --   -0.44640  -0.44483  -0.44263  -0.44240  -0.43951
 Alpha  occ. eigenvalues --   -0.43541  -0.43385  -0.42540  -0.42468  -0.42086
 Alpha  occ. eigenvalues --   -0.41658  -0.41561  -0.41301  -0.41214  -0.41038
 Alpha  occ. eigenvalues --   -0.40847  -0.40571  -0.40111  -0.39804  -0.39409
 Alpha  occ. eigenvalues --   -0.39301  -0.39154  -0.38828  -0.38725  -0.38287
 Alpha  occ. eigenvalues --   -0.37882  -0.37412  -0.37358  -0.36690  -0.36674
 Alpha  occ. eigenvalues --   -0.36050  -0.35845  -0.35735  -0.35109  -0.34935
 Alpha  occ. eigenvalues --   -0.34628  -0.34511  -0.34107  -0.33096  -0.32721
 Alpha  occ. eigenvalues --   -0.32646  -0.32382  -0.31021  -0.30568  -0.30226
 Alpha  occ. eigenvalues --   -0.28786  -0.26852  -0.26595  -0.26389  -0.25919
 Alpha  occ. eigenvalues --   -0.25443  -0.25049  -0.24680  -0.23782  -0.21971
 Alpha  occ. eigenvalues --   -0.17878
 Alpha virt. eigenvalues --   -0.11344  -0.06834  -0.03360  -0.01476  -0.00546
 Alpha virt. eigenvalues --    0.01192   0.01511   0.02703   0.03081   0.03407
 Alpha virt. eigenvalues --    0.03719   0.04494   0.04824   0.05561   0.05977

 Mulliken charges:
               1
     1  O   -0.160148
     2  O   -0.185943
     3  O   -0.232566
     4  O   -0.245465
     5  O   -0.276249
     6  O   -0.273734
     7  N   -0.181781
     8  N   -0.084376
     9  N   -0.085310
    10  N   -0.322983
    11  C   -0.103485
    12  C    0.175992
    13  C   -0.124623
    14  C    0.053876
    15  C   -0.056289
    16  C    0.040337
    17  C   -0.082704
    18  C   -0.125597
    19  C    0.084986
    20  C   -0.143163
    21  C    0.120319
    22  C    0.134626
    23  C    0.010847
    24  C    0.209386
    25  C   -0.174614
    26  C    0.004742
    27  C    0.051979
    28  C   -0.008283
    29  C   -0.071468
    30  C   -0.001277
    31  C   -0.041385
    32  C    0.080917
    33  C   -0.184982
    34  C    0.065322
    35  C   -0.127555
    36  C   -0.143356
    37  C    0.117440
    38  C    0.149060
    39  C    0.158985
    40  C    0.028432
    41  C    0.183424
    42  C    0.115640
    43  C    0.018734
    44  H    0.140122
    45  H    0.019375
    46  H    0.052600
    47  H    0.000589
    48  H    0.053462
    49  H   -0.028906
    50  H   -0.003403
    51  H    0.063755
    52  H    0.115981
    53  H    0.034443
    54  H    0.037997
    55  H    0.055645
    56  H    0.154541
    57  H    0.041309
    58  H    0.066403
    59  H    0.072910
    60  H    0.043827
    61  H    0.031901
    62  H    0.051099
    63  H    0.062502
    64  H   -0.104560
    65  H    0.037035
    66  H    0.015945
    67  H    0.038279
    68  H   -0.017873
    69  H    0.010340
    70  H    0.019289
    71  H    0.010072
    72  H   -0.005069
    73  H    0.034021
    74  H    0.044992
    75  H    0.010871
    76  H    0.020285
    77  H    0.016096
    78  H    0.018271
    79  H    0.011265
    80  H    0.178293
    81  H    0.228587
 Sum of Mulliken charges =  -0.00000

 Dipole moment (field-independent basis, Debye):
    X=             -1.4368    Y=              1.4250    Z=             -0.3627  Tot=              2.0559
 Quadrupole moment (field-independent basis, Debye-Ang):
   XX=           -261.0529   YY=           -234.3755   ZZ=           -256.3611
   XY=             18.0664   XZ=             11.5478   YZ=            -14.9256

 Normal termination of Gaussian 16 at Tue Jul  2 04:58:08 2019.
