 Gaussian 16, Revision A.03,
 Gaussian 16:  ES64L-G16RevA.03 25-Dec-2016

 --------------------------
 # td=(NStates=1) B3LYP/SVP
 --------------------------

 --
 TD
 --
 Symbolic Z-matrix:
 Charge =  0 Multiplicity = 1

                         Standard orientation:
 ---------------------------------------------------------------------
 Center     Atomic      Atomic             Coordinates (Angstroms)
 Number     Number       Type             X           Y           Z
 ---------------------------------------------------------------------
      1          8           0        4.149693   -5.183390   -1.710071
      2          8           0       -3.393716   -4.814529   -0.924765
      3          8           0       -7.056292   -1.346499   -1.797001
      4          8           0       -3.906216   -2.935135    0.121990
      5          8           0       -7.549156    0.082890   -0.145921
      6          8           0        3.203852    2.396025    0.544026
      7          7           0        0.116868   -0.591447    0.533239
      8          7           0       -1.394538    1.844000    0.296454
      9          7           0        3.179029   -3.316292   -0.678638
     10          7           0        1.008860    2.856872    0.055953
     11          6           0       -0.750880   -2.398558    1.321760
     12          6           0       -1.035124   -1.076268    0.968732
     13          6           0        0.613985   -2.640235    1.280158
     14          6           0        1.212271   -1.441770    0.660620
     15          6           0       -3.691259    1.594507    0.143659
     16          6           0       -2.441100    0.940389    0.551955
     17          6           0       -2.294439   -0.352766    0.913893
     18          6           0       -3.382228    2.892109   -0.187757
     19          6           0       -1.705488   -3.287465    2.044102
     20          6           0        5.323567   -2.998639   -1.366818
     21          6           0        3.434497   -1.958426   -0.263165
     22          6           0       -1.942126    3.113923   -0.047088
     23          6           0        4.903331   -1.801471   -0.545279
     24          6           0       -5.043388    0.939202    0.296422
     25          6           0        2.512625   -1.077846    0.229157
     26          6           0        1.289313   -3.825651    1.832561
     27          6           0        4.124732   -4.021133   -1.314188
     28          6           0       -2.267342   -4.418495    1.120206
     29          6           0       -5.449579    0.024379   -0.905348
     30          6           0       -4.329924    4.051246   -0.419482
     31          6           0       -1.024827    4.204432   -0.232413
     32          6           0        6.498945   -3.767294   -0.865578
     33          6           0        5.731142   -0.780732   -0.247817
     34          6           0        0.311608    4.019414   -0.278697
     35          6           0        1.340899    5.129285   -0.385957
     36          6           0        2.623692    4.639758   -0.191470
     37          6           0       -3.216316   -3.964069    0.086753
     38          6           0        5.451539    0.578183    0.421816
     39          6           0       -6.713678   -0.473239   -0.938007
     40          6           0        4.006558    5.076891   -0.247727
     41          6           0        2.312148    3.229727    0.217858
     42          6           0        1.058753    6.483288   -0.795054
     43          6           0        4.535790    5.282382    1.217515
     44          1           0        0.314058    0.317637    0.115563
     45          1           0       -3.229300   -0.925083    1.211572
     46          1           0       -2.613574   -2.775910    2.375323
     47          1           0       -1.255856   -3.958085    2.908869
     48          1           0        5.369045   -2.763928   -2.520431
     49          1           0       -5.115016    0.478034    1.274208
     50          1           0       -5.853283    1.595661    0.571824
     51          1           0        2.698116    0.031840    0.485945
     52          1           0       -0.361125    1.973852    0.374072
     53          1           0        1.402679   -4.674358    1.210286
     54          1           0        2.302941   -3.625715    2.309346
     55          1           0        0.676374   -4.300370    2.613715
     56          1           0        2.206773   -3.742932   -0.566817
     57          1           0       -1.354430   -4.903861    0.614469
     58          1           0       -2.833258   -5.106981    1.715110
     59          1           0       -4.741831   -0.892354   -1.084944
     60          1           0       -5.120546    0.478857   -1.909310
     61          1           0       -4.101208    4.959291    0.362282
     62          1           0       -5.387920    3.499041   -0.472030
     63          1           0       -4.225482    4.347213   -1.411610
     64          1           0       -1.447352    5.133431   -0.503877
     65          1           0        7.445303   -2.954866   -0.888308
     66          1           0        6.925815   -4.599621   -1.526836
     67          1           0        6.127892   -4.083836    0.155800
     68          1           0        6.940313   -0.745985   -0.424794
     69          1           0        4.963433    1.329262   -0.363142
     70          1           0        6.461155    1.113292    0.650196
     71          1           0        4.730402    0.495453    1.291029
     72          1           0        3.904897    6.050589   -0.746236
     73          1           0        4.597442    4.394535   -0.921961
     74          1           0        0.156155    6.595044   -1.642342
     75          1           0        1.837359    7.110770   -1.186878
     76          1           0        0.594174    7.281000   -0.079903
     77          1           0        3.964005    6.047019    1.707270
     78          1           0        5.506485    5.699341    1.145342
     79          1           0        4.609568    4.200981    1.614235
     80          1           0       -4.044685   -4.211209   -1.468925
     81          1           0       -7.992541   -1.504233   -1.595147
 ---------------------------------------------------------------------

 SCF Done:  E(RB3LYP) =  -1949.15168232     A.U. after   24 cycles

 Excitation energies and oscillator strengths:

 Excited State   1:      Singlet-A      1.7989 eV  689.23 nm  f=0.2932  <S**2>=0.000
     156 ->157         0.70603
     156 <-157        -0.10446
 This state for optimization and/or second-order correction.
 Total Energy, E(TD-HF/TD-DFT) =  -1949.08557466
 Copying the excited state density for this state as the 1-particle RhoCI density.

 The electronic state is 1-A.
 Alpha  occ. eigenvalues --  -19.20689 -19.20422 -19.14398 -19.10837 -19.10581
 Alpha  occ. eigenvalues --  -19.09005 -14.38178 -14.37920 -14.36167 -14.29193
 Alpha  occ. eigenvalues --  -10.33663 -10.31519 -10.28534 -10.25737 -10.25525
 Alpha  occ. eigenvalues --  -10.25203 -10.24042 -10.24040 -10.23353 -10.23262
 Alpha  occ. eigenvalues --  -10.22316 -10.22245 -10.21730 -10.21525 -10.21345
 Alpha  occ. eigenvalues --  -10.21280 -10.21026 -10.20979 -10.20641 -10.20381
 Alpha  occ. eigenvalues --  -10.20348 -10.20254 -10.20151 -10.20075 -10.20047
 Alpha  occ. eigenvalues --  -10.19941 -10.19648 -10.19602 -10.19355 -10.19156
 Alpha  occ. eigenvalues --  -10.18823 -10.18797 -10.17737  -1.13667  -1.11808
 Alpha  occ. eigenvalues --   -1.02360  -1.00760  -0.99856  -0.98941  -0.98096
 Alpha  occ. eigenvalues --   -0.96580  -0.94825  -0.90576  -0.83211  -0.82624
 Alpha  occ. eigenvalues --   -0.81744  -0.80830  -0.80223  -0.79487  -0.78911
 Alpha  occ. eigenvalues --   -0.78627  -0.76915  -0.75249  -0.74190  -0.73242
 Alpha  occ. eigenvalues --   -0.72342  -0.70198  -0.69232  -0.68675  -0.68288
 Alpha  occ. eigenvalues --   -0.67197  -0.65461  -0.63349  -0.62682  -0.62230
 Alpha  occ. eigenvalues --   -0.61440  -0.60043  -0.59530  -0.57622  -0.56881
 Alpha  occ. eigenvalues --   -0.56428  -0.55420  -0.55146  -0.53466  -0.52636
 Alpha  occ. eigenvalues --   -0.51867  -0.51679  -0.51611  -0.51263  -0.50727
 Alpha  occ. eigenvalues --   -0.50388  -0.49940  -0.49581  -0.49220  -0.48190
 Alpha  occ. eigenvalues --   -0.47294  -0.47044  -0.46326  -0.46074  -0.45508
 Alpha  occ. eigenvalues --   -0.45366  -0.44825  -0.44360  -0.43969  -0.43818
 Alpha  occ. eigenvalues --   -0.43596  -0.42932  -0.42603  -0.42426  -0.42226
 Alpha  occ. eigenvalues --   -0.42037  -0.41700  -0.41528  -0.41439  -0.41064
 Alpha  occ. eigenvalues --   -0.40709  -0.40262  -0.39881  -0.39424  -0.39273
 Alpha  occ. eigenvalues --   -0.38849  -0.38576  -0.38287  -0.37949  -0.37803
 Alpha  occ. eigenvalues --   -0.37741  -0.37413  -0.37052  -0.36861  -0.36802
 Alpha  occ. eigenvalues --   -0.36674  -0.36025  -0.35592  -0.35038  -0.34705
 Alpha  occ. eigenvalues --   -0.34446  -0.33873  -0.33708  -0.33146  -0.32784
 Alpha  occ. eigenvalues --   -0.32417  -0.31406  -0.30774  -0.30086  -0.29357
 Alpha  occ. eigenvalues --   -0.27635  -0.26811  -0.26609  -0.26304  -0.25710
 Alpha  occ. eigenvalues --   -0.25565  -0.24470  -0.23599  -0.23300  -0.22044
 Alpha  occ. eigenvalues --   -0.18561
 Alpha virt. eigenvalues --   -0.11129  -0.05890  -0.04453  -0.02140  -0.00965
 Alpha virt. eigenvalues --    0.01018   0.01428   0.02335   0.02841   0.03369
 Alpha virt. eigenvalues --    0.03824   0.04523   0.05016   0.05267   0.05414

 Mulliken charges:
               1
     1  O   -0.229164
     2  O   -0.185250
     3  O   -0.092156
     4  O   -0.275485
     5  O   -0.331606
     6  O   -0.280434
     7  N   -0.026878
     8  N   -0.169106
     9  N   -0.144694
    10  N   -0.306084
    11  C   -0.065143
    12  C    0.030294
    13  C   -0.162569
    14  C    0.021473
    15  C   -0.069595
    16  C    0.132952
    17  C   -0.050139
    18  C   -0.146217
    19  C    0.053447
    20  C   -0.100877
    21  C    0.162353
    22  C    0.063869
    23  C    0.061970
    24  C    0.128916
    25  C   -0.136383
    26  C    0.098250
    27  C    0.110311
    28  C    0.013867
    29  C   -0.007653
    30  C    0.083916
    31  C   -0.059829
    32  C   -0.004029
    33  C   -0.214916
    34  C    0.134057
    35  C   -0.056358
    36  C   -0.136680
    37  C    0.127495
    38  C   -0.018476
    39  C    0.114792
    40  C    0.079994
    41  C    0.132718
    42  C   -0.019107
    43  C    0.021034
    44  H    0.124314
    45  H    0.038853
    46  H    0.009864
    47  H    0.033847
    48  H    0.051588
    49  H    0.003291
    50  H    0.011480
    51  H    0.073122
    52  H    0.145566
    53  H    0.006185
    54  H    0.042399
    55  H   -0.013960
    56  H    0.147215
    57  H    0.047660
    58  H    0.040709
    59  H    0.042082
    60  H    0.047556
    61  H    0.068669
    62  H    0.032398
    63  H    0.001577
    64  H   -0.046023
    65  H    0.022266
    66  H    0.046140
    67  H    0.031653
    68  H    0.037662
    69  H    0.076086
    70  H    0.014203
    71  H    0.060715
    72  H   -0.022381
    73  H    0.031264
    74  H    0.018755
    75  H    0.008548
    76  H    0.024214
    77  H    0.009229
    78  H   -0.007657
    79  H    0.065113
    80  H    0.207922
    81  H    0.184999
 Sum of Mulliken charges =  -0.00000

 Dipole moment (field-independent basis, Debye):
    X=             -3.9771    Y=              1.1006    Z=             -0.5472  Tot=              4.1627
 Quadrupole moment (field-independent basis, Debye-Ang):
   XX=           -258.9203   YY=           -246.0872   ZZ=           -253.9290
   XY=             26.1625   XZ=             12.2035   YZ=            -16.8131

 Normal termination of Gaussian 16 at Tue Jul  2 11:05:01 2019.
