 Gaussian 16, Revision A.03,
 Gaussian 16:  ES64L-G16RevA.03 25-Dec-2016

 --------------------------
 # td=(NStates=1) B3LYP/SVP
 --------------------------

 --
 TD
 --
 Symbolic Z-matrix:
 Charge =  0 Multiplicity = 1

                         Standard orientation:
 ---------------------------------------------------------------------
 Center     Atomic      Atomic             Coordinates (Angstroms)
 Number     Number       Type             X           Y           Z
 ---------------------------------------------------------------------
      1          8           0       -4.285896   -4.795244    1.868009
      2          8           0        3.162419   -4.792075    1.181116
      3          8           0        7.060768   -1.335400    1.902705
      4          8           0        3.981118   -3.027286    0.046839
      5          8           0        7.396229   -0.863397   -0.324243
      6          8           0       -3.047248    2.375890   -0.375966
      7          7           0       -0.306080   -0.468912   -0.690408
      8          7           0        1.545452    1.879103   -0.397596
      9          7           0       -3.352349   -3.142896    0.716441
     10          7           0       -0.812303    2.932750   -0.191886
     11          6           0        0.691510   -2.422476   -1.287061
     12          6           0        0.891996   -1.050648   -0.985695
     13          6           0       -0.738088   -2.721449   -1.236914
     14          6           0       -1.299081   -1.459564   -0.741102
     15          6           0        3.712383    1.550859   -0.281246
     16          6           0        2.482689    0.861180   -0.523799
     17          6           0        2.156585   -0.457403   -0.938601
     18          6           0        3.509356    2.894122    0.007782
     19          6           0        1.666348   -3.421221   -1.896589
     20          6           0       -5.456616   -2.723805    1.371712
     21          6           0       -3.694762   -1.943789    0.099789
     22          6           0        1.977367    2.990950    0.077544
     23          6           0       -5.055852   -1.609006    0.425718
     24          6           0        5.059981    0.774506   -0.409813
     25          6           0       -2.655428   -1.089110   -0.378031
     26          6           0       -1.450711   -3.893097   -1.761498
     27          6           0       -4.328594   -3.757295    1.335320
     28          6           0        2.192467   -4.413414   -0.964489
     29          6           0        5.397304    0.023156    0.853081
     30          6           0        4.485806    3.920394    0.546087
     31          6           0        1.256350    4.019504    0.292924
     32          6           0       -6.790116   -3.460110    0.963012
     33          6           0       -5.858147   -0.680979    0.008993
     34          6           0       -0.084510    3.977619    0.246510
     35          6           0       -1.088941    5.125744    0.509420
     36          6           0       -2.348059    4.586088    0.337014
     37          6           0        3.152100   -3.943772    0.120445
     38          6           0       -5.538217    0.463099   -0.892784
     39          6           0        6.673784   -0.776735    0.709697
     40          6           0       -3.618810    5.438602    0.407540
     41          6           0       -2.163250    3.162618   -0.145797
     42          6           0       -0.717210    6.494254    0.944496
     43          6           0       -4.280696    5.511525   -1.124197
     44          1           0       -0.519589    0.543507   -0.337655
     45          1           0        3.169625   -1.082376   -1.042865
     46          1           0        2.687289   -3.015399   -2.205080
     47          1           0        1.066789   -4.044757   -2.748460
     48          1           0       -5.498080   -2.331204    2.384953
     49          1           0        4.927952    0.163381   -1.314346
     50          1           0        6.053251    1.563038   -0.737209
     51          1           0       -2.897065    0.011748   -0.128959
     52          1           0        0.458404    1.938264   -0.527590
     53          1           0       -1.369277   -4.729774   -0.910651
     54          1           0       -2.471233   -3.525931   -1.874463
     55          1           0       -0.804861   -4.216477   -2.544236
     56          1           0       -2.499767   -3.664890    0.717503
     57          1           0        1.516109   -4.885154   -0.605192
     58          1           0        2.772962   -5.239079   -1.455393
     59          1           0        4.500333   -0.708476    1.228707
     60          1           0        5.578874    1.026505    1.694828
     61          1           0        4.334769    4.907741    0.088262
     62          1           0        5.494963    3.705393    0.388161
     63          1           0        4.426971    4.376528    1.625703
     64          1           0        1.695841    4.963846    0.733793
     65          1           0       -7.621473   -2.890078    1.068348
     66          1           0       -6.793506   -4.420122    1.600112
     67          1           0       -6.689275   -3.750195   -0.019470
     68          1           0       -6.944156   -0.695025    0.598019
     69          1           0       -4.771368    1.249556   -0.579073
     70          1           0       -6.567451    0.847153   -1.266123
     71          1           0       -5.007151    0.080731   -1.859663
     72          1           0       -3.353138    6.442215    0.815323
     73          1           0       -4.230429    4.839504    0.982489
     74          1           0        0.194448    6.401780    1.687252
     75          1           0       -1.574947    7.154435    1.306731
     76          1           0       -0.092363    7.075885    0.059462
     77          1           0       -3.631388    6.391480   -1.583800
     78          1           0       -5.324699    5.831059   -1.399903
     79          1           0       -4.201559    4.723307   -1.870881
     80          1           0        3.567064   -4.068721    1.753998
     81          1           0        7.921344   -1.691711    1.697018
 ---------------------------------------------------------------------

 SCF Done:  E(RB3LYP) =  -1949.04306923     A.U. after   16 cycles

 Excitation energies and oscillator strengths:

 Excited State   1:      Singlet-A      1.8308 eV  677.23 nm  f=0.4167  <S**2>=0.000
     156 ->157         0.70902
     156 <-157        -0.12355
 This state for optimization and/or second-order correction.
 Total Energy, E(TD-HF/TD-DFT) =  -1948.97579023
 Copying the excited state density for this state as the 1-particle RhoCI density.

 The electronic state is 1-A.
 Alpha  occ. eigenvalues --  -19.20301 -19.18397 -19.15458 -19.12957 -19.10968
 Alpha  occ. eigenvalues --  -19.10829 -14.38665 -14.37304 -14.35421 -14.29630
 Alpha  occ. eigenvalues --  -10.34438 -10.32772 -10.27839 -10.27310 -10.25362
 Alpha  occ. eigenvalues --  -10.24772 -10.23920 -10.23692 -10.23420 -10.23170
 Alpha  occ. eigenvalues --  -10.22791 -10.22537 -10.22417 -10.21987 -10.21794
 Alpha  occ. eigenvalues --  -10.21480 -10.20987 -10.20949 -10.20748 -10.20603
 Alpha  occ. eigenvalues --  -10.20574 -10.20326 -10.20266 -10.20240 -10.20217
 Alpha  occ. eigenvalues --  -10.20181 -10.19577 -10.19222 -10.19118 -10.18880
 Alpha  occ. eigenvalues --  -10.18822 -10.17888 -10.17557  -1.11883  -1.08782
 Alpha  occ. eigenvalues --   -1.06654  -1.02898  -1.01619  -0.99848  -0.98617
 Alpha  occ. eigenvalues --   -0.97938  -0.97497  -0.92414  -0.84115  -0.82991
 Alpha  occ. eigenvalues --   -0.82781  -0.80858  -0.80013  -0.79148  -0.78950
 Alpha  occ. eigenvalues --   -0.77072  -0.76745  -0.74882  -0.73896  -0.72924
 Alpha  occ. eigenvalues --   -0.71584  -0.70199  -0.68587  -0.68321  -0.67592
 Alpha  occ. eigenvalues --   -0.66740  -0.66017  -0.65146  -0.63055  -0.62485
 Alpha  occ. eigenvalues --   -0.60167  -0.59411  -0.58597  -0.58521  -0.57247
 Alpha  occ. eigenvalues --   -0.56472  -0.55672  -0.54401  -0.54025  -0.53780
 Alpha  occ. eigenvalues --   -0.53040  -0.52368  -0.52039  -0.51789  -0.49862
 Alpha  occ. eigenvalues --   -0.49517  -0.49150  -0.48807  -0.48538  -0.48103
 Alpha  occ. eigenvalues --   -0.47281  -0.46976  -0.46187  -0.45733  -0.45689
 Alpha  occ. eigenvalues --   -0.45386  -0.44980  -0.44768  -0.44686  -0.44190
 Alpha  occ. eigenvalues --   -0.43746  -0.43482  -0.42954  -0.42674  -0.42610
 Alpha  occ. eigenvalues --   -0.41931  -0.41801  -0.41507  -0.41303  -0.41222
 Alpha  occ. eigenvalues --   -0.41024  -0.40430  -0.39945  -0.39467  -0.39409
 Alpha  occ. eigenvalues --   -0.39287  -0.38866  -0.38813  -0.38703  -0.38523
 Alpha  occ. eigenvalues --   -0.38479  -0.38187  -0.37752  -0.37063  -0.37001
 Alpha  occ. eigenvalues --   -0.36716  -0.36526  -0.35674  -0.35067  -0.34753
 Alpha  occ. eigenvalues --   -0.34452  -0.34200  -0.34008  -0.33624  -0.32860
 Alpha  occ. eigenvalues --   -0.32601  -0.32324  -0.31761  -0.30780  -0.30379
 Alpha  occ. eigenvalues --   -0.28184  -0.27951  -0.27112  -0.26817  -0.25996
 Alpha  occ. eigenvalues --   -0.25439  -0.25083  -0.24776  -0.23265  -0.22078
 Alpha  occ. eigenvalues --   -0.17698
 Alpha virt. eigenvalues --   -0.10578  -0.06563  -0.04730  -0.03183  -0.02263
 Alpha virt. eigenvalues --    0.01471   0.01655   0.02551   0.02968   0.03378
 Alpha virt. eigenvalues --    0.03772   0.04113   0.04842   0.05184   0.06015

 Mulliken charges:
               1
     1  O   -0.165971
     2  O   -0.182820
     3  O   -0.180218
     4  O   -0.256560
     5  O   -0.273644
     6  O   -0.196631
     7  N   -0.120383
     8  N   -0.084018
     9  N   -0.040310
    10  N   -0.334549
    11  C   -0.118255
    12  C    0.141450
    13  C   -0.206453
    14  C    0.077780
    15  C   -0.071890
    16  C    0.045726
    17  C   -0.118452
    18  C   -0.092166
    19  C    0.046485
    20  C   -0.110434
    21  C    0.063043
    22  C    0.083340
    23  C    0.029366
    24  C    0.007230
    25  C   -0.129372
    26  C    0.131506
    27  C    0.038814
    28  C    0.189597
    29  C   -0.088622
    30  C    0.079654
    31  C   -0.137810
    32  C    0.108914
    33  C   -0.184862
    34  C    0.087726
    35  C   -0.063594
    36  C   -0.227499
    37  C    0.119224
    38  C   -0.014095
    39  C    0.198487
    40  C    0.150352
    41  C    0.167648
    42  C    0.007070
    43  C   -0.069390
    44  H    0.177080
    45  H    0.064126
    46  H    0.031164
    47  H    0.038234
    48  H    0.036450
    49  H    0.033797
    50  H    0.048200
    51  H    0.052220
    52  H    0.166062
    53  H    0.039323
    54  H    0.047965
    55  H    0.006339
    56  H    0.114129
    57  H   -0.107854
    58  H    0.044423
    59  H    0.083779
    60  H    0.077941
    61  H    0.002855
    62  H   -0.004407
    63  H    0.027919
    64  H   -0.017649
    65  H   -0.010896
    66  H    0.041292
    67  H   -0.015046
    68  H    0.026090
    69  H    0.100054
    70  H    0.020672
    71  H    0.027167
    72  H    0.014584
    73  H    0.003092
    74  H    0.034737
    75  H    0.043854
    76  H    0.038525
    77  H    0.008193
    78  H    0.015275
    79  H    0.028768
    80  H    0.187519
    81  H    0.168613
 Sum of Mulliken charges =  -0.00000

 Dipole moment (field-independent basis, Debye):
    X=              1.6139    Y=              1.0733    Z=              0.9683  Tot=              2.1666
 Quadrupole moment (field-independent basis, Debye-Ang):
   XX=           -262.7993   YY=           -242.5686   ZZ=           -257.7019
   XY=             -6.3136   XZ=             15.6998   YZ=             17.4750

 Normal termination of Gaussian 16 at Mon Jul  1 02:17:52 2019.
