 Gaussian 16, Revision A.03,
 Gaussian 16:  ES64L-G16RevA.03 25-Dec-2016

 --------------------------
 # td=(NStates=1) B3LYP/SVP
 --------------------------

 --
 TD
 --
 Symbolic Z-matrix:
 Charge =  0 Multiplicity = 1

                         Standard orientation:
 ---------------------------------------------------------------------
 Center     Atomic      Atomic             Coordinates (Angstroms)
 Number     Number       Type             X           Y           Z
 ---------------------------------------------------------------------
      1          8           0        4.070689   -5.103844   -1.715178
      2          8           0       -3.344059   -4.995687   -0.790225
      3          8           0       -6.728727   -1.581093   -1.865697
      4          8           0       -3.972140   -2.981673    0.198567
      5          8           0       -7.583848   -0.391495   -0.139381
      6          8           0        3.128052    2.377833    0.457512
      7          7           0        0.174465   -0.455853    0.429591
      8          7           0       -1.548718    1.875417    0.310734
      9          7           0        3.246555   -3.263744   -0.684202
     10          7           0        0.854103    2.928738    0.042301
     11          6           0       -0.748892   -2.257912    1.387939
     12          6           0       -0.987793   -1.010897    0.915803
     13          6           0        0.673102   -2.592079    1.260012
     14          6           0        1.254334   -1.417293    0.644109
     15          6           0       -3.794991    1.631448    0.185788
     16          6           0       -2.473797    1.015943    0.558306
     17          6           0       -2.214376   -0.350900    0.945745
     18          6           0       -3.478396    2.954178   -0.160128
     19          6           0       -1.727357   -3.234352    2.170934
     20          6           0        5.436378   -3.140874   -1.422768
     21          6           0        3.515952   -1.971093   -0.292187
     22          6           0       -2.012033    3.169844   -0.114746
     23          6           0        5.037524   -1.782755   -0.594808
     24          6           0       -5.090355    0.982546    0.248920
     25          6           0        2.609164   -1.104273    0.207754
     26          6           0        1.315626   -3.881265    1.622758
     27          6           0        4.262015   -4.013110   -1.296017
     28          6           0       -2.247915   -4.366510    1.295289
     29          6           0       -5.360156    0.054389   -0.958321
     30          6           0       -4.406916    3.987225   -0.638887
     31          6           0       -1.230574    4.226148   -0.409219
     32          6           0        6.769441   -3.667772   -0.829597
     33          6           0        5.854207   -0.750431   -0.318523
     34          6           0        0.281155    4.133351   -0.271422
     35          6           0        1.295890    5.172800   -0.378009
     36          6           0        2.454588    4.648274   -0.140289
     37          6           0       -3.323126   -4.084098    0.162437
     38          6           0        5.483894    0.409829    0.547919
     39          6           0       -6.693199   -0.591707   -0.923155
     40          6           0        3.800792    5.277248   -0.135271
     41          6           0        2.224212    3.145442    0.208299
     42          6           0        0.960039    6.554205   -0.824812
     43          6           0        4.429360    5.648288    1.319830
     44          1           0        0.440226    0.437928    0.182037
     45          1           0       -3.146844   -0.824605    1.359962
     46          1           0       -2.522031   -2.764516    2.656589
     47          1           0       -1.224013   -3.815014    2.895764
     48          1           0        5.534339   -2.865247   -2.540876
     49          1           0       -5.011748    0.638459    1.317115
     50          1           0       -5.748384    1.739276    0.197050
     51          1           0        3.065474   -0.132679    0.337592
     52          1           0       -0.455736    2.026115    0.814336
     53          1           0        1.433120   -4.838093    0.731079
     54          1           0        2.390310   -3.714962    2.227206
     55          1           0        0.699281   -4.302876    2.375647
     56          1           0        2.289994   -3.584244   -0.666656
     57          1           0       -1.491098   -5.044641    0.932931
     58          1           0       -3.033372   -5.103149    1.955836
     59          1           0       -4.547324   -0.892268   -0.965888
     60          1           0       -5.229734    0.734829   -1.818092
     61          1           0       -3.915250    4.968833   -0.323082
     62          1           0       -5.493081    3.870793    0.005236
     63          1           0       -4.437853    3.887014   -1.939148
     64          1           0       -1.696852    5.271767   -0.568780
     65          1           0        7.650756   -3.105885   -1.011361
     66          1           0        6.876802   -4.544218   -1.455679
     67          1           0        6.628491   -3.785652    0.375113
     68          1           0        6.863164   -0.787102   -0.727323
     69          1           0        5.044812    1.293452    0.089763
     70          1           0        6.494488    0.564337    1.016085
     71          1           0        4.941889   -0.149008    1.141133
     72          1           0        3.538163    6.306731   -0.655479
     73          1           0        4.567439    4.789939   -0.678384
     74          1           0        0.321690    6.401028   -1.792567
     75          1           0        1.809960    7.126011   -1.082744
     76          1           0        0.516721    7.211331   -0.140469
     77          1           0        3.718189    6.170786    1.922189
     78          1           0        5.379608    6.194565    1.255769
     79          1           0        4.558393    4.742654    1.921284
     80          1           0       -4.223336   -4.936610   -1.289294
     81          1           0       -7.438032   -2.132355   -1.749747
 ---------------------------------------------------------------------

 SCF Done:  E(RB3LYP) =  -1949.07464308     A.U. after   17 cycles

 Excitation energies and oscillator strengths:

 Excited State   1:      Singlet-A      1.7283 eV  717.38 nm  f=0.3376  <S**2>=0.000
     156 ->157         0.71152
     156 <-157        -0.14826
 This state for optimization and/or second-order correction.
 Total Energy, E(TD-HF/TD-DFT) =  -1949.01112924
 Copying the excited state density for this state as the 1-particle RhoCI density.

 The electronic state is 1-A.
 Alpha  occ. eigenvalues --  -19.21440 -19.16778 -19.13290 -19.12488 -19.11501
 Alpha  occ. eigenvalues --  -19.11065 -14.36360 -14.35863 -14.35226 -14.30139
 Alpha  occ. eigenvalues --  -10.33983 -10.31594 -10.28878 -10.27201 -10.24469
 Alpha  occ. eigenvalues --  -10.23912 -10.23871 -10.23683 -10.22919 -10.22707
 Alpha  occ. eigenvalues --  -10.22684 -10.22528 -10.22157 -10.21372 -10.21146
 Alpha  occ. eigenvalues --  -10.20736 -10.20643 -10.20596 -10.20218 -10.20145
 Alpha  occ. eigenvalues --  -10.19915 -10.19879 -10.19738 -10.19690 -10.19638
 Alpha  occ. eigenvalues --  -10.19192 -10.19175 -10.19156 -10.18925 -10.18349
 Alpha  occ. eigenvalues --  -10.18098 -10.18009 -10.16349  -1.10943  -1.09357
 Alpha  occ. eigenvalues --   -1.05054  -1.02498  -1.00883  -0.99052  -0.97219
 Alpha  occ. eigenvalues --   -0.95908  -0.94600  -0.92236  -0.82025  -0.81358
 Alpha  occ. eigenvalues --   -0.80791  -0.80641  -0.80162  -0.78843  -0.77084
 Alpha  occ. eigenvalues --   -0.76797  -0.76226  -0.74807  -0.74254  -0.71653
 Alpha  occ. eigenvalues --   -0.70641  -0.69296  -0.68789  -0.68615  -0.67366
 Alpha  occ. eigenvalues --   -0.66430  -0.65739  -0.64767  -0.62704  -0.61468
 Alpha  occ. eigenvalues --   -0.61096  -0.60191  -0.58853  -0.57504  -0.56628
 Alpha  occ. eigenvalues --   -0.55177  -0.54608  -0.53956  -0.52897  -0.52632
 Alpha  occ. eigenvalues --   -0.52124  -0.51022  -0.50474  -0.49980  -0.49531
 Alpha  occ. eigenvalues --   -0.48736  -0.48347  -0.47919  -0.47328  -0.47229
 Alpha  occ. eigenvalues --   -0.47076  -0.46527  -0.46031  -0.45668  -0.44846
 Alpha  occ. eigenvalues --   -0.44274  -0.44052  -0.43970  -0.43591  -0.43445
 Alpha  occ. eigenvalues --   -0.43038  -0.42745  -0.42371  -0.42143  -0.42097
 Alpha  occ. eigenvalues --   -0.41766  -0.41213  -0.40865  -0.40762  -0.40420
 Alpha  occ. eigenvalues --   -0.40132  -0.39837  -0.39757  -0.39599  -0.39377
 Alpha  occ. eigenvalues --   -0.39279  -0.38866  -0.38392  -0.38330  -0.38134
 Alpha  occ. eigenvalues --   -0.37788  -0.37219  -0.37081  -0.36817  -0.36634
 Alpha  occ. eigenvalues --   -0.36323  -0.35984  -0.35711  -0.35142  -0.34840
 Alpha  occ. eigenvalues --   -0.34792  -0.34134  -0.33724  -0.33505  -0.33109
 Alpha  occ. eigenvalues --   -0.32245  -0.32194  -0.31069  -0.29364  -0.28385
 Alpha  occ. eigenvalues --   -0.28005  -0.27842  -0.26748  -0.26408  -0.25327
 Alpha  occ. eigenvalues --   -0.24813  -0.24563  -0.23984  -0.23522  -0.21623
 Alpha  occ. eigenvalues --   -0.17116
 Alpha virt. eigenvalues --   -0.10556  -0.05594  -0.03262  -0.01875   0.00126
 Alpha virt. eigenvalues --    0.00301   0.01756   0.02202   0.02523   0.03047
 Alpha virt. eigenvalues --    0.04218   0.04665   0.05235   0.05391   0.06616

 Mulliken charges:
               1
     1  O   -0.171265
     2  O   -0.159405
     3  O   -0.167658
     4  O   -0.291082
     5  O   -0.210196
     6  O   -0.190464
     7  N   -0.088637
     8  N   -0.146869
     9  N   -0.117788
    10  N   -0.333485
    11  C   -0.112765
    12  C    0.158734
    13  C   -0.119719
    14  C    0.077295
    15  C   -0.154213
    16  C   -0.009959
    17  C   -0.081987
    18  C   -0.106620
    19  C    0.246178
    20  C   -0.105950
    21  C    0.045633
    22  C    0.144533
    23  C   -0.016340
    24  C    0.222512
    25  C   -0.059825
    26  C   -0.018145
    27  C    0.129860
    28  C   -0.085573
    29  C   -0.073214
    30  C   -0.045080
    31  C   -0.134515
    32  C    0.047795
    33  C   -0.214402
    34  C    0.034661
    35  C   -0.070011
    36  C   -0.175959
    37  C    0.152405
    38  C    0.164394
    39  C    0.152745
    40  C    0.041839
    41  C    0.176075
    42  C    0.133779
    43  C    0.005083
    44  H    0.101846
    45  H    0.015769
    46  H   -0.013110
    47  H   -0.011339
    48  H    0.062951
    49  H    0.033672
    50  H   -0.063730
    51  H   -0.010622
    52  H    0.223882
    53  H    0.059787
    54  H    0.055371
    55  H   -0.009791
    56  H    0.124698
    57  H    0.026242
    58  H    0.046954
    59  H    0.108452
    60  H    0.043343
    61  H    0.033979
    62  H    0.061678
    63  H    0.067017
    64  H    0.012571
    65  H    0.011282
    66  H    0.020909
    67  H    0.045437
    68  H   -0.018945
    69  H    0.078911
    70  H    0.001392
    71  H   -0.016043
    72  H    0.003878
    73  H    0.010405
    74  H    0.037265
    75  H   -0.018731
    76  H    0.008598
    77  H   -0.003429
    78  H    0.022566
    79  H    0.020563
    80  H    0.214850
    81  H    0.139074
 Sum of Mulliken charges =  -0.00000

 Dipole moment (field-independent basis, Debye):
    X=             -1.3553    Y=              0.4306    Z=              0.0576  Tot=              1.4232
 Quadrupole moment (field-independent basis, Debye-Ang):
   XX=           -251.2524   YY=           -232.2751   ZZ=           -252.1068
   XY=             24.5253   XZ=              8.8780   YZ=             -9.2448

 Normal termination of Gaussian 16 at Fri Jun 28 17:10:37 2019.
