 Gaussian 16, Revision A.03,
 Gaussian 16:  ES64L-G16RevA.03 25-Dec-2016

 --------------------------
 # td=(NStates=1) B3LYP/SVP
 --------------------------

 --
 TD
 --
 Symbolic Z-matrix:
 Charge =  0 Multiplicity = 1

                         Standard orientation:
 ---------------------------------------------------------------------
 Center     Atomic      Atomic             Coordinates (Angstroms)
 Number     Number       Type             X           Y           Z
 ---------------------------------------------------------------------
      1          8           0        4.547869   -4.619691   -1.942216
      2          8           0       -2.608760   -5.065261   -1.039828
      3          8           0       -6.896448   -1.680820   -1.949981
      4          8           0       -3.551548   -3.281259    0.052535
      5          8           0       -7.604059   -0.825025    0.035487
      6          8           0        2.956415    2.452827    0.327678
      7          7           0        0.226607   -0.457347    0.610470
      8          7           0       -1.589677    1.748355    0.390948
      9          7           0        3.328301   -2.982087   -0.731160
     10          7           0        0.662417    2.877160    0.022391
     11          6           0       -0.533552   -2.411743    1.359814
     12          6           0       -0.890468   -1.079681    0.951798
     13          6           0        0.870402   -2.545501    1.138509
     14          6           0        1.366135   -1.397176    0.643082
     15          6           0       -3.842546    1.361993    0.361362
     16          6           0       -2.519704    0.710292    0.576267
     17          6           0       -2.140223   -0.513473    0.808882
     18          6           0       -3.622036    2.727727    0.097715
     19          6           0       -1.389769   -3.328485    2.123564
     20          6           0        5.591086   -2.523202   -1.282459
     21          6           0        3.631330   -1.687693   -0.136041
     22          6           0       -2.213201    2.907581   -0.021002
     23          6           0        5.036052   -1.372701   -0.471901
     24          6           0       -5.154579    0.612987    0.319835
     25          6           0        2.705313   -0.970591    0.432702
     26          6           0        1.656019   -3.730351    1.605680
     27          6           0        4.488925   -3.555321   -1.385114
     28          6           0       -1.782086   -4.488908    1.178785
     29          6           0       -5.414987   -0.329065   -0.870436
     30          6           0       -4.687828    3.593228   -0.403805
     31          6           0       -1.443318    3.982552   -0.243693
     32          6           0        6.997295   -3.087034   -0.755639
     33          6           0        5.797382   -0.348036   -0.061181
     34          6           0       -0.104397    3.998921   -0.246433
     35          6           0        0.768645    5.205873   -0.434826
     36          6           0        2.074392    4.655512   -0.272826
     37          6           0       -2.709803   -4.202670   -0.034649
     38          6           0        5.433436    0.735328    0.937762
     39          6           0       -6.758907   -0.913247   -0.808712
     40          6           0        3.416677    5.353379   -0.388842
     41          6           0        1.948590    3.136388   -0.013248
     42          6           0        0.330836    6.555616   -0.826027
     43          6           0        3.873479    5.879555    1.023603
     44          1           0        0.252007    0.368204   -0.072498
     45          1           0       -3.007165   -1.383384    0.677842
     46          1           0       -2.353675   -2.642967    2.238202
     47          1           0       -1.098995   -3.700510    3.089794
     48          1           0        5.763137   -2.360168   -2.440986
     49          1           0       -5.368927    0.212002    1.213288
     50          1           0       -6.124187    1.273267    0.314314
     51          1           0        2.933379    0.119703    0.450029
     52          1           0       -0.555842    1.704018    0.498037
     53          1           0        1.524205   -4.764722    0.958536
     54          1           0        2.796957   -3.645145    1.576794
     55          1           0        1.177611   -4.103496    2.574701
     56          1           0        2.528963   -3.194362   -0.567263
     57          1           0       -0.906907   -4.918281    0.697268
     58          1           0       -2.586175   -5.166132    1.799462
     59          1           0       -4.717797   -1.093672   -0.827188
     60          1           0       -4.971926    0.285487   -1.619670
     61          1           0       -4.922653    4.605367    0.064429
     62          1           0       -5.660330    2.858360   -0.039230
     63          1           0       -4.774645    3.774959   -1.561792
     64          1           0       -1.791384    5.111345   -0.383491
     65          1           0        7.909727   -2.508053   -0.965448
     66          1           0        7.212535   -3.994700   -1.347219
     67          1           0        7.011552   -3.188320    0.434260
     68          1           0        6.801707   -0.216395   -0.697928
     69          1           0        4.791965    1.389825    0.457745
     70          1           0        6.249429    0.969392    1.264754
     71          1           0        4.614117    0.420015    1.657377
     72          1           0        3.389035    6.037008   -1.356794
     73          1           0        4.140335    4.520508   -0.416033
     74          1           0       -0.135698    6.469071   -1.914212
     75          1           0        1.248116    7.259772   -0.759024
     76          1           0       -0.595653    6.889575   -0.366000
     77          1           0        3.376043    6.712986    1.308709
     78          1           0        5.084533    6.069557    0.802986
     79          1           0        3.962111    4.879128    1.777883
     80          1           0       -3.213474   -4.842194   -1.796764
     81          1           0       -7.794864   -1.948113   -2.057973
 ---------------------------------------------------------------------

 SCF Done:  E(RB3LYP) =  -1949.00427355     A.U. after   16 cycles

 Excitation energies and oscillator strengths:

 Excited State   1:      Singlet-A      1.8140 eV  683.47 nm  f=0.3304  <S**2>=0.000
     156 ->157         0.70691
     156 <-157        -0.10634
 This state for optimization and/or second-order correction.
 Total Energy, E(TD-HF/TD-DFT) =  -1948.93760908
 Copying the excited state density for this state as the 1-particle RhoCI density.

 The electronic state is 1-A.
 Alpha  occ. eigenvalues --  -19.21611 -19.17774 -19.14366 -19.14161 -19.11319
 Alpha  occ. eigenvalues --  -19.09495 -14.37540 -14.35886 -14.34620 -14.28273
 Alpha  occ. eigenvalues --  -10.34511 -10.33154 -10.29811 -10.25778 -10.24523
 Alpha  occ. eigenvalues --  -10.23597 -10.23241 -10.23183 -10.23119 -10.23029
 Alpha  occ. eigenvalues --  -10.22672 -10.22321 -10.21659 -10.21625 -10.21532
 Alpha  occ. eigenvalues --  -10.21411 -10.21150 -10.21113 -10.20774 -10.20170
 Alpha  occ. eigenvalues --  -10.20078 -10.20064 -10.20046 -10.19939 -10.19685
 Alpha  occ. eigenvalues --  -10.19678 -10.19415 -10.19191 -10.19048 -10.18947
 Alpha  occ. eigenvalues --  -10.18707 -10.17820 -10.15189  -1.11557  -1.09944
 Alpha  occ. eigenvalues --   -1.03589  -1.01976  -1.01243  -0.99002  -0.98500
 Alpha  occ. eigenvalues --   -0.97272  -0.94696  -0.91156  -0.83347  -0.83141
 Alpha  occ. eigenvalues --   -0.82382  -0.81607  -0.80372  -0.79180  -0.78435
 Alpha  occ. eigenvalues --   -0.77344  -0.77106  -0.75214  -0.74324  -0.72790
 Alpha  occ. eigenvalues --   -0.71324  -0.69696  -0.69333  -0.68509  -0.68320
 Alpha  occ. eigenvalues --   -0.67108  -0.66670  -0.65875  -0.62239  -0.62150
 Alpha  occ. eigenvalues --   -0.61320  -0.59727  -0.58937  -0.58267  -0.57090
 Alpha  occ. eigenvalues --   -0.56613  -0.56255  -0.55440  -0.53543  -0.52457
 Alpha  occ. eigenvalues --   -0.52254  -0.51742  -0.51576  -0.50892  -0.50568
 Alpha  occ. eigenvalues --   -0.49723  -0.49366  -0.49154  -0.48698  -0.48056
 Alpha  occ. eigenvalues --   -0.47588  -0.46862  -0.46751  -0.46265  -0.45586
 Alpha  occ. eigenvalues --   -0.45132  -0.44546  -0.44070  -0.43798  -0.43546
 Alpha  occ. eigenvalues --   -0.43263  -0.43165  -0.42709  -0.42469  -0.42155
 Alpha  occ. eigenvalues --   -0.41976  -0.41547  -0.41329  -0.40992  -0.40408
 Alpha  occ. eigenvalues --   -0.40166  -0.40092  -0.39821  -0.39590  -0.39453
 Alpha  occ. eigenvalues --   -0.39015  -0.38791  -0.38658  -0.38446  -0.38125
 Alpha  occ. eigenvalues --   -0.37811  -0.37665  -0.37343  -0.37128  -0.36041
 Alpha  occ. eigenvalues --   -0.35781  -0.35529  -0.35346  -0.34830  -0.34339
 Alpha  occ. eigenvalues --   -0.33845  -0.33746  -0.33662  -0.33515  -0.33026
 Alpha  occ. eigenvalues --   -0.32710  -0.32159  -0.31123  -0.30030  -0.29961
 Alpha  occ. eigenvalues --   -0.28919  -0.27065  -0.26742  -0.26285  -0.25961
 Alpha  occ. eigenvalues --   -0.25404  -0.24649  -0.23283  -0.22479  -0.21644
 Alpha  occ. eigenvalues --   -0.18541
 Alpha virt. eigenvalues --   -0.11218  -0.05681  -0.03555  -0.02263  -0.00963
 Alpha virt. eigenvalues --   -0.00076   0.01289   0.02324   0.02636   0.03299
 Alpha virt. eigenvalues --    0.03940   0.04481   0.05089   0.05824   0.06255

 Mulliken charges:
               1
     1  O   -0.186993
     2  O   -0.160876
     3  O   -0.202108
     4  O   -0.274304
     5  O   -0.195377
     6  O   -0.280415
     7  N   -0.128713
     8  N   -0.143272
     9  N   -0.072936
    10  N   -0.281567
    11  C   -0.120739
    12  C    0.046530
    13  C   -0.082135
    14  C    0.047570
    15  C   -0.052707
    16  C    0.112220
    17  C   -0.149675
    18  C   -0.056822
    19  C    0.102069
    20  C   -0.099128
    21  C    0.081860
    22  C    0.177063
    23  C    0.038997
    24  C    0.064900
    25  C   -0.123178
    26  C   -0.012903
    27  C    0.188900
    28  C   -0.011465
    29  C    0.052755
    30  C   -0.043946
    31  C   -0.144554
    32  C    0.015576
    33  C   -0.226591
    34  C    0.056743
    35  C   -0.082378
    36  C   -0.215576
    37  C    0.130830
    38  C    0.215278
    39  C    0.172524
    40  C    0.047419
    41  C    0.175116
    42  C    0.070309
    43  C   -0.056737
    44  H    0.164221
    45  H    0.099261
    46  H    0.028409
    47  H    0.021773
    48  H    0.057902
    49  H   -0.019521
    50  H    0.018973
    51  H    0.019801
    52  H    0.140664
    53  H    0.040217
    54  H    0.054995
    55  H    0.028825
    56  H   -0.006014
    57  H    0.031720
    58  H    0.068732
    59  H    0.015227
    60  H    0.029321
    61  H    0.034507
    62  H    0.033045
    63  H    0.052253
    64  H   -0.005926
    65  H    0.012157
    66  H    0.028039
    67  H    0.038359
    68  H    0.020146
    69  H    0.043625
    70  H   -0.060405
    71  H    0.017517
    72  H    0.035412
    73  H    0.009427
    74  H    0.027330
    75  H    0.049004
    76  H    0.012899
    77  H    0.007741
    78  H    0.022759
    79  H    0.062758
    80  H    0.211023
    81  H    0.162264
 Sum of Mulliken charges =  -0.00000

 Dipole moment (field-independent basis, Debye):
    X=             -4.0197    Y=             -0.1916    Z=             -1.5084  Tot=              4.2977
 Quadrupole moment (field-independent basis, Debye-Ang):
   XX=           -251.5048   YY=           -243.8098   ZZ=           -252.9610
   XY=             12.5292   XZ=             17.4723   YZ=            -11.5687

 Normal termination of Gaussian 16 at Sat Jun 29 20:50:49 2019.
