 Gaussian 16, Revision A.03,
 Gaussian 16:  ES64L-G16RevA.03 25-Dec-2016

 --------------------------
 # td=(NStates=1) B3LYP/SVP
 --------------------------

 --
 TD
 --
 Symbolic Z-matrix:
 Charge =  0 Multiplicity = 1

                         Standard orientation:
 ---------------------------------------------------------------------
 Center     Atomic      Atomic             Coordinates (Angstroms)
 Number     Number       Type             X           Y           Z
 ---------------------------------------------------------------------
      1          8           0       -4.416959   -4.671838    1.977942
      2          8           0        3.015211   -5.179669    1.017585
      3          8           0        6.891292   -1.637680    1.990680
      4          8           0        3.719899   -3.246557   -0.018415
      5          8           0        7.527454   -0.715384    0.022742
      6          8           0       -2.945370    2.492596   -0.420301
      7          7           0       -0.283538   -0.437421   -0.498396
      8          7           0        1.561054    1.775902   -0.422515
      9          7           0       -3.433140   -3.052507    0.751597
     10          7           0       -0.731103    2.894039   -0.186136
     11          6           0        0.574238   -2.369988   -1.388127
     12          6           0        0.892969   -0.979657   -0.882575
     13          6           0       -0.825128   -2.493831   -1.252333
     14          6           0       -1.366120   -1.375414   -0.758052
     15          6           0        3.914164    1.463299   -0.292738
     16          6           0        2.550837    0.833117   -0.616825
     17          6           0        2.202539   -0.521370   -0.934237
     18          6           0        3.629802    2.769007   -0.058869
     19          6           0        1.563314   -3.359934   -2.001397
     20          6           0       -5.729497   -2.679641    1.386731
     21          6           0       -3.666340   -1.755552    0.228266
     22          6           0        2.216367    2.979641   -0.065519
     23          6           0       -5.095448   -1.515336    0.547889
     24          6           0        5.040794    0.609597   -0.411811
     25          6           0       -2.651874   -0.953677   -0.325283
     26          6           0       -1.555938   -3.762729   -1.767176
     27          6           0       -4.465556   -3.658882    1.389761
     28          6           0        1.920966   -4.452541   -1.046976
     29          6           0        5.298495   -0.156643    0.821526
     30          6           0        4.671662    3.755244    0.419931
     31          6           0        1.427367    4.059723    0.272462
     32          6           0       -6.881026   -3.378150    0.730163
     33          6           0       -5.877963   -0.457009    0.093032
     34          6           0       -0.024081    4.000907    0.270550
     35          6           0       -0.937177    5.170067    0.551354
     36          6           0       -2.215841    4.706380    0.281319
     37          6           0        3.019965   -4.202883   -0.022372
     38          6           0       -5.486192    0.682140   -0.868388
     39          6           0        6.691584   -0.803979    0.864309
     40          6           0       -3.561792    5.340455    0.300171
     41          6           0       -2.076823    3.274403   -0.147671
     42          6           0       -0.501816    6.549646    1.053801
     43          6           0       -3.987295    5.590540   -1.129318
     44          1           0       -0.330712    0.528702   -0.175320
     45          1           0        3.007636   -1.258258   -1.323664
     46          1           0        2.593168   -3.191991   -2.433145
     47          1           0        1.095345   -3.893103   -2.922868
     48          1           0       -5.744481   -2.355207    2.532387
     49          1           0        5.306963    0.044623   -1.412730
     50          1           0        5.890373    1.380139   -0.575193
     51          1           0       -2.925430    0.307003   -0.291624
     52          1           0        0.430791    2.079781   -0.648882
     53          1           0       -1.496720   -4.635902   -1.146362
     54          1           0       -2.788920   -3.526050   -1.721449
     55          1           0       -1.315850   -4.037170   -2.938249
     56          1           0       -2.465450   -3.422397    1.043030
     57          1           0        1.043030   -4.964026   -0.514523
     58          1           0        2.515557   -5.189595   -1.525637
     59          1           0        4.488552   -0.985745    1.030850
     60          1           0        5.289989    0.714801    1.613901
     61          1           0        4.844250    4.690316   -0.326181
     62          1           0        5.620411    3.287558    0.453529
     63          1           0        4.566858    4.111638    1.425037
     64          1           0        1.818337    4.985782    0.629419
     65          1           0       -7.685625   -2.661029    0.517753
     66          1           0       -7.154532   -4.154629    1.385103
     67          1           0       -6.634471   -3.708763   -0.380107
     68          1           0       -6.941553   -0.575357    0.255060
     69          1           0       -5.149038    1.409911   -0.123204
     70          1           0       -6.436647    0.879742   -1.506932
     71          1           0       -4.573481    0.051736   -1.347874
     72          1           0       -3.612152    6.170175    1.116829
     73          1           0       -4.281532    4.564130    0.764115
     74          1           0       -0.200900    6.459724    2.265776
     75          1           0       -1.261020    7.426481    1.071632
     76          1           0        0.673350    7.012345    0.681909
     77          1           0       -3.091886    6.150755   -1.766379
     78          1           0       -4.870953    6.422438   -1.054598
     79          1           0       -4.252361    4.685077   -1.618842
     80          1           0        3.891517   -4.810160    1.571952
     81          1           0        7.757506   -2.026996    1.872181
 ---------------------------------------------------------------------

 SCF Done:  E(RB3LYP) =  -1949.07725981     A.U. after   17 cycles

 Excitation energies and oscillator strengths:

 Excited State   1:      Singlet-A      1.6742 eV  740.56 nm  f=0.3684  <S**2>=0.000
     156 ->157         0.71579
     156 <-157        -0.15191
 This state for optimization and/or second-order correction.
 Total Energy, E(TD-HF/TD-DFT) =  -1949.01573396
 Copying the excited state density for this state as the 1-particle RhoCI density.

 The electronic state is 1-A.
 Alpha  occ. eigenvalues --  -19.19107 -19.17134 -19.15057 -19.13723 -19.10742
 Alpha  occ. eigenvalues --  -19.10727 -14.37265 -14.37057 -14.34666 -14.30354
 Alpha  occ. eigenvalues --  -10.33201 -10.32440 -10.28184 -10.26905 -10.25163
 Alpha  occ. eigenvalues --  -10.23836 -10.23751 -10.23741 -10.23334 -10.23276
 Alpha  occ. eigenvalues --  -10.23240 -10.22315 -10.22179 -10.21855 -10.21596
 Alpha  occ. eigenvalues --  -10.21569 -10.21376 -10.21273 -10.20953 -10.20693
 Alpha  occ. eigenvalues --  -10.20638 -10.20563 -10.20342 -10.20179 -10.20167
 Alpha  occ. eigenvalues --  -10.20062 -10.20019 -10.19937 -10.19923 -10.19596
 Alpha  occ. eigenvalues --  -10.19343 -10.19192 -10.19154  -1.09580  -1.08994
 Alpha  occ. eigenvalues --   -1.05390  -1.03154  -1.00686  -1.00428  -0.97273
 Alpha  occ. eigenvalues --   -0.95509  -0.94778  -0.91119  -0.83212  -0.82424
 Alpha  occ. eigenvalues --   -0.81171  -0.80465  -0.79942  -0.79011  -0.77623
 Alpha  occ. eigenvalues --   -0.77021  -0.75902  -0.74707  -0.73757  -0.71217
 Alpha  occ. eigenvalues --   -0.70289  -0.69038  -0.68432  -0.67992  -0.67051
 Alpha  occ. eigenvalues --   -0.66563  -0.64703  -0.62836  -0.61645  -0.60878
 Alpha  occ. eigenvalues --   -0.58981  -0.58633  -0.57852  -0.56886  -0.55964
 Alpha  occ. eigenvalues --   -0.55276  -0.55015  -0.54210  -0.52985  -0.52407
 Alpha  occ. eigenvalues --   -0.52100  -0.50733  -0.50475  -0.50195  -0.49577
 Alpha  occ. eigenvalues --   -0.49467  -0.48450  -0.48183  -0.47996  -0.46957
 Alpha  occ. eigenvalues --   -0.46653  -0.46289  -0.46199  -0.45182  -0.44467
 Alpha  occ. eigenvalues --   -0.44218  -0.44105  -0.43978  -0.43695  -0.43533
 Alpha  occ. eigenvalues --   -0.43095  -0.42708  -0.42627  -0.42263  -0.41934
 Alpha  occ. eigenvalues --   -0.41727  -0.41558  -0.41421  -0.41258  -0.40859
 Alpha  occ. eigenvalues --   -0.40604  -0.40365  -0.39839  -0.39531  -0.39440
 Alpha  occ. eigenvalues --   -0.39082  -0.38871  -0.38766  -0.38384  -0.38131
 Alpha  occ. eigenvalues --   -0.37934  -0.37490  -0.37168  -0.36921  -0.36708
 Alpha  occ. eigenvalues --   -0.36481  -0.35992  -0.35775  -0.34763  -0.34452
 Alpha  occ. eigenvalues --   -0.33791  -0.33658  -0.33316  -0.33060  -0.32650
 Alpha  occ. eigenvalues --   -0.32407  -0.31550  -0.31481  -0.30085  -0.29371
 Alpha  occ. eigenvalues --   -0.28948  -0.28887  -0.26557  -0.25797  -0.25720
 Alpha  occ. eigenvalues --   -0.25159  -0.25071  -0.24568  -0.23449  -0.21656
 Alpha  occ. eigenvalues --   -0.17179
 Alpha virt. eigenvalues --   -0.10803  -0.06165  -0.04077  -0.00819  -0.00157
 Alpha virt. eigenvalues --    0.01033   0.01518   0.01911   0.02798   0.03087
 Alpha virt. eigenvalues --    0.03679   0.04209   0.04690   0.05599   0.05931

 Mulliken charges:
               1
     1  O   -0.170464
     2  O   -0.294793
     3  O   -0.229741
     4  O   -0.191857
     5  O   -0.193326
     6  O   -0.190400
     7  N   -0.088970
     8  N   -0.236610
     9  N   -0.145080
    10  N   -0.335865
    11  C   -0.083621
    12  C    0.084793
    13  C   -0.124993
    14  C    0.136680
    15  C   -0.023999
    16  C    0.059064
    17  C   -0.099685
    18  C   -0.112310
    19  C    0.087572
    20  C   -0.087858
    21  C    0.104286
    22  C    0.141608
    23  C   -0.079881
    24  C    0.004824
    25  C   -0.192956
    26  C   -0.016520
    27  C    0.057364
    28  C    0.004194
    29  C   -0.029362
    30  C    0.085161
    31  C   -0.087702
    32  C    0.081415
    33  C   -0.167376
    34  C    0.052238
    35  C   -0.020507
    36  C   -0.192406
    37  C    0.125432
    38  C    0.029238
    39  C    0.146296
    40  C    0.053512
    41  C    0.156953
    42  C   -0.075319
    43  C   -0.046540
    44  H    0.128714
    45  H    0.043788
    46  H    0.019338
    47  H    0.016792
    48  H    0.064635
    49  H    0.048615
    50  H    0.012563
    51  H    0.120769
    52  H    0.232385
    53  H    0.028020
    54  H    0.044563
    55  H    0.055937
    56  H    0.157573
    57  H    0.052620
    58  H    0.015825
    59  H    0.088804
    60  H    0.053977
    61  H    0.036702
    62  H   -0.015716
    63  H    0.020673
    64  H   -0.048467
    65  H    0.011386
    66  H    0.026646
    67  H    0.028615
    68  H   -0.012978
    69  H    0.071971
    70  H    0.040308
    71  H    0.069304
    72  H    0.014865
    73  H    0.022746
    74  H    0.045519
    75  H    0.052338
    76  H    0.053579
    77  H    0.034167
    78  H    0.030259
    79  H    0.044245
    80  H    0.227812
    81  H    0.168619
 Sum of Mulliken charges =  -0.00000

 Dipole moment (field-independent basis, Debye):
    X=              2.0488    Y=              1.1856    Z=              0.1968  Tot=              2.3753
 Quadrupole moment (field-independent basis, Debye-Ang):
   XX=           -246.9329   YY=           -242.8398   ZZ=           -256.8018
   XY=            -15.2125   XZ=             10.2380   YZ=             19.1597

 Normal termination of Gaussian 16 at Wed Jul  3 03:06:05 2019.
