 Gaussian 16, Revision A.03,
 Gaussian 16:  ES64L-G16RevA.03 25-Dec-2016

 --------------------------
 # td=(NStates=1) B3LYP/SVP
 --------------------------

 --
 TD
 --
 Symbolic Z-matrix:
 Charge =  0 Multiplicity = 1

                         Standard orientation:
 ---------------------------------------------------------------------
 Center     Atomic      Atomic             Coordinates (Angstroms)
 Number     Number       Type             X           Y           Z
 ---------------------------------------------------------------------
      1          8           0        4.193590   -4.816236   -2.156674
      2          8           0       -2.829590   -4.915656   -1.066876
      3          8           0       -7.152017   -1.361054   -1.894969
      4          8           0       -3.712551   -3.053894   -0.133270
      5          8           0       -7.498173   -0.307621    0.085711
      6          8           0        3.052996    2.418110    0.518062
      7          7           0        0.357182   -0.597273    0.556815
      8          7           0       -1.501959    1.774813    0.291144
      9          7           0        3.336539   -2.996805   -0.781291
     10          7           0        0.805406    2.931736    0.066212
     11          6           0       -0.621266   -2.463380    1.506070
     12          6           0       -0.877583   -1.167958    1.002739
     13          6           0        0.732261   -2.629390    1.334729
     14          6           0        1.379438   -1.454676    0.677881
     15          6           0       -3.789385    1.523701    0.354670
     16          6           0       -2.423015    0.864863    0.562960
     17          6           0       -2.176093   -0.456128    0.870194
     18          6           0       -3.437070    2.859071    0.024791
     19          6           0       -1.798923   -3.354325    2.063653
     20          6           0        5.511088   -2.733057   -1.206465
     21          6           0        3.658114   -1.889930   -0.193622
     22          6           0       -2.080595    2.939230   -0.054015
     23          6           0        5.009154   -1.649044   -0.427025
     24          6           0       -5.066149    0.711840    0.207381
     25          6           0        2.643369   -1.122169    0.360169
     26          6           0        1.341240   -3.959075    1.658564
     27          6           0        4.238971   -3.634553   -1.571585
     28          6           0       -2.217013   -4.464154    1.254853
     29          6           0       -5.353910   -0.175488   -0.970614
     30          6           0       -4.454906    3.949442   -0.307883
     31          6           0       -1.264268    4.053283   -0.401666
     32          6           0        6.770547   -3.507945   -0.706634
     33          6           0        5.792187   -0.611932   -0.010829
     34          6           0        0.132262    4.078333   -0.298646
     35          6           0        1.111470    5.113332   -0.598844
     36          6           0        2.342370    4.651364   -0.339406
     37          6           0       -3.024508   -4.075808   -0.027865
     38          6           0        5.310077    0.617903    0.741650
     39          6           0       -6.711754   -0.647467   -0.747264
     40          6           0        3.848479    5.242390   -0.347557
     41          6           0        2.176430    3.120795    0.096242
     42          6           0        0.703194    6.481493   -0.844048
     43          6           0        4.113207    5.713549    1.210289
     44          1           0        0.310302    0.358952    0.007084
     45          1           0       -2.919387   -0.906807    1.378024
     46          1           0       -2.631416   -2.640452    2.084939
     47          1           0       -1.449850   -3.673035    3.263581
     48          1           0        5.892394   -2.336458   -2.218390
     49          1           0       -5.391477    0.149769    1.243619
     50          1           0       -5.918509    1.377377    0.256575
     51          1           0        2.892405   -0.111396    0.452322
     52          1           0       -0.573909    1.716979    0.378369
     53          1           0        1.499705   -4.878593    0.843419
     54          1           0        2.282937   -3.867394    2.066227
     55          1           0        0.635953   -4.576520    2.512410
     56          1           0        2.371931   -3.562704   -1.019059
     57          1           0       -1.626932   -5.161933    0.871222
     58          1           0       -2.878718   -5.153318    1.852458
     59          1           0       -4.494129   -1.027217   -1.086165
     60          1           0       -5.304487    0.430985   -1.942923
     61          1           0       -4.467267    4.863506    0.328724
     62          1           0       -5.522545    3.537506   -0.035160
     63          1           0       -4.394614    4.291625   -1.474706
     64          1           0       -1.805656    4.875652   -0.669617
     65          1           0        7.584121   -2.777849   -0.791321
     66          1           0        6.929233   -4.580736   -1.085248
     67          1           0        6.569459   -3.682899    0.544505
     68          1           0        6.862471   -0.475413   -0.334763
     69          1           0        4.746742    1.426276    0.162990
     70          1           0        6.192133    0.987387    1.229167
     71          1           0        4.579920    0.446868    1.724963
     72          1           0        3.927882    6.120922   -1.106582
     73          1           0        4.501821    4.387933   -0.752260
     74          1           0        0.202480    6.616334   -1.866190
     75          1           0        1.712544    6.921962   -0.891857
     76          1           0        0.095132    7.020207   -0.165369
     77          1           0        3.141950    6.066170    1.627724
     78          1           0        5.177021    6.312376    1.110233
     79          1           0        4.256211    4.800498    2.030891
     80          1           0       -3.459645   -4.618879   -1.742820
     81          1           0       -8.044961   -1.718817   -1.770234
 ---------------------------------------------------------------------

 SCF Done:  E(RB3LYP) =  -1949.01163926     A.U. after   17 cycles

 Excitation energies and oscillator strengths:

 Excited State   1:      Singlet-A      1.6237 eV  763.57 nm  f=0.3361  <S**2>=0.000
     156 ->157         0.71148
     156 <-157        -0.13161
 This state for optimization and/or second-order correction.
 Total Energy, E(TD-HF/TD-DFT) =  -1948.95196790
 Copying the excited state density for this state as the 1-particle RhoCI density.

 The electronic state is 1-A.
 Alpha  occ. eigenvalues --  -19.20763 -19.16542 -19.14663 -19.13916 -19.11815
 Alpha  occ. eigenvalues --  -19.10214 -14.39581 -14.38715 -14.35852 -14.27274
 Alpha  occ. eigenvalues --  -10.34326 -10.32453 -10.30103 -10.25894 -10.24959
 Alpha  occ. eigenvalues --  -10.24317 -10.23676 -10.23375 -10.23329 -10.23297
 Alpha  occ. eigenvalues --  -10.21984 -10.21949 -10.21854 -10.21720 -10.21663
 Alpha  occ. eigenvalues --  -10.21363 -10.21297 -10.21199 -10.21112 -10.20979
 Alpha  occ. eigenvalues --  -10.20957 -10.20914 -10.20853 -10.20432 -10.20413
 Alpha  occ. eigenvalues --  -10.20339 -10.19966 -10.18513 -10.18288 -10.18238
 Alpha  occ. eigenvalues --  -10.18179 -10.18056 -10.17936  -1.11607  -1.08635
 Alpha  occ. eigenvalues --   -1.02984  -1.01885  -1.01637  -1.00733  -1.00194
 Alpha  occ. eigenvalues --   -0.98035  -0.95595  -0.90165  -0.83446  -0.82933
 Alpha  occ. eigenvalues --   -0.82375  -0.81625  -0.80210  -0.79088  -0.78727
 Alpha  occ. eigenvalues --   -0.77909  -0.76217  -0.74357  -0.73233  -0.72183
 Alpha  occ. eigenvalues --   -0.70668  -0.70346  -0.68967  -0.68288  -0.67848
 Alpha  occ. eigenvalues --   -0.66507  -0.66161  -0.63746  -0.63653  -0.61480
 Alpha  occ. eigenvalues --   -0.60757  -0.60431  -0.59040  -0.58436  -0.57613
 Alpha  occ. eigenvalues --   -0.56537  -0.55433  -0.55207  -0.54137  -0.53164
 Alpha  occ. eigenvalues --   -0.52262  -0.51976  -0.51595  -0.50696  -0.50616
 Alpha  occ. eigenvalues --   -0.49806  -0.48932  -0.48506  -0.48071  -0.47688
 Alpha  occ. eigenvalues --   -0.47319  -0.46755  -0.46604  -0.45854  -0.45512
 Alpha  occ. eigenvalues --   -0.44920  -0.44605  -0.44418  -0.43581  -0.43410
 Alpha  occ. eigenvalues --   -0.43100  -0.42846  -0.42810  -0.42419  -0.42170
 Alpha  occ. eigenvalues --   -0.41803  -0.41688  -0.41103  -0.40737  -0.40367
 Alpha  occ. eigenvalues --   -0.40342  -0.40124  -0.39635  -0.39593  -0.39463
 Alpha  occ. eigenvalues --   -0.39214  -0.39077  -0.38845  -0.38451  -0.37964
 Alpha  occ. eigenvalues --   -0.37698  -0.37267  -0.37105  -0.36474  -0.36257
 Alpha  occ. eigenvalues --   -0.35985  -0.35699  -0.35374  -0.35221  -0.34559
 Alpha  occ. eigenvalues --   -0.34129  -0.33612  -0.33224  -0.33122  -0.32722
 Alpha  occ. eigenvalues --   -0.32611  -0.31597  -0.31480  -0.30391  -0.29578
 Alpha  occ. eigenvalues --   -0.29278  -0.27190  -0.26543  -0.26065  -0.25778
 Alpha  occ. eigenvalues --   -0.25678  -0.24888  -0.22857  -0.22468  -0.21025
 Alpha  occ. eigenvalues --   -0.17374
 Alpha virt. eigenvalues --   -0.10843  -0.06529  -0.04492  -0.02465  -0.02013
 Alpha virt. eigenvalues --   -0.01468   0.01167   0.01670   0.03573   0.03799
 Alpha virt. eigenvalues --    0.04174   0.04240   0.05086   0.05392   0.05553

 Mulliken charges:
               1
     1  O   -0.307974
     2  O   -0.160327
     3  O   -0.251948
     4  O   -0.248261
     5  O   -0.199253
     6  O   -0.206942
     7  N   -0.122522
     8  N    0.085629
     9  N   -0.085844
    10  N   -0.349668
    11  C   -0.049434
    12  C   -0.015822
    13  C   -0.146913
    14  C    0.180676
    15  C   -0.031649
    16  C   -0.008652
    17  C    0.072195
    18  C   -0.106500
    19  C    0.064867
    20  C   -0.099291
    21  C    0.082550
    22  C    0.052564
    23  C    0.063514
    24  C    0.010985
    25  C   -0.160744
    26  C   -0.024616
    27  C    0.155678
    28  C    0.138869
    29  C   -0.041579
    30  C    0.016832
    31  C   -0.062110
    32  C   -0.004531
    33  C   -0.161837
    34  C    0.122796
    35  C   -0.079228
    36  C   -0.229597
    37  C    0.095901
    38  C   -0.018811
    39  C    0.174856
    40  C    0.033334
    41  C    0.164088
    42  C    0.096709
    43  C   -0.085211
    44  H    0.170541
    45  H   -0.047133
    46  H    0.021472
    47  H    0.056708
    48  H    0.045476
    49  H    0.041013
    50  H   -0.005827
    51  H   -0.014702
    52  H    0.042236
    53  H    0.040600
    54  H    0.006481
    55  H    0.022644
    56  H    0.192034
    57  H   -0.028134
    58  H    0.041272
    59  H    0.097505
    60  H    0.060083
    61  H    0.032704
    62  H    0.028672
    63  H    0.051316
    64  H   -0.084018
    65  H    0.028910
    66  H    0.064799
    67  H    0.019846
    68  H    0.016542
    69  H    0.103401
    70  H   -0.003398
    71  H    0.046525
    72  H    0.025298
    73  H    0.038021
    74  H    0.014645
    75  H    0.002980
    76  H    0.017686
    77  H    0.040774
    78  H    0.052140
    79  H    0.044719
    80  H    0.187043
    81  H    0.176349
 Sum of Mulliken charges =  -0.00000

 Dipole moment (field-independent basis, Debye):
    X=             -2.8850    Y=             -0.8131    Z=             -0.2944  Tot=              3.0119
 Quadrupole moment (field-independent basis, Debye-Ang):
   XX=           -246.8401   YY=           -248.3465   ZZ=           -257.8739
   XY=             18.9796   XZ=             10.0379   YZ=            -15.3020

 Normal termination of Gaussian 16 at Tue Jul  2 20:56:58 2019.
