 Gaussian 16, Revision A.03,
 Gaussian 16:  ES64L-G16RevA.03 25-Dec-2016

 --------------------------
 # td=(NStates=1) B3LYP/SVP
 --------------------------

 --
 TD
 --
 Symbolic Z-matrix:
 Charge =  0 Multiplicity = 1

                         Standard orientation:
 ---------------------------------------------------------------------
 Center     Atomic      Atomic             Coordinates (Angstroms)
 Number     Number       Type             X           Y           Z
 ---------------------------------------------------------------------
      1          8           0        4.412464   -4.820102   -1.907818
      2          8           0       -2.985654   -4.972549   -1.075745
      3          8           0       -7.112774   -1.432459   -1.793055
      4          8           0       -3.736813   -3.148053   -0.027845
      5          8           0       -7.553524   -0.375150    0.053792
      6          8           0        3.044982    2.358203    0.300316
      7          7           0        0.267010   -0.572260    0.462788
      8          7           0       -1.543933    1.878123    0.430181
      9          7           0        3.306576   -3.130099   -0.740904
     10          7           0        0.799044    2.865343    0.003987
     11          6           0       -0.631738   -2.393708    1.462883
     12          6           0       -1.003049   -1.156889    0.870505
     13          6           0        0.734298   -2.623545    1.153986
     14          6           0        1.247620   -1.448682    0.650683
     15          6           0       -3.759406    1.402422    0.275859
     16          6           0       -2.415793    0.860646    0.579025
     17          6           0       -2.171492   -0.481412    0.868545
     18          6           0       -3.441782    2.814248   -0.072300
     19          6           0       -1.682278   -3.326593    1.954485
     20          6           0        5.516278   -2.743602   -1.350165
     21          6           0        3.547138   -1.848231   -0.252054
     22          6           0       -2.064505    3.025725    0.011452
     23          6           0        4.961894   -1.574212   -0.511771
     24          6           0       -5.085298    0.732503    0.442105
     25          6           0        2.589187   -1.005466    0.308906
     26          6           0        1.466838   -3.790396    1.827717
     27          6           0        4.410024   -3.715041   -1.368403
     28          6           0       -2.111944   -4.435345    1.031568
     29          6           0       -5.412394   -0.071520   -0.852761
     30          6           0       -4.514790    3.778637   -0.332399
     31          6           0       -1.239283    4.115282   -0.351320
     32          6           0        6.760255   -3.384242   -0.819140
     33          6           0        5.766148   -0.534801   -0.047025
     34          6           0        0.113274    3.992467   -0.267225
     35          6           0        1.043012    5.167590   -0.506453
     36          6           0        2.329094    4.674855   -0.209929
     37          6           0       -2.986905   -4.131123   -0.074280
     38          6           0        5.337263    0.430141    0.985591
     39          6           0       -6.823149   -0.579217   -0.837617
     40          6           0        3.678964    5.315218   -0.220347
     41          6           0        2.184367    3.205723    0.112286
     42          6           0        0.672721    6.544537   -0.909550
     43          6           0        4.430173    5.520000    1.029724
     44          1           0        0.368146    0.486875    0.044266
     45          1           0       -3.091519   -1.002987    0.891809
     46          1           0       -2.434720   -2.849170    2.329149
     47          1           0       -1.211776   -3.703209    2.867929
     48          1           0        5.833948   -2.443317   -2.317648
     49          1           0       -5.237752    0.038341    1.291952
     50          1           0       -5.972728    1.365482    0.641436
     51          1           0        2.808797    0.156273    0.548725
     52          1           0       -0.642576    1.688292    0.647160
     53          1           0        1.591142   -4.674773    1.131164
     54          1           0        2.644820   -3.475544    2.173276
     55          1           0        0.800829   -4.286301    2.673825
     56          1           0        2.420240   -3.683745   -0.840440
     57          1           0       -1.144913   -4.972770    0.800821
     58          1           0       -2.628300   -5.165221    1.592417
     59          1           0       -4.758050   -1.034683   -0.976308
     60          1           0       -5.284666    0.600256   -1.692456
     61          1           0       -4.320943    4.808517   -0.003833
     62          1           0       -5.509938    3.476503    0.017884
     63          1           0       -4.757863    4.082394   -1.470639
     64          1           0       -1.776270    4.996928   -0.838360
     65          1           0        7.639216   -2.588179   -0.732273
     66          1           0        7.072422   -4.234864   -1.377187
     67          1           0        6.732251   -3.847942    0.090124
     68          1           0        6.727633   -0.544967   -0.314956
     69          1           0        4.742342    1.424726    0.483034
     70          1           0        6.282740    0.953722    1.417602
     71          1           0        4.627915    0.206561    1.856564
     72          1           0        3.377379    6.383081   -0.707025
     73          1           0        4.474504    4.731067   -0.828806
     74          1           0        0.020106    6.603029   -1.947839
     75          1           0        1.613997    7.036380   -0.936508
     76          1           0        0.044234    7.277026   -0.186869
     77          1           0        3.802672    6.189056    1.780701
     78          1           0        5.373154    5.807548    0.821052
     79          1           0        4.644800    4.509703    1.398040
     80          1           0       -3.767270   -4.719290   -1.666550
     81          1           0       -8.122800   -1.777481   -1.646259
 ---------------------------------------------------------------------

 SCF Done:  E(RB3LYP) =  -1949.13334169     A.U. after   16 cycles

 Excitation energies and oscillator strengths:

 Excited State   1:      Singlet-A      1.7801 eV  696.51 nm  f=0.3113  <S**2>=0.000
     156 ->157         0.70498
     156 <-157        -0.11406
 This state for optimization and/or second-order correction.
 Total Energy, E(TD-HF/TD-DFT) =  -1949.06792475
 Copying the excited state density for this state as the 1-particle RhoCI density.

 The electronic state is 1-A.
 Alpha  occ. eigenvalues --  -19.21178 -19.18592 -19.13709 -19.11826 -19.10969
 Alpha  occ. eigenvalues --  -19.10315 -14.37884 -14.37605 -14.35803 -14.27702
 Alpha  occ. eigenvalues --  -10.33717 -10.30822 -10.28963 -10.26103 -10.24999
 Alpha  occ. eigenvalues --  -10.23742 -10.23341 -10.22934 -10.22649 -10.22473
 Alpha  occ. eigenvalues --  -10.21713 -10.21555 -10.21190 -10.20763 -10.20733
 Alpha  occ. eigenvalues --  -10.20415 -10.20368 -10.20302 -10.20205 -10.20069
 Alpha  occ. eigenvalues --  -10.19843 -10.19811 -10.19803 -10.19733 -10.19699
 Alpha  occ. eigenvalues --  -10.19657 -10.19621 -10.19506 -10.18954 -10.18748
 Alpha  occ. eigenvalues --  -10.18440 -10.18136 -10.17127  -1.12561  -1.10819
 Alpha  occ. eigenvalues --   -1.02932  -1.01381  -1.01083  -1.01063  -1.00050
 Alpha  occ. eigenvalues --   -0.97747  -0.95035  -0.89865  -0.83897  -0.82124
 Alpha  occ. eigenvalues --   -0.81696  -0.81291  -0.79282  -0.78724  -0.78599
 Alpha  occ. eigenvalues --   -0.77314  -0.76431  -0.75338  -0.74427  -0.72716
 Alpha  occ. eigenvalues --   -0.71068  -0.70088  -0.69351  -0.68405  -0.67648
 Alpha  occ. eigenvalues --   -0.67439  -0.65708  -0.63683  -0.62638  -0.61883
 Alpha  occ. eigenvalues --   -0.60531  -0.59061  -0.58615  -0.58121  -0.57219
 Alpha  occ. eigenvalues --   -0.56709  -0.55769  -0.55266  -0.54709  -0.53454
 Alpha  occ. eigenvalues --   -0.53078  -0.51825  -0.51112  -0.50850  -0.50440
 Alpha  occ. eigenvalues --   -0.49900  -0.49203  -0.48837  -0.48148  -0.47843
 Alpha  occ. eigenvalues --   -0.47526  -0.46901  -0.46046  -0.45669  -0.45156
 Alpha  occ. eigenvalues --   -0.44893  -0.44776  -0.44557  -0.43932  -0.43612
 Alpha  occ. eigenvalues --   -0.43456  -0.43270  -0.42531  -0.42232  -0.42162
 Alpha  occ. eigenvalues --   -0.41961  -0.41685  -0.41366  -0.40994  -0.40535
 Alpha  occ. eigenvalues --   -0.40193  -0.39971  -0.39692  -0.39610  -0.39311
 Alpha  occ. eigenvalues --   -0.39161  -0.38920  -0.38238  -0.38163  -0.37897
 Alpha  occ. eigenvalues --   -0.37814  -0.37737  -0.37455  -0.36989  -0.36727
 Alpha  occ. eigenvalues --   -0.36304  -0.35981  -0.35811  -0.35355  -0.34333
 Alpha  occ. eigenvalues --   -0.33833  -0.33797  -0.33533  -0.33464  -0.33188
 Alpha  occ. eigenvalues --   -0.32957  -0.32427  -0.31504  -0.30184  -0.29569
 Alpha  occ. eigenvalues --   -0.27914  -0.26952  -0.26149  -0.25997  -0.25288
 Alpha  occ. eigenvalues --   -0.24564  -0.24086  -0.23283  -0.22573  -0.21038
 Alpha  occ. eigenvalues --   -0.17725
 Alpha virt. eigenvalues --   -0.10495  -0.05814  -0.04436  -0.01663  -0.00390
 Alpha virt. eigenvalues --    0.01419   0.01843   0.02420   0.02621   0.02887
 Alpha virt. eigenvalues --    0.03926   0.04535   0.04572   0.05449   0.06144

 Mulliken charges:
               1
     1  O   -0.227719
     2  O   -0.150498
     3  O   -0.213866
     4  O   -0.265015
     5  O   -0.205843
     6  O   -0.222160
     7  N   -0.169848
     8  N    0.071587
     9  N   -0.147097
    10  N   -0.336822
    11  C   -0.140357
    12  C    0.115058
    13  C   -0.152773
    14  C    0.094513
    15  C   -0.048157
    16  C   -0.037813
    17  C   -0.013382
    18  C   -0.112785
    19  C    0.218204
    20  C    0.006088
    21  C    0.143086
    22  C    0.095127
    23  C   -0.048756
    24  C    0.066629
    25  C   -0.169513
    26  C   -0.018394
    27  C    0.116561
    28  C    0.082597
    29  C   -0.051301
    30  C    0.045283
    31  C   -0.164944
    32  C    0.054505
    33  C   -0.006655
    34  C    0.133590
    35  C   -0.074140
    36  C   -0.146666
    37  C    0.123369
    38  C   -0.077579
    39  C    0.099980
    40  C   -0.020939
    41  C    0.178468
    42  C    0.027235
    43  C    0.069803
    44  H    0.193105
    45  H   -0.008929
    46  H   -0.061951
    47  H   -0.014690
    48  H    0.028415
    49  H    0.018486
    50  H    0.019352
    51  H    0.093565
    52  H    0.070398
    53  H    0.019132
    54  H    0.067292
    55  H    0.031453
    56  H    0.150648
    57  H    0.024805
    58  H    0.026689
    59  H    0.077851
    60  H    0.030008
    61  H    0.008750
    62  H    0.014169
    63  H    0.014293
    64  H   -0.005050
    65  H    0.023537
    66  H    0.012505
    67  H   -0.026557
    68  H   -0.058249
    69  H    0.115500
    70  H    0.006937
    71  H    0.049927
    72  H    0.005098
    73  H    0.022288
    74  H    0.047556
    75  H   -0.005493
    76  H    0.042409
    77  H    0.025994
    78  H   -0.023004
    79  H    0.009246
    80  H    0.211563
    81  H    0.224296
 Sum of Mulliken charges =  -0.00000

 Dipole moment (field-independent basis, Debye):
    X=             -3.4264    Y=             -1.4902    Z=             -0.0168  Tot=              3.7365
 Quadrupole moment (field-independent basis, Debye-Ang):
   XX=           -241.8983   YY=           -239.9813   ZZ=           -255.8192
   XY=             21.9775   XZ=             15.6108   YZ=            -12.8045

 Normal termination of Gaussian 16 at Sat Jun 29 09:10:00 2019.
