 Gaussian 16, Revision A.03,
 Gaussian 16:  ES64L-G16RevA.03 25-Dec-2016

 --------------------------
 # td=(NStates=1) B3LYP/SVP
 --------------------------

 --
 TD
 --
 Symbolic Z-matrix:
 Charge =  0 Multiplicity = 1

                         Standard orientation:
 ---------------------------------------------------------------------
 Center     Atomic      Atomic             Coordinates (Angstroms)
 Number     Number       Type             X           Y           Z
 ---------------------------------------------------------------------
      1          8           0        4.049956   -5.068641   -1.793912
      2          8           0       -3.327131   -4.728175   -1.106689
      3          8           0       -7.026969   -1.390582   -1.683353
      4          8           0       -4.036326   -2.920843   -0.024339
      5          8           0       -7.695231   -0.294397    0.048279
      6          8           0        3.164319    2.317927    0.473057
      7          7           0        0.229984   -0.519940    0.528597
      8          7           0       -1.482485    1.917183    0.447949
      9          7           0        3.178032   -3.225029   -0.767356
     10          7           0        0.950776    2.867117    0.086743
     11          6           0       -0.691056   -2.313081    1.483672
     12          6           0       -0.986369   -0.984632    0.934436
     13          6           0        0.641619   -2.681605    1.255649
     14          6           0        1.191859   -1.450522    0.699836
     15          6           0       -3.699417    1.715527    0.249893
     16          6           0       -2.471020    1.013331    0.569977
     17          6           0       -2.330793   -0.288084    0.975948
     18          6           0       -3.375152    2.953730   -0.170010
     19          6           0       -1.884557   -3.209458    2.051293
     20          6           0        5.348151   -2.978712   -1.400481
     21          6           0        3.592277   -1.909144   -0.225032
     22          6           0       -1.926260    3.092237    0.036568
     23          6           0        4.930096   -1.830774   -0.419528
     24          6           0       -5.096429    1.086691    0.313204
     25          6           0        2.598496   -1.062082    0.343835
     26          6           0        1.303355   -3.896439    1.667406
     27          6           0        4.129061   -3.940281   -1.357610
     28          6           0       -2.375602   -4.331309    1.122491
     29          6           0       -5.406941    0.098810   -0.887154
     30          6           0       -4.268602    4.039519   -0.706356
     31          6           0       -1.018916    4.144171   -0.324597
     32          6           0        6.640487   -3.724201   -1.028058
     33          6           0        5.843871   -0.865240   -0.010566
     34          6           0        0.400719    4.034757   -0.270609
     35          6           0        1.392040    5.102674   -0.544089
     36          6           0        2.618330    4.538096   -0.181530
     37          6           0       -3.288614   -3.902684    0.021608
     38          6           0        5.419886    0.269930    0.827124
     39          6           0       -6.831535   -0.536043   -0.737579
     40          6           0        3.994498    5.127477   -0.171602
     41          6           0        2.282682    3.102825    0.179641
     42          6           0        1.040557    6.498964   -1.051528
     43          6           0        4.650323    5.269583    1.149770
     44          1           0        0.369796    0.247747   -0.073819
     45          1           0       -3.325788   -0.824049    1.034131
     46          1           0       -2.818477   -2.561818    2.230847
     47          1           0       -1.342249   -3.498307    2.746784
     48          1           0        5.273180   -2.566117   -2.468529
     49          1           0       -5.132095    0.498828    1.117558
     50          1           0       -5.977870    1.833692    0.472080
     51          1           0        3.038340   -0.133677    0.624659
     52          1           0       -0.587181    1.828048    0.589625
     53          1           0        1.301978   -4.814492    0.914759
     54          1           0        2.483746   -3.837000    1.828692
     55          1           0        0.834344   -4.324352    2.570187
     56          1           0        2.338360   -3.484533   -0.617506
     57          1           0       -1.482874   -4.836868    0.696962
     58          1           0       -2.937317   -5.126561    1.705155
     59          1           0       -4.490076   -0.618948   -0.795049
     60          1           0       -5.292310    0.638979   -1.956444
     61          1           0       -4.553831    4.994327    0.387705
     62          1           0       -5.293537    3.475563   -1.029359
     63          1           0       -3.722350    4.446559   -1.668043
     64          1           0       -1.430510    5.186825   -0.471394
     65          1           0        7.599057   -2.985012   -0.934497
     66          1           0        6.843614   -4.258447   -1.855528
     67          1           0        6.527202   -4.321642    0.034228
     68          1           0        6.821058   -0.814914   -0.335934
     69          1           0        4.655549    0.966238    0.357944
     70          1           0        6.376098    0.719402    1.157247
     71          1           0        4.819674   -0.166966    1.615610
     72          1           0        3.859145    6.104233   -0.509581
     73          1           0        4.496190    4.520782   -1.009128
     74          1           0        0.646555    6.476879   -1.968457
     75          1           0        1.923558    7.067937   -1.073062
     76          1           0        0.219254    6.933879   -0.504013
     77          1           0        3.997494    5.759367    1.922432
     78          1           0        5.704496    5.675297    1.155417
     79          1           0        4.911374    4.237982    1.561403
     80          1           0       -4.028980   -4.253173   -1.721484
     81          1           0       -7.989972   -1.887518   -1.483605
 ---------------------------------------------------------------------

 SCF Done:  E(RB3LYP) =  -1949.06397745     A.U. after   16 cycles

 Excitation energies and oscillator strengths:

 Excited State   1:      Singlet-A      1.7665 eV  701.87 nm  f=0.2711  <S**2>=0.000
     156 ->157         0.70606
 This state for optimization and/or second-order correction.
 Total Energy, E(TD-HF/TD-DFT) =  -1948.99906045
 Copying the excited state density for this state as the 1-particle RhoCI density.

 The electronic state is 1-A.
 Alpha  occ. eigenvalues --  -19.19125 -19.18951 -19.14606 -19.12434 -19.09975
 Alpha  occ. eigenvalues --  -19.09463 -14.38904 -14.36741 -14.34981 -14.28490
 Alpha  occ. eigenvalues --  -10.34101 -10.32049 -10.27655 -10.25967 -10.25072
 Alpha  occ. eigenvalues --  -10.24725 -10.24574 -10.24234 -10.24146 -10.23824
 Alpha  occ. eigenvalues --  -10.23241 -10.23100 -10.22975 -10.22626 -10.21725
 Alpha  occ. eigenvalues --  -10.21077 -10.20758 -10.20712 -10.20706 -10.20593
 Alpha  occ. eigenvalues --  -10.20556 -10.20296 -10.20220 -10.19676 -10.19644
 Alpha  occ. eigenvalues --  -10.19521 -10.19497 -10.19127 -10.19078 -10.18825
 Alpha  occ. eigenvalues --  -10.18343 -10.18266 -10.16984  -1.11335  -1.09063
 Alpha  occ. eigenvalues --   -1.02662  -1.02052  -1.01611  -1.00621  -0.99785
 Alpha  occ. eigenvalues --   -0.99505  -0.94799  -0.92398  -0.83443  -0.82949
 Alpha  occ. eigenvalues --   -0.81939  -0.81459  -0.79933  -0.79448  -0.77690
 Alpha  occ. eigenvalues --   -0.77009  -0.76377  -0.75633  -0.74425  -0.72821
 Alpha  occ. eigenvalues --   -0.71087  -0.70105  -0.69760  -0.69530  -0.68219
 Alpha  occ. eigenvalues --   -0.67803  -0.65954  -0.64554  -0.62240  -0.61330
 Alpha  occ. eigenvalues --   -0.60399  -0.59620  -0.58813  -0.58085  -0.57820
 Alpha  occ. eigenvalues --   -0.57145  -0.55968  -0.54972  -0.54841  -0.53985
 Alpha  occ. eigenvalues --   -0.53039  -0.52190  -0.51329  -0.50168  -0.49665
 Alpha  occ. eigenvalues --   -0.49029  -0.48685  -0.48335  -0.48132  -0.47610
 Alpha  occ. eigenvalues --   -0.47228  -0.46743  -0.46384  -0.46208  -0.45687
 Alpha  occ. eigenvalues --   -0.45625  -0.44954  -0.44693  -0.44432  -0.44027
 Alpha  occ. eigenvalues --   -0.43384  -0.42945  -0.42855  -0.42543  -0.42420
 Alpha  occ. eigenvalues --   -0.42121  -0.41647  -0.41619  -0.41231  -0.41110
 Alpha  occ. eigenvalues --   -0.41009  -0.40738  -0.40362  -0.40000  -0.39541
 Alpha  occ. eigenvalues --   -0.39254  -0.39045  -0.38821  -0.38479  -0.38196
 Alpha  occ. eigenvalues --   -0.38068  -0.38018  -0.37668  -0.36979  -0.36808
 Alpha  occ. eigenvalues --   -0.36362  -0.36089  -0.35809  -0.35069  -0.34538
 Alpha  occ. eigenvalues --   -0.34116  -0.34000  -0.33876  -0.33455  -0.32861
 Alpha  occ. eigenvalues --   -0.32535  -0.32476  -0.32378  -0.30135  -0.29627
 Alpha  occ. eigenvalues --   -0.28562  -0.28229  -0.26581  -0.26048  -0.25875
 Alpha  occ. eigenvalues --   -0.25167  -0.24173  -0.23843  -0.23268  -0.21558
 Alpha  occ. eigenvalues --   -0.18178
 Alpha virt. eigenvalues --   -0.10822  -0.06271  -0.05025  -0.02719  -0.00138
 Alpha virt. eigenvalues --    0.00649   0.01054   0.01661   0.02275   0.02819
 Alpha virt. eigenvalues --    0.03706   0.03765   0.04044   0.05516   0.06278

 Mulliken charges:
               1
     1  O   -0.220345
     2  O   -0.250576
     3  O   -0.198643
     4  O   -0.255803
     5  O   -0.221618
     6  O   -0.208250
     7  N    0.001891
     8  N    0.108477
     9  N   -0.033451
    10  N   -0.265438
    11  C   -0.195060
    12  C    0.018257
    13  C   -0.056694
    14  C    0.022396
    15  C   -0.051884
    16  C    0.012110
    17  C   -0.033965
    18  C   -0.116991
    19  C    0.216589
    20  C   -0.122902
    21  C    0.051181
    22  C    0.045331
    23  C    0.002415
    24  C    0.118443
    25  C   -0.048262
    26  C   -0.031903
    27  C    0.102226
    28  C    0.017376
    29  C   -0.113942
    30  C   -0.051443
    31  C   -0.126460
    32  C    0.052051
    33  C   -0.116270
    34  C    0.056793
    35  C   -0.128752
    36  C   -0.237402
    37  C    0.153609
    38  C    0.046684
    39  C    0.148127
    40  C    0.147869
    41  C    0.132755
    42  C    0.232857
    43  C   -0.028944
    44  H    0.126752
    45  H    0.045594
    46  H    0.036826
    47  H   -0.072886
    48  H    0.054596
    49  H   -0.026491
    50  H    0.036440
    51  H   -0.016995
    52  H    0.031982
    53  H    0.048214
    54  H    0.054984
    55  H    0.022373
    56  H    0.035615
    57  H    0.038466
    58  H    0.063087
    59  H    0.074870
    60  H    0.056350
    61  H    0.058353
    62  H    0.054549
    63  H    0.061921
    64  H   -0.009953
    65  H    0.021546
    66  H   -0.000603
    67  H    0.047246
    68  H   -0.035105
    69  H    0.102372
    70  H    0.008251
    71  H    0.021401
    72  H   -0.038496
    73  H    0.032310
    74  H   -0.025397
    75  H   -0.004527
    76  H    0.006696
    77  H    0.024083
    78  H    0.013693
    79  H    0.026774
    80  H    0.220227
    81  H    0.232441
 Sum of Mulliken charges =  -0.00000

 Dipole moment (field-independent basis, Debye):
    X=             -3.0477    Y=              1.5940    Z=             -0.2969  Tot=              3.4522
 Quadrupole moment (field-independent basis, Debye-Ang):
   XX=           -251.6514   YY=           -249.9170   ZZ=           -254.4292
   XY=             24.2654   XZ=             12.6008   YZ=            -19.2227

 Normal termination of Gaussian 16 at Thu Jun 27 16:37:36 2019.
