 Gaussian 16, Revision A.03,
 Gaussian 16:  ES64L-G16RevA.03 25-Dec-2016

 --------------------------
 # td=(NStates=1) B3LYP/SVP
 --------------------------

 --
 TD
 --
 Symbolic Z-matrix:
 Charge =  0 Multiplicity = 1

                         Standard orientation:
 ---------------------------------------------------------------------
 Center     Atomic      Atomic             Coordinates (Angstroms)
 Number     Number       Type             X           Y           Z
 ---------------------------------------------------------------------
      1          8           0        4.224964   -4.794125   -2.047955
      2          8           0       -3.040120   -4.944730   -0.940575
      3          8           0       -7.025398   -1.640222   -1.794576
      4          8           0       -3.789201   -3.137569    0.183784
      5          8           0       -7.634104   -0.436970   -0.067178
      6          8           0        3.027297    2.519843    0.393926
      7          7           0        0.336070   -0.545469    0.514452
      8          7           0       -1.547507    1.763602    0.432631
      9          7           0        3.212635   -2.981863   -0.705641
     10          7           0        0.801736    2.932691    0.248015
     11          6           0       -0.561253   -2.328405    1.464487
     12          6           0       -0.901192   -1.060949    0.986650
     13          6           0        0.797121   -2.554562    1.259246
     14          6           0        1.310867   -1.350999    0.655576
     15          6           0       -3.817813    1.428791    0.269014
     16          6           0       -2.552412    0.849864    0.690899
     17          6           0       -2.228238   -0.526012    0.971801
     18          6           0       -3.521616    2.741537   -0.201963
     19          6           0       -1.487054   -3.360732    2.108131
     20          6           0        5.476650   -2.824566   -1.360518
     21          6           0        3.528436   -1.739498   -0.216654
     22          6           0       -2.107510    2.956701   -0.085886
     23          6           0        4.996516   -1.639011   -0.529839
     24          6           0       -5.113472    0.812190    0.236246
     25          6           0        2.544638   -0.812975    0.253830
     26          6           0        1.616340   -3.701274    1.749870
     27          6           0        4.257992   -3.668222   -1.509021
     28          6           0       -1.871100   -4.540658    1.129713
     29          6           0       -5.290062   -0.297394   -0.886896
     30          6           0       -4.415353    3.938425   -0.619630
     31          6           0       -1.300460    4.008290   -0.349034
     32          6           0        6.724418   -3.565450   -0.921196
     33          6           0        5.840669   -0.670077   -0.047669
     34          6           0        0.105193    4.036287   -0.231656
     35          6           0        0.971154    5.068861   -0.466131
     36          6           0        2.300151    4.659128   -0.289124
     37          6           0       -3.026045   -4.109719    0.081120
     38          6           0        5.498734    0.506764    0.744338
     39          6           0       -6.760160   -0.733084   -0.830279
     40          6           0        3.548535    5.339059   -0.280399
     41          6           0        2.179662    3.298577    0.240864
     42          6           0        0.630803    6.593604   -0.906743
     43          6           0        4.158006    5.601052    1.138165
     44          1           0        0.254211    0.382639    0.055130
     45          1           0       -2.867124   -1.155492    1.222480
     46          1           0       -2.496227   -2.900675    2.285902
     47          1           0       -1.126636   -3.998002    3.018194
     48          1           0        5.537433   -2.378116   -2.451432
     49          1           0       -4.986645    0.083852    1.125356
     50          1           0       -5.963737    1.344601    0.429838
     51          1           0        2.834622    0.193136    0.588276
     52          1           0       -0.495186    1.769786    0.757614
     53          1           0        1.718914   -4.580641    0.968382
     54          1           0        2.671337   -3.500538    1.898463
     55          1           0        1.276493   -4.218313    2.597050
     56          1           0        2.231883   -3.226264   -0.689734
     57          1           0       -1.147117   -4.670715    0.392079
     58          1           0       -2.300388   -5.339425    1.739482
     59          1           0       -4.693848   -1.135567   -0.750502
     60          1           0       -4.954902    0.154165   -1.879859
     61          1           0       -4.621266    4.923574    0.244198
     62          1           0       -5.500939    3.705449   -0.715970
     63          1           0       -4.138292    4.497608   -1.616541
     64          1           0       -1.617491    4.969081   -0.478448
     65          1           0        7.496011   -2.879028   -0.934675
     66          1           0        7.142269   -4.368922   -1.509283
     67          1           0        6.825009   -4.113637    0.041317
     68          1           0        6.980411   -0.841423   -0.274586
     69          1           0        4.842448    1.122548    0.147966
     70          1           0        6.281907    1.276391    1.043251
     71          1           0        4.823018    0.074448    1.556640
     72          1           0        3.770052    6.112914   -0.838500
     73          1           0        4.413860    4.556432   -0.642131
     74          1           0        0.296838    6.475417   -1.889704
     75          1           0        1.494201    7.219484   -1.096288
     76          1           0       -0.164025    7.111573   -0.336903
     77          1           0        3.559852    6.392319    1.692031
     78          1           0        5.179529    5.810329    1.119264
     79          1           0        4.070107    4.690296    1.804809
     80          1           0       -3.605482   -4.626798   -1.653860
     81          1           0       -7.942004   -1.778322   -1.698793
 ---------------------------------------------------------------------

 SCF Done:  E(RB3LYP) =  -1949.09491625     A.U. after   19 cycles

 Excitation energies and oscillator strengths:

 Excited State   1:      Singlet-A      1.7278 eV  717.58 nm  f=0.3220  <S**2>=0.000
     156 ->157         0.70867
     156 <-157        -0.13641
 This state for optimization and/or second-order correction.
 Total Energy, E(TD-HF/TD-DFT) =  -1949.03142031
 Copying the excited state density for this state as the 1-particle RhoCI density.

 The electronic state is 1-A.
 Alpha  occ. eigenvalues --  -19.20777 -19.17316 -19.14481 -19.12968 -19.12654
 Alpha  occ. eigenvalues --  -19.10260 -14.37830 -14.37543 -14.35373 -14.27089
 Alpha  occ. eigenvalues --  -10.34053 -10.31981 -10.30939 -10.25346 -10.25004
 Alpha  occ. eigenvalues --  -10.23422 -10.23415 -10.22918 -10.22813 -10.22378
 Alpha  occ. eigenvalues --  -10.22091 -10.21958 -10.21940 -10.21210 -10.21074
 Alpha  occ. eigenvalues --  -10.20840 -10.20689 -10.20643 -10.20601 -10.20300
 Alpha  occ. eigenvalues --  -10.20061 -10.19711 -10.19709 -10.19661 -10.19431
 Alpha  occ. eigenvalues --  -10.18928 -10.18895 -10.18861 -10.18387 -10.18384
 Alpha  occ. eigenvalues --  -10.18069 -10.17846 -10.17229  -1.12119  -1.10907
 Alpha  occ. eigenvalues --   -1.04425  -1.02258  -1.01480  -1.00936  -1.00563
 Alpha  occ. eigenvalues --   -0.95879  -0.95337  -0.90358  -0.82860  -0.82053
 Alpha  occ. eigenvalues --   -0.81699  -0.80800  -0.79270  -0.78411  -0.77783
 Alpha  occ. eigenvalues --   -0.77135  -0.76141  -0.74978  -0.73960  -0.72039
 Alpha  occ. eigenvalues --   -0.70758  -0.70491  -0.69073  -0.68690  -0.68316
 Alpha  occ. eigenvalues --   -0.66799  -0.66332  -0.65097  -0.62987  -0.62330
 Alpha  occ. eigenvalues --   -0.61260  -0.59920  -0.59667  -0.58362  -0.57820
 Alpha  occ. eigenvalues --   -0.56075  -0.55592  -0.55117  -0.53093  -0.52807
 Alpha  occ. eigenvalues --   -0.52117  -0.51670  -0.50567  -0.50335  -0.50169
 Alpha  occ. eigenvalues --   -0.49727  -0.49050  -0.48603  -0.48402  -0.48291
 Alpha  occ. eigenvalues --   -0.47608  -0.46959  -0.46434  -0.46374  -0.45155
 Alpha  occ. eigenvalues --   -0.44744  -0.44301  -0.44247  -0.44192  -0.43923
 Alpha  occ. eigenvalues --   -0.43757  -0.43108  -0.42762  -0.42489  -0.41955
 Alpha  occ. eigenvalues --   -0.41802  -0.41558  -0.41275  -0.41232  -0.41117
 Alpha  occ. eigenvalues --   -0.40818  -0.40644  -0.40194  -0.39526  -0.39244
 Alpha  occ. eigenvalues --   -0.39222  -0.38975  -0.38961  -0.38672  -0.38160
 Alpha  occ. eigenvalues --   -0.38111  -0.38031  -0.37833  -0.37572  -0.37459
 Alpha  occ. eigenvalues --   -0.36854  -0.36523  -0.36000  -0.35695  -0.35419
 Alpha  occ. eigenvalues --   -0.35339  -0.34136  -0.34108  -0.33429  -0.33060
 Alpha  occ. eigenvalues --   -0.33035  -0.32383  -0.31900  -0.29973  -0.29246
 Alpha  occ. eigenvalues --   -0.28774  -0.27301  -0.26901  -0.26315  -0.25325
 Alpha  occ. eigenvalues --   -0.24704  -0.24253  -0.23446  -0.22018  -0.20717
 Alpha  occ. eigenvalues --   -0.17346
 Alpha virt. eigenvalues --   -0.10550  -0.06273  -0.04438  -0.01695  -0.01574
 Alpha virt. eigenvalues --    0.00536   0.02231   0.03091   0.03573   0.04067
 Alpha virt. eigenvalues --    0.04525   0.04946   0.05597   0.05953   0.06376

 Mulliken charges:
               1
     1  O   -0.226393
     2  O   -0.142511
     3  O   -0.157956
     4  O   -0.246730
     5  O   -0.217536
     6  O   -0.147808
     7  N   -0.011972
     8  N   -0.191752
     9  N   -0.183465
    10  N   -0.370110
    11  C   -0.067042
    12  C    0.009635
    13  C   -0.166498
    14  C    0.060855
    15  C   -0.072735
    16  C    0.109794
    17  C    0.111374
    18  C   -0.063146
    19  C    0.052797
    20  C    0.002169
    21  C    0.064951
    22  C    0.181813
    23  C   -0.078258
    24  C    0.084689
    25  C   -0.116130
    26  C    0.105914
    27  C    0.176623
    28  C    0.033459
    29  C    0.010686
    30  C   -0.033281
    31  C   -0.088452
    32  C    0.108939
    33  C   -0.168321
    34  C    0.068530
    35  C   -0.106499
    36  C   -0.113907
    37  C    0.108394
    38  C    0.059137
    39  C    0.123211
    40  C    0.082254
    41  C    0.123970
    42  C    0.129287
    43  C   -0.011909
    44  H    0.135745
    45  H   -0.162965
    46  H    0.026622
    47  H    0.034013
    48  H    0.065742
    49  H    0.021044
    50  H   -0.000461
    51  H    0.041604
    52  H    0.179497
    53  H    0.012864
    54  H    0.017617
    55  H   -0.007725
    56  H    0.129124
    57  H    0.022461
    58  H    0.051257
    59  H    0.023252
    60  H    0.044740
    61  H    0.037768
    62  H    0.015650
    63  H    0.046181
    64  H   -0.074749
    65  H   -0.016285
    66  H    0.008967
    67  H    0.017163
    68  H    0.012131
    69  H    0.059398
    70  H    0.027361
    71  H    0.047195
    72  H   -0.050550
    73  H    0.010447
    74  H   -0.004852
    75  H    0.001394
    76  H    0.031552
    77  H    0.012624
    78  H   -0.000594
    79  H    0.023320
    80  H    0.188463
    81  H    0.146916
 Sum of Mulliken charges =  -0.00000

 Dipole moment (field-independent basis, Debye):
    X=             -0.2457    Y=             -0.8473    Z=             -0.9085  Tot=              1.2663
 Quadrupole moment (field-independent basis, Debye-Ang):
   XX=           -244.3818   YY=           -240.8944   ZZ=           -254.2884
   XY=             14.3079   XZ=             13.8972   YZ=            -14.2001

 Normal termination of Gaussian 16 at Tue Jul  2 00:40:20 2019.
