 Gaussian 16, Revision A.03,
 Gaussian 16:  ES64L-G16RevA.03 25-Dec-2016

 --------------------------
 # td=(NStates=1) B3LYP/SVP
 --------------------------

 --
 TD
 --
 Symbolic Z-matrix:
 Charge =  0 Multiplicity = 1

                         Standard orientation:
 ---------------------------------------------------------------------
 Center     Atomic      Atomic             Coordinates (Angstroms)
 Number     Number       Type             X           Y           Z
 ---------------------------------------------------------------------
      1          8           0        4.265348   -4.922769   -1.737956
      2          8           0       -3.017824   -4.874579   -1.018518
      3          8           0       -7.042531   -1.579991   -1.709105
      4          8           0       -3.900223   -3.159704    0.238212
      5          8           0       -7.524560   -0.480663    0.119440
      6          8           0        3.109105    2.519875    0.487044
      7          7           0        0.270064   -0.554796    0.414225
      8          7           0       -1.566073    1.814465    0.384129
      9          7           0        3.263242   -3.095967   -0.761271
     10          7           0        0.815267    3.001279    0.257246
     11          6           0       -0.687241   -2.375827    1.271260
     12          6           0       -0.987975   -1.136239    0.768537
     13          6           0        0.726668   -2.601002    1.197815
     14          6           0        1.346701   -1.398478    0.695404
     15          6           0       -3.726143    1.495588    0.161957
     16          6           0       -2.476380    0.857030    0.492998
     17          6           0       -2.248129   -0.516179    0.769496
     18          6           0       -3.526851    2.765278   -0.130564
     19          6           0       -1.570926   -3.416508    1.964889
     20          6           0        5.569326   -2.873113   -1.320159
     21          6           0        3.595875   -1.839459   -0.287250
     22          6           0       -2.079722    3.065288    0.079733
     23          6           0        5.023654   -1.698083   -0.597536
     24          6           0       -5.150620    0.807374    0.232641
     25          6           0        2.742021   -1.036329    0.362469
     26          6           0        1.508509   -3.770115    1.762301
     27          6           0        4.254961   -3.832407   -1.359963
     28          6           0       -2.065448   -4.503076    1.056975
     29          6           0       -5.367035    0.009713   -1.011711
     30          6           0       -4.433809    3.931632   -0.514801
     31          6           0       -1.318690    4.065666   -0.170071
     32          6           0        6.671924   -3.692176   -0.701585
     33          6           0        5.757794   -0.629477   -0.211946
     34          6           0        0.151946    4.081156   -0.158115
     35          6           0        1.076664    5.166740   -0.406721
     36          6           0        2.385566    4.711186   -0.178680
     37          6           0       -3.064756   -4.021305    0.008607
     38          6           0        5.449308    0.615097    0.538729
     39          6           0       -6.744043   -0.641846   -0.749916
     40          6           0        3.660143    5.457740   -0.349550
     41          6           0        2.189771    3.282423    0.208881
     42          6           0        0.578267    6.516646   -0.819969
     43          6           0        4.360101    5.596245    1.152739
     44          1           0        0.283631    0.303544   -0.239739
     45          1           0       -3.093311   -1.081446    0.897048
     46          1           0       -2.385278   -2.793875    2.526876
     47          1           0       -0.989337   -3.912091    2.750641
     48          1           0        5.814995   -2.635287   -2.324104
     49          1           0       -5.159341   -0.040052    0.986272
     50          1           0       -5.913968    1.377322    0.320492
     51          1           0        2.964339   -0.026276    0.732020
     52          1           0       -0.503596    1.729065    0.539763
     53          1           0        1.879521   -4.594266    0.974398
     54          1           0        2.392747   -3.370036    2.165038
     55          1           0        1.180270   -4.281703    2.777921
     56          1           0        2.341816   -3.568077   -0.502645
     57          1           0       -1.206699   -5.205895    0.755133
     58          1           0       -2.776251   -5.119842    1.783500
     59          1           0       -4.592941   -1.038528   -1.055408
     60          1           0       -5.249992    0.249009   -1.975428
     61          1           0       -4.357534    4.957001    0.037915
     62          1           0       -5.558161    3.752590   -0.368620
     63          1           0       -4.209922    3.865328   -1.736302
     64          1           0       -1.672415    5.072618   -0.873687
     65          1           0        7.466454   -2.924750   -0.876894
     66          1           0        6.704859   -4.696260   -1.196096
     67          1           0        6.362546   -3.765308    0.512880
     68          1           0        6.843896   -0.626399   -0.654649
     69          1           0        4.931430    1.281688   -0.166334
     70          1           0        6.457455    1.025245    0.787152
     71          1           0        4.719120    0.283861    1.419291
     72          1           0        3.634614    6.599487   -0.676263
     73          1           0        4.275542    4.837133   -0.985306
     74          1           0        0.000521    6.440323   -1.847319
     75          1           0        1.355118    7.248399   -1.107972
     76          1           0       -0.134058    7.184797   -0.125355
     77          1           0        3.877492    6.372079    1.814718
     78          1           0        5.227031    6.083638    0.862812
     79          1           0        4.502247    4.560668    1.473614
     80          1           0       -3.643911   -4.596446   -1.547209
     81          1           0       -7.969542   -1.778562   -1.492742
 ---------------------------------------------------------------------

 SCF Done:  E(RB3LYP) =  -1949.07408295     A.U. after   17 cycles

 Excitation energies and oscillator strengths:

 Excited State   1:      Singlet-A      1.7114 eV  724.47 nm  f=0.2716  <S**2>=0.000
     156 ->157         0.70677
     156 <-157        -0.13674
 This state for optimization and/or second-order correction.
 Total Energy, E(TD-HF/TD-DFT) =  -1949.01119133
 Copying the excited state density for this state as the 1-particle RhoCI density.

 The electronic state is 1-A.
 Alpha  occ. eigenvalues --  -19.19935 -19.16642 -19.14823 -19.13176 -19.11546
 Alpha  occ. eigenvalues --  -19.11494 -14.37796 -14.36757 -14.35853 -14.29286
 Alpha  occ. eigenvalues --  -10.33982 -10.31528 -10.28418 -10.27357 -10.23971
 Alpha  occ. eigenvalues --  -10.23853 -10.23458 -10.23356 -10.23179 -10.22489
 Alpha  occ. eigenvalues --  -10.22354 -10.22152 -10.21189 -10.20963 -10.20782
 Alpha  occ. eigenvalues --  -10.20626 -10.20626 -10.20333 -10.20296 -10.20244
 Alpha  occ. eigenvalues --  -10.20028 -10.19978 -10.19853 -10.19819 -10.19745
 Alpha  occ. eigenvalues --  -10.19668 -10.19481 -10.19062 -10.19051 -10.18996
 Alpha  occ. eigenvalues --  -10.18611 -10.18605 -10.18146  -1.13622  -1.10258
 Alpha  occ. eigenvalues --   -1.06524  -1.03370  -1.02048  -1.00547  -0.98918
 Alpha  occ. eigenvalues --   -0.96249  -0.95593  -0.92500  -0.82463  -0.81755
 Alpha  occ. eigenvalues --   -0.81434  -0.81291  -0.79313  -0.78860  -0.78016
 Alpha  occ. eigenvalues --   -0.77161  -0.76700  -0.74774  -0.74293  -0.72025
 Alpha  occ. eigenvalues --   -0.70358  -0.69296  -0.69015  -0.68624  -0.67076
 Alpha  occ. eigenvalues --   -0.66933  -0.65421  -0.63101  -0.62624  -0.61934
 Alpha  occ. eigenvalues --   -0.61243  -0.59291  -0.57947  -0.57345  -0.56977
 Alpha  occ. eigenvalues --   -0.56138  -0.55670  -0.53877  -0.53564  -0.52671
 Alpha  occ. eigenvalues --   -0.52048  -0.51455  -0.51096  -0.50403  -0.49965
 Alpha  occ. eigenvalues --   -0.49656  -0.49009  -0.48599  -0.48256  -0.48145
 Alpha  occ. eigenvalues --   -0.47449  -0.47058  -0.46294  -0.45589  -0.45432
 Alpha  occ. eigenvalues --   -0.44958  -0.44465  -0.44206  -0.43818  -0.43650
 Alpha  occ. eigenvalues --   -0.43402  -0.43089  -0.42980  -0.42620  -0.42363
 Alpha  occ. eigenvalues --   -0.42032  -0.41802  -0.41398  -0.41355  -0.41200
 Alpha  occ. eigenvalues --   -0.40622  -0.40491  -0.39904  -0.39820  -0.39627
 Alpha  occ. eigenvalues --   -0.39455  -0.38948  -0.38717  -0.38181  -0.37941
 Alpha  occ. eigenvalues --   -0.37584  -0.37422  -0.37042  -0.36491  -0.36460
 Alpha  occ. eigenvalues --   -0.36135  -0.35865  -0.35652  -0.35585  -0.34857
 Alpha  occ. eigenvalues --   -0.34363  -0.33985  -0.33805  -0.33460  -0.33076
 Alpha  occ. eigenvalues --   -0.32596  -0.32072  -0.31827  -0.30099  -0.29837
 Alpha  occ. eigenvalues --   -0.28814  -0.28044  -0.26558  -0.25837  -0.25594
 Alpha  occ. eigenvalues --   -0.25218  -0.24747  -0.24398  -0.22884  -0.22021
 Alpha  occ. eigenvalues --   -0.17574
 Alpha virt. eigenvalues --   -0.10915  -0.05948  -0.03386  -0.02132   0.00382
 Alpha virt. eigenvalues --    0.01662   0.02684   0.03363   0.03437   0.04003
 Alpha virt. eigenvalues --    0.04221   0.05027   0.05292   0.05917   0.06370

 Mulliken charges:
               1
     1  O   -0.143341
     2  O   -0.073223
     3  O   -0.208453
     4  O   -0.233514
     5  O   -0.202717
     6  O   -0.203464
     7  N   -0.156197
     8  N   -0.098470
     9  N   -0.136723
    10  N   -0.294497
    11  C   -0.114284
    12  C    0.097013
    13  C   -0.153051
    14  C    0.051003
    15  C   -0.085246
    16  C    0.041636
    17  C   -0.025916
    18  C   -0.097088
    19  C    0.101302
    20  C   -0.067059
    21  C    0.179286
    22  C    0.164682
    23  C   -0.003889
    24  C    0.255304
    25  C   -0.163948
    26  C    0.006689
    27  C    0.089070
    28  C   -0.011413
    29  C   -0.089395
    30  C   -0.007230
    31  C   -0.161404
    32  C    0.016181
    33  C   -0.231568
    34  C    0.007798
    35  C   -0.053053
    36  C   -0.128828
    37  C    0.134128
    38  C    0.088686
    39  C    0.134514
    40  C    0.002340
    41  C    0.160218
    42  C    0.000536
    43  C   -0.006227
    44  H    0.159014
    45  H   -0.051687
    46  H    0.028376
    47  H   -0.007264
    48  H    0.014221
    49  H    0.033461
    50  H   -0.049700
    51  H    0.027250
    52  H    0.153535
    53  H    0.038702
    54  H    0.011646
    55  H    0.034029
    56  H    0.144854
    57  H    0.048620
    58  H    0.059619
    59  H    0.071954
    60  H   -0.008700
    61  H    0.060667
    62  H    0.025076
    63  H    0.056027
    64  H    0.034020
    65  H    0.023963
    66  H    0.056846
    67  H    0.030321
    68  H    0.001381
    69  H    0.062120
    70  H    0.018479
    71  H    0.061046
    72  H    0.029054
    73  H    0.019622
    74  H    0.030723
    75  H    0.002273
    76  H    0.049996
    77  H    0.028412
    78  H   -0.011185
    79  H    0.052908
    80  H    0.114369
    81  H    0.165765
 Sum of Mulliken charges =  -0.00000

 Dipole moment (field-independent basis, Debye):
    X=             -1.8786    Y=              1.7810    Z=             -1.5925  Tot=              3.0393
 Quadrupole moment (field-independent basis, Debye-Ang):
   XX=           -255.6993   YY=           -238.4991   ZZ=           -254.3714
   XY=             15.5826   XZ=             11.1134   YZ=            -14.6102

 Normal termination of Gaussian 16 at Thu Jun 27 10:07:57 2019.
