 Gaussian 16, Revision A.03,
 Gaussian 16:  ES64L-G16RevA.03 25-Dec-2016

 --------------------------
 # td=(NStates=1) B3LYP/SVP
 --------------------------

 --
 TD
 --
 Symbolic Z-matrix:
 Charge =  0 Multiplicity = 1

                         Standard orientation:
 ---------------------------------------------------------------------
 Center     Atomic      Atomic             Coordinates (Angstroms)
 Number     Number       Type             X           Y           Z
 ---------------------------------------------------------------------
      1          8           0        4.280276   -4.780795   -1.902702
      2          8           0       -2.596348   -4.898504   -1.168525
      3          8           0       -6.908492   -1.644039   -1.823414
      4          8           0       -3.731817   -3.299575    0.082198
      5          8           0       -7.397545   -0.752407    0.170542
      6          8           0        2.961088    2.367738    0.342712
      7          7           0        0.306492   -0.474010    0.743079
      8          7           0       -1.570493    1.892165    0.423501
      9          7           0        3.268852   -3.123764   -0.714544
     10          7           0        0.709692    2.960947    0.118534
     11          6           0       -0.671365   -2.470463    1.440885
     12          6           0       -0.938818   -1.064608    0.950134
     13          6           0        0.640935   -2.675879    1.359812
     14          6           0        1.284141   -1.453295    0.706959
     15          6           0       -3.821862    1.506819    0.257929
     16          6           0       -2.460987    0.889116    0.459019
     17          6           0       -2.247877   -0.374807    0.896238
     18          6           0       -3.564542    2.839690   -0.059306
     19          6           0       -1.698901   -3.405017    1.992690
     20          6           0        5.494213   -2.733590   -1.359963
     21          6           0        3.532390   -1.898129   -0.226955
     22          6           0       -2.137842    3.178256   -0.076776
     23          6           0        4.924882   -1.577521   -0.577830
     24          6           0       -5.112386    0.677256    0.354572
     25          6           0        2.597138   -0.980475    0.395261
     26          6           0        1.528739   -3.800055    1.873517
     27          6           0        4.316032   -3.700153   -1.408338
     28          6           0       -1.922169   -4.514903    1.073795
     29          6           0       -5.369645   -0.003224   -0.947532
     30          6           0       -4.587760    3.831370   -0.695667
     31          6           0       -1.291221    4.221930   -0.321302
     32          6           0        6.742447   -3.354499   -0.942426
     33          6           0        5.629052   -0.528991   -0.186233
     34          6           0        0.140517    4.064990   -0.269742
     35          6           0        1.093852    5.193898   -0.418398
     36          6           0        2.292314    4.682145   -0.235707
     37          6           0       -2.736854   -4.115640   -0.053137
     38          6           0        5.219845    0.512296    0.820723
     39          6           0       -6.716930   -0.817447   -0.841390
     40          6           0        3.680180    5.297554   -0.266668
     41          6           0        2.064606    3.246199    0.179023
     42          6           0        0.685472    6.506888   -0.895402
     43          6           0        4.252556    5.539098    1.185413
     44          1           0        0.498532    0.478428    0.260921
     45          1           0       -3.183171   -0.983413    1.237859
     46          1           0       -2.672385   -3.006221    2.114523
     47          1           0       -1.341012   -3.685863    3.024794
     48          1           0        5.612150   -2.183322   -2.294472
     49          1           0       -5.191594    0.096849    1.128182
     50          1           0       -5.917570    1.480250    0.608454
     51          1           0        2.863705    0.166710    0.223722
     52          1           0       -0.515121    1.918159    0.608737
     53          1           0        1.613625   -4.606340    1.198948
     54          1           0        2.478870   -3.338404    2.108568
     55          1           0        1.296715   -4.137133    2.714183
     56          1           0        2.315073   -3.640597   -0.629761
     57          1           0       -0.912306   -4.874155    0.675739
     58          1           0       -2.512851   -5.344442    1.568504
     59          1           0       -4.685961   -0.856348   -1.210077
     60          1           0       -5.617947    0.646964   -1.829094
     61          1           0       -4.500449    4.953853   -0.351894
     62          1           0       -5.732275    3.668743   -0.556285
     63          1           0       -4.083927    4.004595   -1.696296
     64          1           0       -1.852962    5.175337   -0.303374
     65          1           0        7.646618   -2.778656   -0.977383
     66          1           0        7.065835   -4.322648   -1.428137
     67          1           0        6.595661   -3.756632    0.123496
     68          1           0        6.687841   -0.677779   -0.558693
     69          1           0        4.988371    1.464011    0.186726
     70          1           0        6.170892    0.751027    1.523215
     71          1           0        4.217935    0.297913    1.464219
     72          1           0        3.442684    6.210315   -0.800421
     73          1           0        4.462721    4.688778   -0.897958
     74          1           0       -0.067338    6.734372   -1.763312
     75          1           0        1.461731    7.294229   -1.230078
     76          1           0        0.226017    6.889305   -0.026195
     77          1           0        3.572531    6.163989    2.140013
     78          1           0        5.227771    6.115620    1.183166
     79          1           0        4.436973    4.594585    1.501344
     80          1           0       -3.251108   -4.623485   -1.912895
     81          1           0       -7.744282   -2.018174   -1.708648
 ---------------------------------------------------------------------

 SCF Done:  E(RB3LYP) =  -1949.08043243     A.U. after   20 cycles

 Excitation energies and oscillator strengths:

 Excited State   1:      Singlet-A      1.5806 eV  784.40 nm  f=0.3258  <S**2>=0.000
     156 ->157         0.71819
     156 <-157        -0.15993
 This state for optimization and/or second-order correction.
 Total Energy, E(TD-HF/TD-DFT) =  -1949.02234529
 Copying the excited state density for this state as the 1-particle RhoCI density.

 The electronic state is 1-A.
 Alpha  occ. eigenvalues --  -19.20316 -19.19139 -19.13507 -19.11781 -19.11532
 Alpha  occ. eigenvalues --  -19.10408 -14.38491 -14.38188 -14.34130 -14.29318
 Alpha  occ. eigenvalues --  -10.33769 -10.31255 -10.29582 -10.26551 -10.24763
 Alpha  occ. eigenvalues --  -10.23933 -10.23660 -10.23400 -10.22923 -10.22010
 Alpha  occ. eigenvalues --  -10.21764 -10.20831 -10.20790 -10.20355 -10.20334
 Alpha  occ. eigenvalues --  -10.20331 -10.20302 -10.20146 -10.20077 -10.19956
 Alpha  occ. eigenvalues --  -10.19918 -10.19783 -10.19663 -10.19613 -10.19538
 Alpha  occ. eigenvalues --  -10.19438 -10.19300 -10.19258 -10.19156 -10.19050
 Alpha  occ. eigenvalues --  -10.18902 -10.18402 -10.18204  -1.12244  -1.08432
 Alpha  occ. eigenvalues --   -1.05657  -1.00302  -0.99846  -0.98364  -0.97236
 Alpha  occ. eigenvalues --   -0.96714  -0.94679  -0.92761  -0.84097  -0.82930
 Alpha  occ. eigenvalues --   -0.80916  -0.80218  -0.79981  -0.79111  -0.78143
 Alpha  occ. eigenvalues --   -0.76166  -0.76024  -0.74824  -0.73390  -0.72857
 Alpha  occ. eigenvalues --   -0.70331  -0.69495  -0.69179  -0.68895  -0.67732
 Alpha  occ. eigenvalues --   -0.66864  -0.64918  -0.64145  -0.62203  -0.61621
 Alpha  occ. eigenvalues --   -0.60648  -0.60541  -0.58974  -0.58113  -0.57657
 Alpha  occ. eigenvalues --   -0.55453  -0.54506  -0.54391  -0.53281  -0.52705
 Alpha  occ. eigenvalues --   -0.51724  -0.51505  -0.50735  -0.50241  -0.49763
 Alpha  occ. eigenvalues --   -0.49398  -0.48583  -0.48452  -0.48072  -0.47907
 Alpha  occ. eigenvalues --   -0.46754  -0.46317  -0.45682  -0.45620  -0.45230
 Alpha  occ. eigenvalues --   -0.44805  -0.44323  -0.43868  -0.43592  -0.43562
 Alpha  occ. eigenvalues --   -0.43242  -0.43073  -0.42619  -0.42450  -0.41890
 Alpha  occ. eigenvalues --   -0.41675  -0.41381  -0.41001  -0.40844  -0.40726
 Alpha  occ. eigenvalues --   -0.40486  -0.40266  -0.40037  -0.39540  -0.39450
 Alpha  occ. eigenvalues --   -0.38902  -0.38791  -0.38620  -0.38438  -0.37982
 Alpha  occ. eigenvalues --   -0.37355  -0.37221  -0.36786  -0.36554  -0.36322
 Alpha  occ. eigenvalues --   -0.36280  -0.35936  -0.35378  -0.35122  -0.34776
 Alpha  occ. eigenvalues --   -0.33771  -0.33288  -0.33008  -0.32666  -0.32553
 Alpha  occ. eigenvalues --   -0.32295  -0.32168  -0.32017  -0.28977  -0.28522
 Alpha  occ. eigenvalues --   -0.28015  -0.27030  -0.26915  -0.26768  -0.26051
 Alpha  occ. eigenvalues --   -0.25236  -0.24583  -0.24259  -0.23205  -0.21159
 Alpha  occ. eigenvalues --   -0.16043
 Alpha virt. eigenvalues --   -0.10012  -0.05817  -0.04008  -0.03076   0.00122
 Alpha virt. eigenvalues --    0.01718   0.02022   0.02482   0.02932   0.04218
 Alpha virt. eigenvalues --    0.04672   0.04954   0.05510   0.05945   0.06077

 Mulliken charges:
               1
     1  O   -0.168504
     2  O   -0.216340
     3  O   -0.096305
     4  O   -0.307832
     5  O   -0.252165
     6  O   -0.266772
     7  N   -0.126146
     8  N   -0.175464
     9  N   -0.110324
    10  N   -0.256517
    11  C   -0.137549
    12  C    0.048749
    13  C   -0.209498
    14  C    0.079995
    15  C   -0.114818
    16  C    0.099576
    17  C   -0.094881
    18  C   -0.088033
    19  C    0.165741
    20  C    0.013933
    21  C    0.054901
    22  C    0.102173
    23  C   -0.086844
    24  C    0.199954
    25  C   -0.189031
    26  C    0.241416
    27  C    0.092619
    28  C    0.028966
    29  C   -0.010586
    30  C    0.005200
    31  C   -0.127810
    32  C    0.044231
    33  C   -0.135456
    34  C    0.075935
    35  C   -0.046879
    36  C   -0.175655
    37  C    0.153069
    38  C   -0.023293
    39  C    0.086008
    40  C    0.085098
    41  C    0.165338
    42  C    0.035794
    43  C   -0.037248
    44  H    0.180525
    45  H    0.048166
    46  H   -0.004200
    47  H    0.017721
    48  H    0.037471
    49  H   -0.042150
    50  H    0.014751
    51  H    0.102631
    52  H    0.156537
    53  H    0.008529
    54  H    0.016175
    55  H   -0.069942
    56  H    0.167513
    57  H    0.034199
    58  H    0.065355
    59  H    0.052833
    60  H    0.037276
    61  H    0.009831
    62  H    0.048110
    63  H    0.033681
    64  H   -0.010735
    65  H    0.012416
    66  H    0.030490
    67  H    0.011411
    68  H   -0.009378
    69  H    0.078456
    70  H    0.027462
    71  H    0.078979
    72  H   -0.013279
    73  H    0.036474
    74  H    0.039595
    75  H    0.023104
    76  H    0.014044
    77  H    0.029851
    78  H    0.021791
    79  H    0.014039
    80  H    0.224272
    81  H    0.151249
 Sum of Mulliken charges =  -0.00000

 Dipole moment (field-independent basis, Debye):
    X=             -1.0784    Y=             -0.6846    Z=             -1.5048  Tot=              1.9738
 Quadrupole moment (field-independent basis, Debye-Ang):
   XX=           -247.5146   YY=           -235.0572   ZZ=           -252.7343
   XY=             11.9236   XZ=             17.2240   YZ=            -12.8590

 Normal termination of Gaussian 16 at Thu Jun 27 08:23:05 2019.
