 Gaussian 16, Revision A.03,
 Gaussian 16:  ES64L-G16RevA.03 25-Dec-2016

 --------------------------
 # td=(NStates=1) B3LYP/SVP
 --------------------------

 --
 TD
 --
 Symbolic Z-matrix:
 Charge =  0 Multiplicity = 1

                         Standard orientation:
 ---------------------------------------------------------------------
 Center     Atomic      Atomic             Coordinates (Angstroms)
 Number     Number       Type             X           Y           Z
 ---------------------------------------------------------------------
      1          8           0       -3.946832   -4.875312    1.999233
      2          8           0        2.959933   -4.716768    1.189623
      3          8           0        7.111248   -1.120855    1.924988
      4          8           0        3.869039   -2.991175   -0.078535
      5          8           0        7.554652   -0.426573   -0.249996
      6          8           0       -3.174504    2.187987   -0.438738
      7          7           0       -0.175689   -0.501157   -0.685851
      8          7           0        1.482327    1.836810   -0.314002
      9          7           0       -3.115478   -3.150063    0.617008
     10          7           0       -0.998406    2.902077   -0.218531
     11          6           0        0.784602   -2.385944   -1.362480
     12          6           0        1.037674   -0.953827   -0.996004
     13          6           0       -0.613650   -2.580546   -1.162299
     14          6           0       -1.259430   -1.411176   -0.722567
     15          6           0        3.749210    1.641272   -0.228380
     16          6           0        2.501882    1.062888   -0.560129
     17          6           0        2.278828   -0.301171   -0.982657
     18          6           0        3.386549    2.996252    0.118719
     19          6           0        1.871691   -3.264739   -1.957630
     20          6           0       -5.339623   -2.856469    1.357916
     21          6           0       -3.528239   -1.829246    0.196222
     22          6           0        2.000602    3.051458    0.077981
     23          6           0       -4.911500   -1.712647    0.458290
     24          6           0        5.034726    0.880952   -0.306795
     25          6           0       -2.590029   -1.071703   -0.409599
     26          6           0       -1.361102   -3.824817   -1.630162
     27          6           0       -4.113223   -3.838420    1.335126
     28          6           0        2.319676   -4.477692   -1.175743
     29          6           0        5.373198    0.090059    0.943388
     30          6           0        4.227171    4.064934    0.549351
     31          6           0        1.012227    4.074157    0.356177
     32          6           0       -6.648612   -3.621353    1.054470
     33          6           0       -5.809084   -0.802926   -0.035884
     34          6           0       -0.334405    3.968073    0.164564
     35          6           0       -1.329580    5.047954    0.510116
     36          6           0       -2.516067    4.402847    0.214318
     37          6           0        3.143572   -4.004444   -0.009329
     38          6           0       -5.493806    0.292926   -0.914670
     39          6           0        6.883336   -0.548741    0.745371
     40          6           0       -3.854946    5.008091    0.279473
     41          6           0       -2.344836    3.071844   -0.201502
     42          6           0       -1.063181    6.480514    0.921840
     43          6           0       -4.354590    5.317680   -1.124256
     44          1           0       -0.420020    0.354303   -0.238234
     45          1           0        3.118929   -1.099416   -0.958917
     46          1           0        2.808160   -2.748516   -2.394628
     47          1           0        1.489503   -3.625238   -2.893411
     48          1           0       -5.294498   -2.637538    2.579191
     49          1           0        5.112138    0.136287   -1.214206
     50          1           0        5.768435    1.732251   -0.233622
     51          1           0       -2.701398   -0.000320   -0.644685
     52          1           0        0.370632    1.839244   -0.306151
     53          1           0       -1.395849   -4.748138   -0.814483
     54          1           0       -2.408795   -3.654935   -1.939114
     55          1           0       -0.528780   -4.314873   -2.341095
     56          1           0       -2.214415   -3.416719    0.567654
     57          1           0        1.492103   -5.332919   -1.018511
     58          1           0        2.993684   -5.247386   -1.886736
     59          1           0        4.601770   -0.701367    1.049006
     60          1           0        5.386107    0.709242    1.762826
     61          1           0        3.930872    5.009688    0.342477
     62          1           0        5.408363    3.963041    0.316540
     63          1           0        4.287270    3.972136    1.816133
     64          1           0        1.273778    4.867947    0.864093
     65          1           0       -7.384289   -2.848188    1.122975
     66          1           0       -6.730387   -4.522504    1.669575
     67          1           0       -6.813566   -4.120439    0.146416
     68          1           0       -6.619497   -0.748355    0.329463
     69          1           0       -4.912252    1.241515   -0.401012
     70          1           0       -6.440515    0.786922   -1.256563
     71          1           0       -4.785415    0.083515   -1.764350
     72          1           0       -4.075234    5.892038    0.817347
     73          1           0       -4.816607    4.489632    0.859111
     74          1           0       -0.375920    6.658916    1.835495
     75          1           0       -2.103639    6.946096    1.069063
     76          1           0       -0.457184    7.030783    0.076357
     77          1           0       -3.406474    5.947930   -1.399353
     78          1           0       -5.368500    5.603866   -1.119149
     79          1           0       -4.558126    4.299067   -1.660082
     80          1           0        3.531077   -4.255797    1.915478
     81          1           0        8.066700   -1.410114    1.762717
 ---------------------------------------------------------------------

 SCF Done:  E(RB3LYP) =  -1949.03287881     A.U. after   20 cycles

 Excitation energies and oscillator strengths:

 Excited State   1:      Singlet-A      1.6137 eV  768.32 nm  f=0.3010  <S**2>=0.000
     156 ->157         0.71018
     156 <-157        -0.14015
 This state for optimization and/or second-order correction.
 Total Energy, E(TD-HF/TD-DFT) =  -1948.97357627
 Copying the excited state density for this state as the 1-particle RhoCI density.

 The electronic state is 1-A.
 Alpha  occ. eigenvalues --  -19.20857 -19.20209 -19.15343 -19.14636 -19.10926
 Alpha  occ. eigenvalues --  -19.09391 -14.37995 -14.36115 -14.35431 -14.27611
 Alpha  occ. eigenvalues --  -10.34988 -10.33266 -10.29290 -10.25094 -10.24880
 Alpha  occ. eigenvalues --  -10.24724 -10.24344 -10.24161 -10.23064 -10.22942
 Alpha  occ. eigenvalues --  -10.22197 -10.22186 -10.22063 -10.22030 -10.21696
 Alpha  occ. eigenvalues --  -10.21365 -10.21231 -10.20986 -10.20755 -10.20504
 Alpha  occ. eigenvalues --  -10.20404 -10.20096 -10.19957 -10.19802 -10.19684
 Alpha  occ. eigenvalues --  -10.19194 -10.18673 -10.18134 -10.17937 -10.17763
 Alpha  occ. eigenvalues --  -10.17650 -10.17568 -10.17533  -1.11430  -1.08610
 Alpha  occ. eigenvalues --   -1.02943  -1.01624  -1.00792  -1.00545  -0.99764
 Alpha  occ. eigenvalues --   -0.98715  -0.94523  -0.92477  -0.82641  -0.82357
 Alpha  occ. eigenvalues --   -0.82063  -0.81841  -0.80003  -0.79235  -0.78076
 Alpha  occ. eigenvalues --   -0.77158  -0.76783  -0.75656  -0.74286  -0.72514
 Alpha  occ. eigenvalues --   -0.71337  -0.70337  -0.68910  -0.68444  -0.67952
 Alpha  occ. eigenvalues --   -0.66725  -0.65835  -0.64452  -0.62281  -0.60906
 Alpha  occ. eigenvalues --   -0.60378  -0.60136  -0.59137  -0.57896  -0.57056
 Alpha  occ. eigenvalues --   -0.56314  -0.56172  -0.55796  -0.55220  -0.53591
 Alpha  occ. eigenvalues --   -0.52703  -0.52428  -0.51747  -0.50597  -0.50167
 Alpha  occ. eigenvalues --   -0.49918  -0.49308  -0.48783  -0.48354  -0.48047
 Alpha  occ. eigenvalues --   -0.47468  -0.47217  -0.46576  -0.45848  -0.45511
 Alpha  occ. eigenvalues --   -0.45388  -0.45033  -0.44658  -0.44498  -0.43934
 Alpha  occ. eigenvalues --   -0.43741  -0.43151  -0.42791  -0.42696  -0.42498
 Alpha  occ. eigenvalues --   -0.42213  -0.42052  -0.41787  -0.41118  -0.40816
 Alpha  occ. eigenvalues --   -0.40470  -0.40293  -0.39979  -0.39597  -0.39274
 Alpha  occ. eigenvalues --   -0.39114  -0.38779  -0.38677  -0.37927  -0.37691
 Alpha  occ. eigenvalues --   -0.37449  -0.37216  -0.36962  -0.36791  -0.36560
 Alpha  occ. eigenvalues --   -0.35932  -0.35706  -0.35480  -0.35018  -0.34605
 Alpha  occ. eigenvalues --   -0.34337  -0.34019  -0.33846  -0.33554  -0.33135
 Alpha  occ. eigenvalues --   -0.32967  -0.32670  -0.30517  -0.29652  -0.29563
 Alpha  occ. eigenvalues --   -0.29026  -0.26725  -0.26268  -0.25897  -0.25479
 Alpha  occ. eigenvalues --   -0.24707  -0.24214  -0.23855  -0.22961  -0.21544
 Alpha  occ. eigenvalues --   -0.17897
 Alpha virt. eigenvalues --   -0.11501  -0.06225  -0.05034  -0.04000  -0.00382
 Alpha virt. eigenvalues --    0.00104   0.01724   0.02260   0.03005   0.03124
 Alpha virt. eigenvalues --    0.03529   0.03811   0.04735   0.04776   0.05486

 Mulliken charges:
               1
     1  O   -0.243416
     2  O   -0.241409
     3  O   -0.158743
     4  O   -0.254262
     5  O   -0.208726
     6  O   -0.244125
     7  N   -0.042230
     8  N   -0.090007
     9  N   -0.119561
    10  N   -0.276209
    11  C   -0.062700
    12  C    0.019923
    13  C   -0.153542
    14  C    0.059798
    15  C   -0.085704
    16  C    0.070991
    17  C   -0.089386
    18  C   -0.086893
    19  C    0.064563
    20  C   -0.136394
    21  C    0.150888
    22  C    0.079705
    23  C    0.035262
    24  C    0.084162
    25  C   -0.129851
    26  C   -0.004112
    27  C    0.158044
    28  C   -0.073016
    29  C   -0.017855
    30  C    0.020894
    31  C   -0.045439
    32  C    0.087639
    33  C    0.046219
    34  C    0.062509
    35  C   -0.071718
    36  C   -0.116445
    37  C    0.216165
    38  C   -0.014566
    39  C    0.158914
    40  C    0.000315
    41  C    0.156809
    42  C    0.027919
    43  C   -0.012249
    44  H    0.115186
    45  H    0.064793
    46  H    0.041301
    47  H    0.002679
    48  H    0.073141
    49  H    0.054726
    50  H   -0.001175
    51  H    0.028614
    52  H    0.180676
    53  H    0.042215
    54  H    0.054730
    55  H    0.022274
    56  H    0.086276
    57  H    0.056148
    58  H    0.069030
    59  H    0.041762
    60  H   -0.000393
    61  H    0.002328
    62  H    0.037474
    63  H    0.033774
    64  H   -0.108640
    65  H    0.013918
    66  H    0.027566
    67  H   -0.010152
    68  H   -0.144828
    69  H    0.114803
    70  H    0.003193
    71  H    0.037120
    72  H   -0.027306
    73  H   -0.005679
    74  H    0.039073
    75  H    0.039681
    76  H    0.041896
    77  H    0.036819
    78  H   -0.012427
    79  H    0.028571
    80  H    0.219161
    81  H    0.179512
 Sum of Mulliken charges =  -0.00000

 Dipole moment (field-independent basis, Debye):
    X=              3.7492    Y=             -0.5139    Z=              0.9330  Tot=              3.8976
 Quadrupole moment (field-independent basis, Debye-Ang):
   XX=           -238.4128   YY=           -246.4934   ZZ=           -257.3695
   XY=            -14.3811   XZ=             17.7025   YZ=             20.0828

 Normal termination of Gaussian 16 at Thu Jun 27 14:02:53 2019.
