 Gaussian 16, Revision A.03,
 Gaussian 16:  ES64L-G16RevA.03 25-Dec-2016

 --------------------------
 # td=(NStates=1) B3LYP/SVP
 --------------------------

 --
 TD
 --
 Symbolic Z-matrix:
 Charge =  0 Multiplicity = 1

                         Standard orientation:
 ---------------------------------------------------------------------
 Center     Atomic      Atomic             Coordinates (Angstroms)
 Number     Number       Type             X           Y           Z
 ---------------------------------------------------------------------
      1          8           0        3.973361   -5.102256   -1.772844
      2          8           0       -3.294425   -4.870536   -0.988247
      3          8           0       -6.955629   -1.293915   -1.830215
      4          8           0       -3.995221   -3.033355    0.148235
      5          8           0       -7.643545   -0.326087    0.033612
      6          8           0        3.192003    2.127362    0.303917
      7          7           0        0.229699   -0.502163    0.435562
      8          7           0       -1.409826    1.928959    0.177007
      9          7           0        3.036347   -3.259005   -0.743445
     10          7           0        0.929916    2.858327    0.032305
     11          6           0       -0.801835   -2.363225    1.412611
     12          6           0       -1.072252   -1.060058    0.886654
     13          6           0        0.612107   -2.520629    1.337739
     14          6           0        1.154361   -1.423812    0.701423
     15          6           0       -3.674530    1.814646    0.267872
     16          6           0       -2.470729    1.089378    0.493829
     17          6           0       -2.185035   -0.262441    0.827664
     18          6           0       -3.310721    3.054229   -0.069341
     19          6           0       -1.849864   -3.198691    1.980688
     20          6           0        5.363461   -3.153974   -1.303901
     21          6           0        3.520991   -2.099878   -0.207459
     22          6           0       -1.979468    3.234208   -0.084157
     23          6           0        4.856542   -1.813071   -0.574316
     24          6           0       -5.087039    1.108251    0.242141
     25          6           0        2.614177   -1.220699    0.308648
     26          6           0        1.156081   -3.836866    1.861529
     27          6           0        4.060880   -3.993035   -1.285962
     28          6           0       -2.226804   -4.485360    1.074051
     29          6           0       -5.371987    0.136759   -0.903888
     30          6           0       -4.257822    4.185883   -0.453962
     31          6           0       -0.968038    4.328348   -0.279044
     32          6           0        6.548191   -3.878023   -0.807793
     33          6           0        5.750440   -0.754751   -0.158555
     34          6           0        0.429371    4.162191   -0.198253
     35          6           0        1.442287    5.131094   -0.402211
     36          6           0        2.640532    4.509949   -0.350830
     37          6           0       -3.244678   -3.946185    0.037973
     38          6           0        5.505064    0.419342    0.701477
     39          6           0       -6.771864   -0.542590   -0.738662
     40          6           0        4.053724    5.089309   -0.340857
     41          6           0        2.281982    3.059880    0.054357
     42          6           0        1.150136    6.561348   -0.668119
     43          6           0        4.533945    5.330375    1.207240
     44          1           0        0.336058    0.371469   -0.239162
     45          1           0       -3.152813   -0.713390    1.171312
     46          1           0       -2.843956   -2.573624    2.037752
     47          1           0       -1.718123   -3.714088    2.963707
     48          1           0        5.633777   -3.025611   -2.495281
     49          1           0       -5.181446    0.353416    0.875608
     50          1           0       -5.890680    1.859889    0.566917
     51          1           0        2.968754    0.010326    0.380413
     52          1           0       -0.489647    1.807558    0.515069
     53          1           0        1.079677   -4.617019    1.154084
     54          1           0        2.179031   -3.781903    2.353297
     55          1           0        0.561740   -4.073678    2.797727
     56          1           0        2.134823   -3.698775   -0.578336
     57          1           0       -1.348622   -4.756433    0.594757
     58          1           0       -2.777817   -5.475928    1.797316
     59          1           0       -4.635580   -0.583534   -0.946675
     60          1           0       -5.522372    0.548535   -2.003445
     61          1           0       -4.407583    4.883051    0.379019
     62          1           0       -5.452654    3.756213   -0.849082
     63          1           0       -3.976391    4.694366   -1.374941
     64          1           0       -1.367798    5.219421   -0.450034
     65          1           0        7.453914   -3.093916   -0.703856
     66          1           0        6.827759   -4.734198   -1.354765
     67          1           0        6.307088   -4.248975    0.254455
     68          1           0        6.788897   -1.042391   -0.505505
     69          1           0        4.844797    1.177721    0.154941
     70          1           0        6.426136    0.895173    0.791529
     71          1           0        4.892552    0.074037    1.651963
     72          1           0        4.037091    6.091153   -0.910569
     73          1           0        4.686565    4.455157   -0.873175
     74          1           0        0.612637    6.622550   -1.779225
     75          1           0        1.943098    7.388790   -0.592922
     76          1           0        0.581076    6.945231    0.222268
     77          1           0        3.858759    6.014076    1.814314
     78          1           0        5.676995    5.731212    1.157201
     79          1           0        4.616154    4.396197    1.703115
     80          1           0       -3.985435   -4.655760   -1.677642
     81          1           0       -7.821400   -1.670249   -1.879337
 ---------------------------------------------------------------------

 SCF Done:  E(RB3LYP) =  -1949.07184689     A.U. after   19 cycles

 Excitation energies and oscillator strengths:

 Excited State   1:      Singlet-A      1.6411 eV  755.49 nm  f=0.2311  <S**2>=0.000
     156 ->157         0.69722
     156 <-157        -0.10425
 This state for optimization and/or second-order correction.
 Total Energy, E(TD-HF/TD-DFT) =  -1949.01153729
 Copying the excited state density for this state as the 1-particle RhoCI density.

 The electronic state is 1-A.
 Alpha  occ. eigenvalues --  -19.19258 -19.17857 -19.15739 -19.13181 -19.10419
 Alpha  occ. eigenvalues --  -19.08354 -14.38887 -14.37238 -14.35082 -14.28001
 Alpha  occ. eigenvalues --  -10.34236 -10.32236 -10.28561 -10.25443 -10.25296
 Alpha  occ. eigenvalues --  -10.24605 -10.24217 -10.24058 -10.24006 -10.23296
 Alpha  occ. eigenvalues --  -10.22671 -10.22289 -10.22014 -10.21997 -10.21423
 Alpha  occ. eigenvalues --  -10.21381 -10.21354 -10.21242 -10.21089 -10.20998
 Alpha  occ. eigenvalues --  -10.20697 -10.20618 -10.20475 -10.20410 -10.19611
 Alpha  occ. eigenvalues --  -10.19473 -10.19370 -10.19283 -10.19069 -10.18882
 Alpha  occ. eigenvalues --  -10.18665 -10.18586 -10.17380  -1.10926  -1.10815
 Alpha  occ. eigenvalues --   -1.03405  -1.02754  -1.01908  -0.98237  -0.97020
 Alpha  occ. eigenvalues --   -0.96162  -0.95369  -0.89347  -0.83391  -0.82451
 Alpha  occ. eigenvalues --   -0.81436  -0.80554  -0.79118  -0.78566  -0.77844
 Alpha  occ. eigenvalues --   -0.77080  -0.76239  -0.74391  -0.73759  -0.72257
 Alpha  occ. eigenvalues --   -0.71134  -0.70061  -0.69011  -0.68653  -0.67752
 Alpha  occ. eigenvalues --   -0.67154  -0.65321  -0.63636  -0.62272  -0.61580
 Alpha  occ. eigenvalues --   -0.60871  -0.59976  -0.58082  -0.57461  -0.57082
 Alpha  occ. eigenvalues --   -0.56700  -0.56019  -0.54672  -0.54065  -0.53176
 Alpha  occ. eigenvalues --   -0.52318  -0.51487  -0.50922  -0.50476  -0.49952
 Alpha  occ. eigenvalues --   -0.49204  -0.49014  -0.48636  -0.48052  -0.47689
 Alpha  occ. eigenvalues --   -0.46972  -0.46621  -0.46416  -0.45821  -0.45593
 Alpha  occ. eigenvalues --   -0.44953  -0.44810  -0.44372  -0.43712  -0.43413
 Alpha  occ. eigenvalues --   -0.43078  -0.42999  -0.42478  -0.42321  -0.42165
 Alpha  occ. eigenvalues --   -0.41820  -0.41464  -0.40909  -0.40826  -0.40587
 Alpha  occ. eigenvalues --   -0.40411  -0.39757  -0.39471  -0.39198  -0.39016
 Alpha  occ. eigenvalues --   -0.38724  -0.38320  -0.38173  -0.37838  -0.37270
 Alpha  occ. eigenvalues --   -0.37192  -0.36938  -0.36588  -0.36354  -0.36117
 Alpha  occ. eigenvalues --   -0.35671  -0.35368  -0.35143  -0.34841  -0.34576
 Alpha  occ. eigenvalues --   -0.34430  -0.34303  -0.33838  -0.33289  -0.33092
 Alpha  occ. eigenvalues --   -0.33011  -0.32327  -0.31670  -0.30911  -0.29833
 Alpha  occ. eigenvalues --   -0.28596  -0.26917  -0.26850  -0.26208  -0.25702
 Alpha  occ. eigenvalues --   -0.25195  -0.24654  -0.22664  -0.22268  -0.20936
 Alpha  occ. eigenvalues --   -0.18246
 Alpha virt. eigenvalues --   -0.11301  -0.05977  -0.04940  -0.03288  -0.00149
 Alpha virt. eigenvalues --    0.00313   0.01078   0.02671   0.03385   0.03737
 Alpha virt. eigenvalues --    0.04247   0.04777   0.04973   0.05662   0.05926

 Mulliken charges:
               1
     1  O   -0.214375
     2  O   -0.227541
     3  O   -0.172392
     4  O   -0.187153
     5  O   -0.193998
     6  O   -0.343089
     7  N   -0.152008
     8  N   -0.129385
     9  N   -0.079983
    10  N   -0.317691
    11  C    0.013309
    12  C    0.101867
    13  C   -0.181392
    14  C    0.062479
    15  C   -0.019965
    16  C   -0.022896
    17  C   -0.026496
    18  C   -0.112362
    19  C   -0.004593
    20  C   -0.120101
    21  C    0.125873
    22  C    0.086524
    23  C   -0.049547
    24  C    0.160389
    25  C   -0.217634
    26  C    0.060996
    27  C    0.100849
    28  C   -0.041351
    29  C   -0.022913
    30  C    0.010220
    31  C   -0.037208
    32  C    0.040650
    33  C   -0.130205
    34  C    0.126657
    35  C   -0.054105
    36  C   -0.185302
    37  C    0.150083
    38  C    0.080903
    39  C    0.116714
    40  C    0.103362
    41  C    0.192697
    42  C    0.018942
    43  C   -0.040662
    44  H    0.200791
    45  H    0.004355
    46  H    0.051188
    47  H    0.022940
    48  H    0.055788
    49  H   -0.035898
    50  H    0.034352
    51  H    0.112228
    52  H    0.126765
    53  H    0.036231
    54  H    0.034652
    55  H    0.021714
    56  H    0.128557
    57  H    0.015733
    58  H    0.093735
    59  H    0.014054
    60  H    0.048391
    61  H    0.042022
    62  H    0.030628
    63  H    0.030547
    64  H   -0.098712
    65  H    0.030205
    66  H    0.024868
    67  H    0.009410
    68  H    0.007891
    69  H    0.098378
    70  H   -0.010942
    71  H    0.058089
    72  H    0.007014
    73  H   -0.003786
    74  H    0.056077
    75  H    0.021416
    76  H    0.024449
    77  H    0.029930
    78  H    0.022854
    79  H    0.026172
    80  H    0.197326
    81  H    0.162419
 Sum of Mulliken charges =  -0.00000

 Dipole moment (field-independent basis, Debye):
    X=             -3.5375    Y=             -0.8098    Z=              0.0093  Tot=              3.6290
 Quadrupole moment (field-independent basis, Debye-Ang):
   XX=           -250.4988   YY=           -241.8172   ZZ=           -253.2529
   XY=             18.4345   XZ=             15.7156   YZ=            -12.9546

 Normal termination of Gaussian 16 at Wed Jul  3 20:16:07 2019.
