 Gaussian 16, Revision A.03,
 Gaussian 16:  ES64L-G16RevA.03 25-Dec-2016

 --------------------------
 # td=(NStates=1) B3LYP/SVP
 --------------------------

 --
 TD
 --
 Symbolic Z-matrix:
 Charge =  0 Multiplicity = 1

                         Standard orientation:
 ---------------------------------------------------------------------
 Center     Atomic      Atomic             Coordinates (Angstroms)
 Number     Number       Type             X           Y           Z
 ---------------------------------------------------------------------
      1          8           0        3.984884   -4.888680   -1.839777
      2          8           0       -3.173865   -4.530164   -1.154438
      3          8           0       -7.033730   -1.288712   -1.950250
      4          8           0       -4.038510   -2.924543    0.157318
      5          8           0       -7.287321   -0.547999    0.192935
      6          8           0        3.052306    2.292904    0.434050
      7          7           0        0.227604   -0.482297    0.567179
      8          7           0       -1.471766    1.895076    0.241575
      9          7           0        3.223604   -3.285532   -0.524882
     10          7           0        0.866289    2.845832   -0.021068
     11          6           0       -0.692591   -2.341858    1.427090
     12          6           0       -0.995752   -0.950035    0.958962
     13          6           0        0.673290   -2.571905    1.237372
     14          6           0        1.153685   -1.431163    0.711733
     15          6           0       -3.722766    1.576929    0.294350
     16          6           0       -2.406938    0.928544    0.512137
     17          6           0       -2.221619   -0.426014    0.852926
     18          6           0       -3.501491    2.883623   -0.041651
     19          6           0       -1.698814   -3.282408    2.019718
     20          6           0        5.322366   -2.901435   -1.498843
     21          6           0        3.521623   -1.892498   -0.110259
     22          6           0       -2.085154    3.034661   -0.078014
     23          6           0        4.938142   -1.692605   -0.507651
     24          6           0       -5.061278    0.769389    0.454738
     25          6           0        2.588745   -1.014642    0.396676
     26          6           0        1.440144   -3.838557    1.817640
     27          6           0        4.133229   -3.831390   -1.352508
     28          6           0       -2.236835   -4.325078    1.051676
     29          6           0       -5.220950   -0.013100   -0.940310
     30          6           0       -4.469444    3.969722   -0.535456
     31          6           0       -1.162972    4.145767   -0.330040
     32          6           0        6.624716   -3.638126   -1.034473
     33          6           0        5.820820   -0.679816   -0.186338
     34          6           0        0.247139    4.059679   -0.218757
     35          6           0        1.255092    5.033812   -0.472395
     36          6           0        2.485675    4.568023   -0.242299
     37          6           0       -3.239316   -3.860029   -0.035701
     38          6           0        5.568984    0.476391    0.754050
     39          6           0       -6.583321   -0.629679   -0.732187
     40          6           0        3.835092    5.085439   -0.229694
     41          6           0        2.241297    3.086721    0.121835
     42          6           0        0.749325    6.456950   -0.854867
     43          6           0        4.603413    5.266905    1.221916
     44          1           0        0.519027    0.384947    0.063683
     45          1           0       -3.055309   -1.213537    1.196491
     46          1           0       -2.562929   -2.701140    2.344189
     47          1           0       -1.356624   -3.840123    2.917713
     48          1           0        5.122159   -2.667636   -2.568540
     49          1           0       -4.996366    0.246160    1.324671
     50          1           0       -6.023063    1.494496    0.570964
     51          1           0        2.791512    0.005076    0.439782
     52          1           0       -0.307231    2.145068    0.553119
     53          1           0        1.766871   -4.517245    0.884989
     54          1           0        2.475753   -3.453095    2.266333
     55          1           0        1.082870   -4.579765    2.700371
     56          1           0        2.170372   -3.769931   -0.646129
     57          1           0       -1.391994   -5.083694    0.708547
     58          1           0       -2.833928   -5.148235    1.403082
     59          1           0       -4.563856   -0.887800   -0.968814
     60          1           0       -5.230836    0.869931   -1.815614
     61          1           0       -4.254254    4.962736   -0.040640
     62          1           0       -5.551496    3.476251   -0.572212
     63          1           0       -4.120787    4.066297   -1.592424
     64          1           0       -1.779228    5.011565   -0.781845
     65          1           0        7.530314   -2.815292   -0.964453
     66          1           0        6.998744   -4.379171   -1.806596
     67          1           0        6.358661   -4.058361    0.163288
     68          1           0        6.875630   -0.716837   -0.586729
     69          1           0        4.906385    1.154439    0.386047
     70          1           0        6.594311    0.682009    1.073514
     71          1           0        4.860291    0.300628    1.514080
     72          1           0        3.706411    6.126967   -0.661113
     73          1           0        4.497735    4.729024   -1.023079
     74          1           0        0.410211    6.425060   -2.037894
     75          1           0        1.467376    7.229682   -1.033055
     76          1           0       -0.006825    6.658411   -0.040668
     77          1           0        4.017345    6.111249    1.686345
     78          1           0        5.729250    5.539923    1.224628
     79          1           0        4.464814    4.475730    1.810070
     80          1           0       -3.840754   -4.212772   -1.760309
     81          1           0       -7.841981   -1.898313   -1.478385
 ---------------------------------------------------------------------

 SCF Done:  E(RB3LYP) =  -1949.04632553     A.U. after   16 cycles

 Excitation energies and oscillator strengths:

 Excited State   1:      Singlet-A      1.9475 eV  636.62 nm  f=0.3665  <S**2>=0.000
     156 ->157         0.70736
     156 <-157        -0.11704
 This state for optimization and/or second-order correction.
 Total Energy, E(TD-HF/TD-DFT) =  -1948.97475476
 Copying the excited state density for this state as the 1-particle RhoCI density.

 The electronic state is 1-A.
 Alpha  occ. eigenvalues --  -19.21448 -19.16552 -19.14642 -19.14026 -19.10878
 Alpha  occ. eigenvalues --  -19.09721 -14.38445 -14.36716 -14.33889 -14.29241
 Alpha  occ. eigenvalues --  -10.34851 -10.31526 -10.27313 -10.26435 -10.25283
 Alpha  occ. eigenvalues --  -10.23875 -10.23096 -10.23010 -10.22948 -10.22769
 Alpha  occ. eigenvalues --  -10.22610 -10.22540 -10.22203 -10.22160 -10.21702
 Alpha  occ. eigenvalues --  -10.21674 -10.21064 -10.20973 -10.20882 -10.20683
 Alpha  occ. eigenvalues --  -10.20638 -10.20635 -10.20351 -10.20239 -10.19894
 Alpha  occ. eigenvalues --  -10.19756 -10.19708 -10.19504 -10.19480 -10.19221
 Alpha  occ. eigenvalues --  -10.18575 -10.18480 -10.16440  -1.13436  -1.09000
 Alpha  occ. eigenvalues --   -1.04928  -1.04160  -1.01898  -1.00229  -0.97695
 Alpha  occ. eigenvalues --   -0.97158  -0.92878  -0.91944  -0.82883  -0.81797
 Alpha  occ. eigenvalues --   -0.80553  -0.79911  -0.79217  -0.78638  -0.77540
 Alpha  occ. eigenvalues --   -0.76469  -0.75841  -0.74705  -0.73933  -0.71715
 Alpha  occ. eigenvalues --   -0.70373  -0.69404  -0.68370  -0.68112  -0.66723
 Alpha  occ. eigenvalues --   -0.65660  -0.64835  -0.63858  -0.63691  -0.63145
 Alpha  occ. eigenvalues --   -0.61043  -0.58786  -0.57642  -0.56636  -0.55778
 Alpha  occ. eigenvalues --   -0.55573  -0.54712  -0.53738  -0.52995  -0.52387
 Alpha  occ. eigenvalues --   -0.52345  -0.51988  -0.51091  -0.50355  -0.49627
 Alpha  occ. eigenvalues --   -0.49042  -0.48742  -0.48271  -0.47885  -0.47230
 Alpha  occ. eigenvalues --   -0.46798  -0.46534  -0.46288  -0.46075  -0.45326
 Alpha  occ. eigenvalues --   -0.44973  -0.44633  -0.44106  -0.43949  -0.43517
 Alpha  occ. eigenvalues --   -0.42849  -0.42497  -0.42368  -0.42060  -0.42002
 Alpha  occ. eigenvalues --   -0.41458  -0.41384  -0.41245  -0.40935  -0.40773
 Alpha  occ. eigenvalues --   -0.40487  -0.40052  -0.39644  -0.39361  -0.39108
 Alpha  occ. eigenvalues --   -0.38886  -0.38646  -0.38111  -0.37876  -0.37813
 Alpha  occ. eigenvalues --   -0.37692  -0.37268  -0.36686  -0.36342  -0.36000
 Alpha  occ. eigenvalues --   -0.35920  -0.35657  -0.35281  -0.35040  -0.34741
 Alpha  occ. eigenvalues --   -0.34547  -0.34410  -0.34034  -0.33769  -0.33364
 Alpha  occ. eigenvalues --   -0.33212  -0.32565  -0.31274  -0.30736  -0.30164
 Alpha  occ. eigenvalues --   -0.28896  -0.27886  -0.26578  -0.26053  -0.25343
 Alpha  occ. eigenvalues --   -0.24734  -0.24395  -0.23942  -0.23407  -0.22030
 Alpha  occ. eigenvalues --   -0.17926
 Alpha virt. eigenvalues --   -0.10216  -0.05545  -0.03853  -0.01819  -0.00277
 Alpha virt. eigenvalues --    0.01195   0.02321   0.02409   0.02844   0.03738
 Alpha virt. eigenvalues --    0.03971   0.04554   0.04892   0.04931   0.05653

 Mulliken charges:
               1
     1  O   -0.183193
     2  O   -0.111039
     3  O   -0.334264
     4  O   -0.276927
     5  O   -0.171795
     6  O   -0.167355
     7  N   -0.033698
     8  N   -0.173918
     9  N   -0.215394
    10  N   -0.359472
    11  C   -0.125382
    12  C    0.081655
    13  C   -0.119080
    14  C    0.019278
    15  C   -0.126957
    16  C    0.095524
    17  C   -0.147019
    18  C   -0.125066
    19  C    0.145187
    20  C   -0.032403
    21  C    0.167051
    22  C   -0.005334
    23  C   -0.023205
    24  C    0.089688
    25  C   -0.054613
    26  C   -0.021919
    27  C    0.041212
    28  C   -0.016001
    29  C   -0.018640
    30  C    0.062160
    31  C   -0.110369
    32  C   -0.039020
    33  C   -0.171715
    34  C    0.119048
    35  C   -0.069497
    36  C   -0.172980
    37  C    0.127288
    38  C    0.143771
    39  C    0.154638
    40  C    0.047776
    41  C    0.148456
    42  C    0.059812
    43  C    0.019174
    44  H    0.164330
    45  H    0.078239
    46  H    0.006066
    47  H    0.012723
    48  H    0.045027
    49  H    0.000022
    50  H    0.039314
    51  H   -0.045790
    52  H    0.228741
    53  H    0.029015
    54  H    0.050958
    55  H    0.053719
    56  H    0.192799
    57  H    0.034692
    58  H    0.027113
    59  H    0.057758
    60  H    0.087497
    61  H    0.041456
    62  H    0.038628
    63  H    0.031036
    64  H   -0.003377
    65  H    0.034903
    66  H    0.050053
    67  H    0.057796
    68  H    0.009534
    69  H    0.019407
    70  H    0.021575
    71  H   -0.008053
    72  H   -0.017661
    73  H    0.015125
    74  H    0.034553
    75  H   -0.001677
    76  H    0.052744
    77  H    0.014734
    78  H    0.031064
    79  H   -0.000023
    80  H    0.183989
    81  H    0.216505
 Sum of Mulliken charges =  -0.00000

 Dipole moment (field-independent basis, Debye):
    X=             -1.7278    Y=             -0.3698    Z=              0.1666  Tot=              1.7748
 Quadrupole moment (field-independent basis, Debye-Ang):
   XX=           -256.3625   YY=           -241.1318   ZZ=           -255.6841
   XY=             21.6591   XZ=              7.2414   YZ=            -14.2624

 Normal termination of Gaussian 16 at Fri Jun 28 10:36:03 2019.
