 Gaussian 16, Revision A.03,
 Gaussian 16:  ES64L-G16RevA.03 25-Dec-2016

 --------------------------
 # td=(NStates=1) B3LYP/SVP
 --------------------------

 --
 TD
 --
 Symbolic Z-matrix:
 Charge =  0 Multiplicity = 1

                         Standard orientation:
 ---------------------------------------------------------------------
 Center     Atomic      Atomic             Coordinates (Angstroms)
 Number     Number       Type             X           Y           Z
 ---------------------------------------------------------------------
      1          8           0        4.011878   -5.161307   -1.627656
      2          8           0       -3.455819   -4.764595   -0.949249
      3          8           0       -6.881591   -1.680435   -1.562899
      4          8           0       -3.957767   -2.779149    0.076184
      5          8           0       -7.580354   -0.175612    0.135189
      6          8           0        3.051300    2.155439    0.670486
      7          7           0        0.203394   -0.464554    0.495153
      8          7           0       -1.362590    1.908365    0.108047
      9          7           0        3.079009   -3.314272   -0.638034
     10          7           0        0.910321    2.868802    0.113049
     11          6           0       -0.827382   -2.315565    1.371786
     12          6           0       -0.989966   -0.974932    0.840721
     13          6           0        0.526999   -2.567205    1.228203
     14          6           0        1.224848   -1.405140    0.773492
     15          6           0       -3.609735    1.707667    0.154394
     16          6           0       -2.436114    1.071120    0.392083
     17          6           0       -2.228508   -0.278625    0.763405
     18          6           0       -3.394223    2.955180   -0.285894
     19          6           0       -1.809509   -3.211612    2.058283
     20          6           0        5.343651   -3.047389   -1.349943
     21          6           0        3.388434   -2.069143   -0.254349
     22          6           0       -1.980128    3.159478   -0.168922
     23          6           0        4.854063   -1.844365   -0.573189
     24          6           0       -5.046881    1.188819    0.263376
     25          6           0        2.564552   -1.214533    0.456599
     26          6           0        1.381011   -3.839907    1.747592
     27          6           0        4.085433   -4.026486   -1.215827
     28          6           0       -2.352549   -4.388602    1.135009
     29          6           0       -5.358127    0.138634   -0.860246
     30          6           0       -4.164293    4.053166   -0.797032
     31          6           0       -1.121147    4.214422   -0.442588
     32          6           0        6.711500   -3.795022   -1.061897
     33          6           0        5.789562   -0.896881   -0.331121
     34          6           0        0.345141    4.056163   -0.187302
     35          6           0        1.365280    5.073162   -0.445688
     36          6           0        2.558779    4.530400   -0.028241
     37          6           0       -3.326055   -3.857368    0.064296
     38          6           0        5.574291    0.325008    0.604262
     39          6           0       -6.702447   -0.623277   -0.603063
     40          6           0        3.958068    5.082326   -0.133300
     41          6           0        2.208776    3.064998    0.141218
     42          6           0        1.203527    6.611311   -0.743879
     43          6           0        4.517748    5.536887    1.237043
     44          1           0        0.273076    0.498114    0.181198
     45          1           0       -3.101151   -1.068920    0.951323
     46          1           0       -2.695676   -2.648363    2.326888
     47          1           0       -1.455594   -3.654431    3.007002
     48          1           0        5.255834   -2.917925   -2.504852
     49          1           0       -5.237255    0.642309    1.291376
     50          1           0       -5.877144    1.940375    0.070884
     51          1           0        2.659061   -0.107933    0.856047
     52          1           0       -0.207370    1.853651    0.210719
     53          1           0        1.242813   -4.620319    0.966459
     54          1           0        2.277705   -3.440680    2.149555
     55          1           0        0.743996   -4.096535    2.538041
     56          1           0        2.095840   -3.483676   -0.584426
     57          1           0       -1.475195   -4.889504    0.622603
     58          1           0       -2.881395   -5.263785    1.708539
     59          1           0       -4.594411   -0.550449   -1.174246
     60          1           0       -5.548230    0.872044   -1.925015
     61          1           0       -4.065544    5.040502   -0.344303
     62          1           0       -5.170490    3.977156   -0.524540
     63          1           0       -3.893032    4.052152   -2.087857
     64          1           0       -1.563475    5.260512   -0.617860
     65          1           0        7.552242   -3.287690   -1.177558
     66          1           0        6.734109   -4.672333   -1.615589
     67          1           0        6.590455   -4.206007   -0.082068
     68          1           0        6.815107   -1.059199   -0.534364
     69          1           0        5.207616    1.201049    0.078622
     70          1           0        6.517774    0.728590    1.195201
     71          1           0        4.748019    0.088536    1.322133
     72          1           0        3.832583    5.978277   -0.814413
     73          1           0        4.704931    4.517175   -0.628366
     74          1           0        0.607641    6.767969   -1.785861
     75          1           0        2.099262    7.053417   -1.082807
     76          1           0        0.832997    6.988648    0.111301
     77          1           0        3.995865    6.613538    1.477094
     78          1           0        5.640666    5.718621    0.958689
     79          1           0        4.339780    4.562307    1.892339
     80          1           0       -3.939347   -4.460352   -1.772113
     81          1           0       -7.901766   -2.146093   -1.639401
 ---------------------------------------------------------------------

 SCF Done:  E(RB3LYP) =  -1949.05112758     A.U. after   25 cycles

 Excitation energies and oscillator strengths:

 Excited State   1:      Singlet-A      1.6967 eV  730.76 nm  f=0.2955  <S**2>=0.000
     156 ->157         0.70918
     156 <-157        -0.14091
 This state for optimization and/or second-order correction.
 Total Energy, E(TD-HF/TD-DFT) =  -1948.98877662
 Copying the excited state density for this state as the 1-particle RhoCI density.

 The electronic state is 1-A.
 Alpha  occ. eigenvalues --  -19.19843 -19.17922 -19.14965 -19.13368 -19.11219
 Alpha  occ. eigenvalues --  -19.08892 -14.37977 -14.37830 -14.34343 -14.30346
 Alpha  occ. eigenvalues --  -10.34839 -10.32806 -10.29520 -10.26018 -10.25346
 Alpha  occ. eigenvalues --  -10.23944 -10.23805 -10.23489 -10.23265 -10.22862
 Alpha  occ. eigenvalues --  -10.22542 -10.22278 -10.21818 -10.21653 -10.21424
 Alpha  occ. eigenvalues --  -10.21219 -10.20693 -10.20429 -10.20212 -10.20151
 Alpha  occ. eigenvalues --  -10.20066 -10.20032 -10.19926 -10.19805 -10.19601
 Alpha  occ. eigenvalues --  -10.19570 -10.19500 -10.19112 -10.19004 -10.18969
 Alpha  occ. eigenvalues --  -10.18485 -10.17293 -10.17238  -1.09387  -1.05033
 Alpha  occ. eigenvalues --   -1.04290  -1.00813  -0.98805  -0.97913  -0.97735
 Alpha  occ. eigenvalues --   -0.97469  -0.96078  -0.90578  -0.82533  -0.81906
 Alpha  occ. eigenvalues --   -0.81164  -0.80978  -0.79581  -0.79130  -0.77346
 Alpha  occ. eigenvalues --   -0.75971  -0.75418  -0.74446  -0.73531  -0.71858
 Alpha  occ. eigenvalues --   -0.71623  -0.69842  -0.69499  -0.69073  -0.68661
 Alpha  occ. eigenvalues --   -0.66583  -0.65103  -0.63986  -0.62808  -0.61727
 Alpha  occ. eigenvalues --   -0.60108  -0.59704  -0.58431  -0.58248  -0.56970
 Alpha  occ. eigenvalues --   -0.55888  -0.54876  -0.54437  -0.53503  -0.52645
 Alpha  occ. eigenvalues --   -0.52475  -0.51772  -0.51084  -0.49787  -0.49491
 Alpha  occ. eigenvalues --   -0.48698  -0.48366  -0.48159  -0.47615  -0.46864
 Alpha  occ. eigenvalues --   -0.46748  -0.46240  -0.45998  -0.45874  -0.45475
 Alpha  occ. eigenvalues --   -0.45077  -0.44511  -0.44205  -0.43868  -0.43365
 Alpha  occ. eigenvalues --   -0.43261  -0.43127  -0.42790  -0.42528  -0.41880
 Alpha  occ. eigenvalues --   -0.41772  -0.41468  -0.40946  -0.40427  -0.40154
 Alpha  occ. eigenvalues --   -0.39940  -0.39472  -0.39329  -0.39090  -0.39004
 Alpha  occ. eigenvalues --   -0.38757  -0.38463  -0.38096  -0.37792  -0.37786
 Alpha  occ. eigenvalues --   -0.37434  -0.36880  -0.36829  -0.35825  -0.35734
 Alpha  occ. eigenvalues --   -0.35446  -0.35190  -0.35022  -0.34962  -0.34483
 Alpha  occ. eigenvalues --   -0.34351  -0.33728  -0.33506  -0.33228  -0.32824
 Alpha  occ. eigenvalues --   -0.32480  -0.31615  -0.31175  -0.29890  -0.28762
 Alpha  occ. eigenvalues --   -0.28334  -0.28071  -0.26606  -0.26322  -0.25707
 Alpha  occ. eigenvalues --   -0.25187  -0.24459  -0.23884  -0.22966  -0.21821
 Alpha  occ. eigenvalues --   -0.17571
 Alpha virt. eigenvalues --   -0.10932  -0.06558  -0.03841  -0.02970  -0.02278
 Alpha virt. eigenvalues --    0.00065   0.00674   0.02231   0.02959   0.03256
 Alpha virt. eigenvalues --    0.03455   0.04014   0.04738   0.05231   0.06294

 Mulliken charges:
               1
     1  O   -0.200847
     2  O   -0.218010
     3  O   -0.333714
     4  O   -0.246558
     5  O   -0.231271
     6  O   -0.344816
     7  N   -0.028881
     8  N   -0.257542
     9  N   -0.010450
    10  N   -0.220267
    11  C   -0.079597
    12  C   -0.013828
    13  C   -0.263591
    14  C    0.025062
    15  C   -0.048987
    16  C    0.159348
    17  C   -0.123993
    18  C   -0.098145
    19  C    0.113490
    20  C   -0.149128
    21  C    0.097422
    22  C    0.113955
    23  C    0.030945
    24  C    0.061556
    25  C   -0.144935
    26  C    0.168518
    27  C    0.092723
    28  C   -0.048561
    29  C   -0.082116
    30  C    0.081519
    31  C   -0.120026
    32  C    0.166956
    33  C   -0.116945
    34  C    0.056178
    35  C   -0.142613
    36  C   -0.117993
    37  C    0.181750
    38  C    0.012784
    39  C    0.231491
    40  C    0.058091
    41  C    0.158694
    42  C    0.122018
    43  C   -0.075143
    44  H    0.096006
    45  H    0.064331
    46  H    0.006013
    47  H    0.022072
    48  H    0.056235
    49  H    0.044343
    50  H    0.034214
    51  H    0.083653
    52  H    0.227366
    53  H    0.036479
    54  H    0.038519
    55  H   -0.021721
    56  H    0.123841
    57  H    0.045857
    58  H    0.069411
    59  H    0.041324
    60  H    0.055752
    61  H    0.019932
    62  H   -0.020177
    63  H    0.060620
    64  H    0.006207
    65  H   -0.010530
    66  H   -0.000742
    67  H   -0.003549
    68  H   -0.013835
    69  H    0.043613
    70  H    0.013672
    71  H    0.036531
    72  H   -0.011912
    73  H    0.006159
    74  H    0.027431
    75  H   -0.003972
    76  H    0.023300
    77  H    0.038070
    78  H    0.024378
    79  H    0.070119
    80  H    0.213831
    81  H    0.242621
 Sum of Mulliken charges =  -0.00000

 Dipole moment (field-independent basis, Debye):
    X=             -2.9881    Y=             -0.4022    Z=             -1.5344  Tot=              3.3830
 Quadrupole moment (field-independent basis, Debye-Ang):
   XX=           -252.3697   YY=           -237.6014   ZZ=           -252.4739
   XY=             19.1687   XZ=             10.2622   YZ=            -13.3634

 Normal termination of Gaussian 16 at Mon Jul  1 07:22:46 2019.
