 Gaussian 16, Revision A.03,
 Gaussian 16:  ES64L-G16RevA.03 25-Dec-2016

 --------------------------
 # td=(NStates=1) B3LYP/SVP
 --------------------------

 --
 TD
 --
 Symbolic Z-matrix:
 Charge =  0 Multiplicity = 1

                         Standard orientation:
 ---------------------------------------------------------------------
 Center     Atomic      Atomic             Coordinates (Angstroms)
 Number     Number       Type             X           Y           Z
 ---------------------------------------------------------------------
      1          8           0        4.090046   -4.891886   -2.113212
      2          8           0       -3.342327   -4.756952   -1.092722
      3          8           0       -6.720269   -1.749596   -1.759427
      4          8           0       -3.801037   -2.955176    0.150280
      5          8           0       -7.563134   -0.240458   -0.183015
      6          8           0        3.027828    2.315326    0.443749
      7          7           0        0.273685   -0.402230    0.679227
      8          7           0       -1.514580    1.864875    0.286573
      9          7           0        3.193966   -3.219013   -0.653909
     10          7           0        0.867169    2.981901    0.113351
     11          6           0       -0.724232   -2.406478    1.470481
     12          6           0       -0.929219   -1.034545    1.055335
     13          6           0        0.704244   -2.577680    1.311319
     14          6           0        1.312944   -1.415391    0.769557
     15          6           0       -3.692021    1.574392    0.344876
     16          6           0       -2.444748    0.863474    0.669050
     17          6           0       -2.233438   -0.318716    1.004210
     18          6           0       -3.457586    2.872551   -0.116010
     19          6           0       -1.741158   -3.374841    2.067456
     20          6           0        5.345550   -3.002027   -1.324032
     21          6           0        3.548209   -1.963583   -0.206249
     22          6           0       -2.006051    3.027210   -0.031432
     23          6           0        4.947563   -1.784240   -0.449062
     24          6           0       -5.071299    0.968925    0.335955
     25          6           0        2.601659   -1.094966    0.436118
     26          6           0        1.467168   -3.799588    1.769719
     27          6           0        4.116529   -3.872442   -1.362959
     28          6           0       -2.097846   -4.489239    1.015286
     29          6           0       -5.264792   -0.084544   -0.814614
     30          6           0       -4.498178    3.916521   -0.433045
     31          6           0       -1.170148    4.145690   -0.421844
     32          6           0        6.671770   -3.597905   -0.991303
     33          6           0        5.698147   -0.711364   -0.088835
     34          6           0        0.141599    4.122357   -0.322482
     35          6           0        1.131823    5.213368   -0.480669
     36          6           0        2.383383    4.640165   -0.277723
     37          6           0       -3.168567   -4.016054   -0.006993
     38          6           0        5.560960    0.383499    1.000838
     39          6           0       -6.652423   -0.704322   -0.833869
     40          6           0        3.762301    5.291186   -0.375511
     41          6           0        2.195520    3.134088    0.117489
     42          6           0        0.871827    6.629686   -1.022206
     43          6           0        4.388719    5.443134    1.078432
     44          1           0        0.384482    0.572155    0.258721
     45          1           0       -3.222359   -0.953813    1.285681
     46          1           0       -2.577287   -2.912390    2.329518
     47          1           0       -1.213612   -4.038464    2.815805
     48          1           0        5.626355   -2.770179   -2.215220
     49          1           0       -5.307063    0.698949    1.349580
     50          1           0       -5.924804    1.704256    0.235448
     51          1           0        2.835855    0.156658    0.576846
     52          1           0       -0.469100    2.093499    0.499387
     53          1           0        1.304208   -4.562557    0.993978
     54          1           0        2.535019   -3.456109    1.622355
     55          1           0        1.174909   -4.036404    2.652629
     56          1           0        2.393420   -3.556209   -0.736072
     57          1           0       -1.121160   -4.972950    0.559281
     58          1           0       -2.694802   -5.446584    1.350101
     59          1           0       -4.574015   -0.857597   -0.805397
     60          1           0       -5.242972    0.363958   -1.926438
     61          1           0       -4.512767    4.685569    0.312782
     62          1           0       -5.489598    3.468384   -0.566026
     63          1           0       -4.208288    4.330898   -1.466413
     64          1           0       -1.774100    5.124115   -0.541857
     65          1           0        7.424941   -2.833378   -1.175359
     66          1           0        6.941594   -4.374878   -1.647025
     67          1           0        6.850583   -3.909916   -0.188751
     68          1           0        6.600019   -0.656531   -0.688795
     69          1           0        4.708972    1.017418    0.539556
     70          1           0        6.539006    0.873294    1.359198
     71          1           0        4.898523    0.126681    1.961756
     72          1           0        3.621809    6.347386   -0.723015
     73          1           0        4.504384    4.959274   -1.200477
     74          1           0        0.183305    6.663495   -2.073773
     75          1           0        1.816625    7.081810   -1.218251
     76          1           0        0.419064    7.144259   -0.213263
     77          1           0        4.064017    6.287717    1.859030
     78          1           0        5.497170    5.731135    0.712508
     79          1           0        4.135552    4.326566    1.761201
     80          1           0       -3.918691   -4.641422   -1.743301
     81          1           0       -7.668977   -1.996803   -1.771544
 ---------------------------------------------------------------------

 SCF Done:  E(RB3LYP) =  -1948.97502444     A.U. after   16 cycles

 Excitation energies and oscillator strengths:

 Excited State   1:      Singlet-A      1.7763 eV  697.99 nm  f=0.3058  <S**2>=0.000
     156 ->157         0.70524
 This state for optimization and/or second-order correction.
 Total Energy, E(TD-HF/TD-DFT) =  -1948.90974634
 Copying the excited state density for this state as the 1-particle RhoCI density.

 The electronic state is 1-A.
 Alpha  occ. eigenvalues --  -19.19130 -19.18772 -19.13565 -19.13545 -19.10180
 Alpha  occ. eigenvalues --  -19.09703 -14.37270 -14.37026 -14.35812 -14.28073
 Alpha  occ. eigenvalues --  -10.34525 -10.32493 -10.28543 -10.26006 -10.24819
 Alpha  occ. eigenvalues --  -10.24658 -10.24027 -10.24004 -10.22941 -10.22915
 Alpha  occ. eigenvalues --  -10.22687 -10.21840 -10.21634 -10.21210 -10.21065
 Alpha  occ. eigenvalues --  -10.21016 -10.20742 -10.20480 -10.20393 -10.20332
 Alpha  occ. eigenvalues --  -10.20159 -10.20043 -10.20007 -10.19800 -10.19738
 Alpha  occ. eigenvalues --  -10.19608 -10.19602 -10.19498 -10.19389 -10.19238
 Alpha  occ. eigenvalues --  -10.18586 -10.18019 -10.15418  -1.11730  -1.08577
 Alpha  occ. eigenvalues --   -1.02759  -1.01290  -1.01172  -1.01089  -0.99265
 Alpha  occ. eigenvalues --   -0.96113  -0.94805  -0.90510  -0.83199  -0.82671
 Alpha  occ. eigenvalues --   -0.81756  -0.81314  -0.79276  -0.77934  -0.77536
 Alpha  occ. eigenvalues --   -0.77137  -0.76936  -0.75376  -0.73314  -0.72933
 Alpha  occ. eigenvalues --   -0.71698  -0.71358  -0.70379  -0.68881  -0.68255
 Alpha  occ. eigenvalues --   -0.66727  -0.66215  -0.64925  -0.64209  -0.62698
 Alpha  occ. eigenvalues --   -0.60823  -0.59619  -0.59212  -0.58125  -0.57049
 Alpha  occ. eigenvalues --   -0.56006  -0.55303  -0.54832  -0.53888  -0.52591
 Alpha  occ. eigenvalues --   -0.52337  -0.51928  -0.51291  -0.49853  -0.49288
 Alpha  occ. eigenvalues --   -0.48826  -0.48476  -0.48366  -0.48008  -0.47788
 Alpha  occ. eigenvalues --   -0.47369  -0.46659  -0.46071  -0.45682  -0.45377
 Alpha  occ. eigenvalues --   -0.45053  -0.44702  -0.44190  -0.43936  -0.43198
 Alpha  occ. eigenvalues --   -0.43102  -0.42862  -0.42425  -0.42211  -0.41978
 Alpha  occ. eigenvalues --   -0.41759  -0.41621  -0.41217  -0.41068  -0.40527
 Alpha  occ. eigenvalues --   -0.40348  -0.40283  -0.40087  -0.39934  -0.39229
 Alpha  occ. eigenvalues --   -0.38892  -0.38566  -0.38428  -0.38252  -0.37845
 Alpha  occ. eigenvalues --   -0.37633  -0.37316  -0.37071  -0.36917  -0.36692
 Alpha  occ. eigenvalues --   -0.36372  -0.36317  -0.35438  -0.34848  -0.34538
 Alpha  occ. eigenvalues --   -0.34257  -0.33643  -0.33465  -0.33318  -0.33167
 Alpha  occ. eigenvalues --   -0.33051  -0.32633  -0.30912  -0.29696  -0.28942
 Alpha  occ. eigenvalues --   -0.28504  -0.26638  -0.26207  -0.25474  -0.24871
 Alpha  occ. eigenvalues --   -0.24669  -0.24519  -0.23351  -0.22962  -0.21542
 Alpha  occ. eigenvalues --   -0.17753
 Alpha virt. eigenvalues --   -0.10398  -0.05878  -0.04124  -0.01659  -0.00119
 Alpha virt. eigenvalues --    0.00382   0.01679   0.03268   0.03819   0.04102
 Alpha virt. eigenvalues --    0.04700   0.05171   0.05349   0.06115   0.06319

 Mulliken charges:
               1
     1  O   -0.271741
     2  O   -0.113990
     3  O   -0.223560
     4  O   -0.259198
     5  O   -0.223282
     6  O   -0.219217
     7  N   -0.171181
     8  N   -0.104763
     9  N    0.043136
    10  N   -0.361054
    11  C   -0.120733
    12  C    0.047689
    13  C   -0.240234
    14  C    0.130878
    15  C   -0.085561
    16  C    0.191870
    17  C   -0.130321
    18  C   -0.138474
    19  C    0.265483
    20  C    0.033241
    21  C    0.057710
    22  C   -0.020385
    23  C    0.012641
    24  C    0.091458
    25  C   -0.207095
    26  C    0.180562
    27  C    0.113710
    28  C   -0.109815
    29  C    0.012708
    30  C    0.111828
    31  C   -0.117601
    32  C    0.201989
    33  C   -0.136968
    34  C    0.162231
    35  C   -0.099572
    36  C   -0.193206
    37  C    0.156253
    38  C   -0.029646
    39  C    0.149825
    40  C    0.057884
    41  C    0.172820
    42  C    0.105905
    43  C   -0.137961
    44  H    0.164061
    45  H    0.067606
    46  H   -0.035070
    47  H    0.016157
    48  H   -0.034330
    49  H    0.009639
    50  H    0.008571
    51  H    0.102710
    52  H    0.176103
    53  H    0.015493
    54  H    0.032172
    55  H   -0.022119
    56  H    0.039943
    57  H    0.062949
    58  H    0.054570
    59  H    0.020755
    60  H    0.053024
    61  H    0.033990
    62  H    0.014656
    63  H    0.027294
    64  H    0.005834
    65  H   -0.014440
    66  H   -0.002649
    67  H   -0.109646
    68  H   -0.010964
    69  H    0.100276
    70  H    0.044865
    71  H    0.038288
    72  H   -0.014137
    73  H    0.041105
    74  H    0.048425
    75  H   -0.001869
    76  H    0.013624
    77  H    0.043019
    78  H    0.032594
    79  H    0.068426
    80  H    0.144386
    81  H    0.180424
 Sum of Mulliken charges =  -0.00000

 Dipole moment (field-independent basis, Debye):
    X=             -4.3973    Y=              0.2424    Z=             -0.3050  Tot=              4.4145
 Quadrupole moment (field-independent basis, Debye-Ang):
   XX=           -248.5962   YY=           -237.8936   ZZ=           -254.2978
   XY=             21.1134   XZ=             12.8123   YZ=            -14.2451

 Normal termination of Gaussian 16 at Mon Jul  1 01:20:36 2019.
