 Gaussian 16, Revision A.03,
 Gaussian 16:  ES64L-G16RevA.03 25-Dec-2016

 --------------------------
 # td=(NStates=1) B3LYP/SVP
 --------------------------

 --
 TD
 --
 Symbolic Z-matrix:
 Charge =  0 Multiplicity = 1

                         Standard orientation:
 ---------------------------------------------------------------------
 Center     Atomic      Atomic             Coordinates (Angstroms)
 Number     Number       Type             X           Y           Z
 ---------------------------------------------------------------------
      1          8           0        4.010286   -4.963692   -1.821940
      2          8           0       -2.992529   -4.781230   -1.110388
      3          8           0       -7.139753   -1.389774   -1.827918
      4          8           0       -3.845934   -3.103173    0.206821
      5          8           0       -7.720082   -0.301219    0.060667
      6          8           0        3.138364    2.318923    0.510470
      7          7           0        0.240370   -0.455319    0.502094
      8          7           0       -1.456452    1.869699    0.286687
      9          7           0        3.213369   -3.217517   -0.675245
     10          7           0        0.929246    2.853927    0.185369
     11          6           0       -0.634718   -2.266430    1.408238
     12          6           0       -0.945461   -0.979737    0.899474
     13          6           0        0.617698   -2.570941    1.207735
     14          6           0        1.255411   -1.354817    0.703782
     15          6           0       -3.777949    1.639240    0.190810
     16          6           0       -2.494361    0.982787    0.658968
     17          6           0       -2.332522   -0.353384    0.957678
     18          6           0       -3.485475    2.905081   -0.125910
     19          6           0       -1.719262   -3.297943    1.978132
     20          6           0        5.400919   -2.944101   -1.403523
     21          6           0        3.579036   -1.998205   -0.237899
     22          6           0       -1.996701    3.014558   -0.045503
     23          6           0        4.966970   -1.670761   -0.545866
     24          6           0       -5.086119    0.925952    0.381497
     25          6           0        2.622559   -1.025131    0.274059
     26          6           0        1.260172   -3.808144    1.819838
     27          6           0        4.223030   -3.908815   -1.322224
     28          6           0       -2.013501   -4.415941    1.022539
     29          6           0       -5.422691   -0.088546   -0.893854
     30          6           0       -4.486919    3.965843   -0.606644
     31          6           0       -1.138050    4.149709   -0.397586
     32          6           0        6.640207   -3.586945   -0.892006
     33          6           0        5.876275   -0.735928   -0.183000
     34          6           0        0.269025    3.959568   -0.219687
     35          6           0        1.207174    5.049801   -0.441875
     36          6           0        2.480577    4.536010   -0.215014
     37          6           0       -3.125320   -4.094201    0.040004
     38          6           0        5.523698    0.472465    0.743195
     39          6           0       -6.885979   -0.561092   -0.766147
     40          6           0        3.917005    5.158585   -0.311628
     41          6           0        2.242799    3.052580    0.141014
     42          6           0        0.981961    6.445752   -0.846956
     43          6           0        4.382420    5.635286    1.108556
     44          1           0        0.474970    0.542336    0.009433
     45          1           0       -3.095231   -1.184265    1.128268
     46          1           0       -2.580906   -2.613827    2.513624
     47          1           0       -1.274345   -3.848017    2.820282
     48          1           0        5.624845   -2.375287   -2.322884
     49          1           0       -5.222893    0.298663    1.306757
     50          1           0       -5.850694    1.656952    0.149920
     51          1           0        2.924619   -0.008403    0.505515
     52          1           0       -0.416213    2.028608    0.400646
     53          1           0        1.419752   -4.728992    0.980955
     54          1           0        2.118764   -3.710858    2.335125
     55          1           0        0.666360   -4.283416    2.517483
     56          1           0        2.198208   -3.609108   -0.447221
     57          1           0       -0.947836   -4.849412    0.588090
     58          1           0       -2.494819   -5.260064    1.774704
     59          1           0       -4.732654   -1.154203   -0.475103
     60          1           0       -4.827184    0.224685   -1.908829
     61          1           0       -4.133246    4.917047   -0.203806
     62          1           0       -5.509984    3.520319   -0.254386
     63          1           0       -4.436638    4.077023   -1.805300
     64          1           0       -1.611445    5.025280   -0.845232
     65          1           0        7.681602   -3.136952   -1.160271
     66          1           0        6.618569   -4.496360   -1.422552
     67          1           0        6.491458   -3.881658    0.173929
     68          1           0        6.752369   -0.936699   -0.500598
     69          1           0        4.946000    1.363105    0.323090
     70          1           0        6.257196    0.933880    1.120085
     71          1           0        4.946777    0.369021    1.745216
     72          1           0        3.777501    6.074986   -1.104923
     73          1           0        4.553830    4.448165   -0.737822
     74          1           0        0.441703    6.469944   -1.873302
     75          1           0        1.834005    6.913125   -0.951602
     76          1           0        0.255217    7.071418   -0.210106
     77          1           0        3.723653    6.450895    1.689255
     78          1           0        5.361778    5.995406    1.115613
     79          1           0        4.202948    4.709905    1.764551
     80          1           0       -3.564176   -4.291970   -1.601193
     81          1           0       -8.073840   -1.708407   -1.852631
 ---------------------------------------------------------------------

 SCF Done:  E(RB3LYP) =  -1949.02852394     A.U. after   16 cycles

 Excitation energies and oscillator strengths:

 Excited State   1:      Singlet-A      1.7184 eV  721.51 nm  f=0.2672  <S**2>=0.000
     156 ->157         0.70793
 This state for optimization and/or second-order correction.
 Total Energy, E(TD-HF/TD-DFT) =  -1948.96537403
 Copying the excited state density for this state as the 1-particle RhoCI density.

 The electronic state is 1-A.
 Alpha  occ. eigenvalues --  -19.20808 -19.17605 -19.15599 -19.13471 -19.11579
 Alpha  occ. eigenvalues --  -19.09933 -14.38414 -14.37473 -14.36386 -14.29485
 Alpha  occ. eigenvalues --  -10.34798 -10.32957 -10.29507 -10.26216 -10.24762
 Alpha  occ. eigenvalues --  -10.24280 -10.24106 -10.23803 -10.23791 -10.23531
 Alpha  occ. eigenvalues --  -10.23388 -10.22705 -10.22524 -10.21999 -10.21864
 Alpha  occ. eigenvalues --  -10.21224 -10.20892 -10.20448 -10.20416 -10.20230
 Alpha  occ. eigenvalues --  -10.20176 -10.19908 -10.19669 -10.19105 -10.18877
 Alpha  occ. eigenvalues --  -10.18811 -10.18765 -10.18759 -10.18744 -10.18741
 Alpha  occ. eigenvalues --  -10.18737 -10.18576 -10.15970  -1.13705  -1.08909
 Alpha  occ. eigenvalues --   -1.05533  -1.03230  -1.01846  -1.00613  -0.99287
 Alpha  occ. eigenvalues --   -0.98119  -0.95961  -0.92967  -0.82531  -0.82286
 Alpha  occ. eigenvalues --   -0.81478  -0.79956  -0.79104  -0.78174  -0.77161
 Alpha  occ. eigenvalues --   -0.76006  -0.75830  -0.74502  -0.73200  -0.71872
 Alpha  occ. eigenvalues --   -0.70593  -0.69353  -0.68735  -0.68459  -0.67520
 Alpha  occ. eigenvalues --   -0.67465  -0.65343  -0.65219  -0.62373  -0.61463
 Alpha  occ. eigenvalues --   -0.60262  -0.59407  -0.58674  -0.57932  -0.57248
 Alpha  occ. eigenvalues --   -0.55368  -0.54857  -0.54652  -0.54489  -0.53100
 Alpha  occ. eigenvalues --   -0.52392  -0.52174  -0.51206  -0.50337  -0.49935
 Alpha  occ. eigenvalues --   -0.49390  -0.49122  -0.48963  -0.48064  -0.47554
 Alpha  occ. eigenvalues --   -0.46701  -0.46175  -0.45988  -0.45455  -0.45049
 Alpha  occ. eigenvalues --   -0.44773  -0.44422  -0.44122  -0.43910  -0.43560
 Alpha  occ. eigenvalues --   -0.43415  -0.43278  -0.43109  -0.42469  -0.42382
 Alpha  occ. eigenvalues --   -0.41835  -0.41773  -0.41398  -0.41291  -0.40861
 Alpha  occ. eigenvalues --   -0.40441  -0.40405  -0.40193  -0.40083  -0.39513
 Alpha  occ. eigenvalues --   -0.39318  -0.39157  -0.38948  -0.38380  -0.38222
 Alpha  occ. eigenvalues --   -0.38010  -0.37694  -0.37455  -0.36897  -0.36293
 Alpha  occ. eigenvalues --   -0.35999  -0.35855  -0.35217  -0.34886  -0.34820
 Alpha  occ. eigenvalues --   -0.34569  -0.33936  -0.33581  -0.33034  -0.32612
 Alpha  occ. eigenvalues --   -0.32406  -0.32224  -0.31072  -0.30567  -0.29532
 Alpha  occ. eigenvalues --   -0.28763  -0.28349  -0.26802  -0.26636  -0.26186
 Alpha  occ. eigenvalues --   -0.25736  -0.24321  -0.23972  -0.22969  -0.21497
 Alpha  occ. eigenvalues --   -0.17251
 Alpha virt. eigenvalues --   -0.10037  -0.05703  -0.03999  -0.03694  -0.00630
 Alpha virt. eigenvalues --   -0.00405   0.01682   0.02032   0.03338   0.04236
 Alpha virt. eigenvalues --    0.04463   0.04706   0.05282   0.05692   0.06082

 Mulliken charges:
               1
     1  O   -0.168429
     2  O   -0.099614
     3  O   -0.222185
     4  O   -0.245036
     5  O   -0.207421
     6  O   -0.217343
     7  N   -0.102874
     8  N   -0.075123
     9  N   -0.116108
    10  N   -0.278626
    11  C   -0.090355
    12  C   -0.026772
    13  C   -0.160601
    14  C    0.032605
    15  C   -0.090960
    16  C    0.148267
    17  C   -0.078386
    18  C   -0.137030
    19  C    0.056207
    20  C   -0.135388
    21  C    0.039434
    22  C    0.018215
    23  C   -0.035414
    24  C    0.109734
    25  C   -0.064636
    26  C    0.108034
    27  C    0.149714
    28  C   -0.059678
    29  C   -0.233187
    30  C    0.047472
    31  C   -0.115325
    32  C    0.051880
    33  C    0.024051
    34  C    0.118083
    35  C   -0.119765
    36  C   -0.209746
    37  C    0.166232
    38  C    0.093272
    39  C    0.200396
    40  C    0.076593
    41  C    0.139006
    42  C    0.154831
    43  C   -0.022824
    44  H    0.194966
    45  H    0.059175
    46  H    0.047315
    47  H   -0.001507
    48  H    0.052204
    49  H    0.052442
    50  H    0.007845
    51  H    0.018193
    52  H    0.155654
    53  H    0.017952
    54  H    0.002441
    55  H   -0.026935
    56  H    0.177830
    57  H    0.081831
    58  H    0.060603
    59  H    0.111000
    60  H    0.086149
    61  H    0.030445
    62  H    0.049906
    63  H    0.049267
    64  H   -0.016886
    65  H    0.037160
    66  H    0.006681
    67  H    0.017359
    68  H   -0.108421
    69  H    0.061408
    70  H   -0.078097
    71  H    0.020618
    72  H    0.016243
    73  H    0.006798
    74  H    0.015009
    75  H   -0.041405
    76  H    0.022773
    77  H    0.022881
    78  H    0.010087
    79  H    0.037909
    80  H    0.135695
    81  H    0.186212
 Sum of Mulliken charges =  -0.00000

 Dipole moment (field-independent basis, Debye):
    X=             -2.4941    Y=             -0.1465    Z=             -0.9782  Tot=              2.6830
 Quadrupole moment (field-independent basis, Debye-Ang):
   XX=           -251.9057   YY=           -242.6593   ZZ=           -254.0763
   XY=             13.7093   XZ=             13.1628   YZ=            -16.5024

 Normal termination of Gaussian 16 at Wed Jul  3 17:41:07 2019.
