 Gaussian 16, Revision A.03,
 Gaussian 16:  ES64L-G16RevA.03 25-Dec-2016

 --------------------------
 # td=(NStates=1) B3LYP/SVP
 --------------------------

 --
 TD
 --
 Symbolic Z-matrix:
 Charge =  0 Multiplicity = 1

                         Standard orientation:
 ---------------------------------------------------------------------
 Center     Atomic      Atomic             Coordinates (Angstroms)
 Number     Number       Type             X           Y           Z
 ---------------------------------------------------------------------
      1          8           0        4.317910   -4.835842   -1.758592
      2          8           0       -2.839015   -4.917229   -0.944694
      3          8           0       -6.946984   -1.831864   -1.689674
      4          8           0       -3.772388   -3.162335    0.155595
      5          8           0       -7.637203   -0.423698    0.069452
      6          8           0        3.041976    2.493355    0.541324
      7          7           0        0.262159   -0.443043    0.480766
      8          7           0       -1.534712    1.788926    0.390782
      9          7           0        3.249871   -3.008667   -0.661620
     10          7           0        0.752836    2.850540    0.080253
     11          6           0       -0.603275   -2.346334    1.402844
     12          6           0       -0.957480   -1.010394    1.074714
     13          6           0        0.859983   -2.604404    1.189314
     14          6           0        1.366624   -1.310032    0.548453
     15          6           0       -3.866604    1.485818    0.224861
     16          6           0       -2.499435    0.843265    0.500641
     17          6           0       -2.223944   -0.480869    0.908030
     18          6           0       -3.544814    2.811175   -0.219241
     19          6           0       -1.583510   -3.234453    1.975557
     20          6           0        5.516717   -2.752258   -1.407716
     21          6           0        3.609372   -1.846810   -0.205472
     22          6           0       -2.114910    2.990774   -0.178519
     23          6           0        4.994510   -1.511981   -0.499867
     24          6           0       -5.137619    0.821819    0.220336
     25          6           0        2.625695   -0.973120    0.270522
     26          6           0        1.609976   -3.820362    1.579652
     27          6           0        4.362067   -3.676148   -1.327524
     28          6           0       -1.977975   -4.432734    1.209465
     29          6           0       -5.457925   -0.187887   -0.812417
     30          6           0       -4.463042    3.811348   -0.630981
     31          6           0       -1.221822    3.989142   -0.454575
     32          6           0        6.883255   -3.454351   -1.064297
     33          6           0        5.871051   -0.506432   -0.020954
     34          6           0        0.116016    4.028497   -0.293101
     35          6           0        1.022951    5.144947   -0.583338
     36          6           0        2.253536    4.700814   -0.193865
     37          6           0       -2.991424   -4.074198    0.092723
     38          6           0        5.367111    0.545162    0.844149
     39          6           0       -6.829162   -0.823200   -0.737862
     40          6           0        3.576693    5.340796   -0.147396
     41          6           0        2.093810    3.255995    0.175747
     42          6           0        0.556848    6.525057   -0.902791
     43          6           0        4.149810    5.560915    1.293202
     44          1           0        0.266774    0.504033    0.131340
     45          1           0       -3.035185   -1.224263    0.676775
     46          1           0       -2.380338   -2.706019    2.370357
     47          1           0       -1.154197   -3.816950    2.844719
     48          1           0        5.661119   -2.558571   -2.396181
     49          1           0       -5.337298    0.149791    1.181657
     50          1           0       -5.816774    1.620011    0.234922
     51          1           0        3.075915    0.158112    0.359661
     52          1           0       -0.608654    1.795409    0.563322
     53          1           0        1.469009   -4.703555    0.897416
     54          1           0        2.676655   -3.643076    1.640126
     55          1           0        1.027752   -4.196450    2.341868
     56          1           0        2.200677   -3.129094   -0.725161
     57          1           0       -0.962766   -5.188179    0.849418
     58          1           0       -2.476934   -5.242146    1.828565
     59          1           0       -4.818519   -1.017885   -0.595670
     60          1           0       -5.316232    0.055048   -1.818394
     61          1           0       -4.562360    4.699277   -0.074979
     62          1           0       -5.508148    3.476006   -0.810241
     63          1           0       -4.139887    4.076254   -1.635236
     64          1           0       -1.478008    4.809042   -0.880207
     65          1           0        7.786342   -2.845652   -1.516401
     66          1           0        6.785674   -4.419896   -1.642104
     67          1           0        7.044620   -3.564531   -0.048361
     68          1           0        6.863871   -0.399884   -0.592221
     69          1           0        4.380087    0.971529    0.461513
     70          1           0        6.114398    1.127009    1.209511
     71          1           0        4.908196    0.169328    1.822113
     72          1           0        3.576990    6.236463   -0.725243
     73          1           0        4.185611    4.686580   -0.730346
     74          1           0       -0.026813    6.536766   -1.853272
     75          1           0        1.482564    7.340052   -0.969704
     76          1           0       -0.219426    6.921979   -0.338653
     77          1           0        3.604300    6.107432    1.887551
     78          1           0        5.221109    5.784748    1.264560
     79          1           0        4.139247    4.651645    2.029425
     80          1           0       -3.457682   -4.771103   -1.656073
     81          1           0       -7.775615   -2.199990   -1.586693
 ---------------------------------------------------------------------

 SCF Done:  E(RB3LYP) =  -1949.07117151     A.U. after   20 cycles

 Excitation energies and oscillator strengths:

 Excited State   1:      Singlet-A      1.5312 eV  809.72 nm  f=0.3279  <S**2>=0.000
     156 ->157         0.71794
     156 <-157        -0.15699
 This state for optimization and/or second-order correction.
 Total Energy, E(TD-HF/TD-DFT) =  -1949.01490090
 Copying the excited state density for this state as the 1-particle RhoCI density.

 The electronic state is 1-A.
 Alpha  occ. eigenvalues --  -19.19730 -19.18604 -19.15023 -19.13507 -19.12506
 Alpha  occ. eigenvalues --  -19.08632 -14.37656 -14.36374 -14.34967 -14.27622
 Alpha  occ. eigenvalues --  -10.33967 -10.32484 -10.30718 -10.25085 -10.24260
 Alpha  occ. eigenvalues --  -10.24076 -10.23626 -10.23388 -10.23227 -10.22617
 Alpha  occ. eigenvalues --  -10.21586 -10.21111 -10.21081 -10.21048 -10.20986
 Alpha  occ. eigenvalues --  -10.20871 -10.20336 -10.20244 -10.20019 -10.19976
 Alpha  occ. eigenvalues --  -10.19909 -10.19621 -10.19496 -10.19328 -10.19312
 Alpha  occ. eigenvalues --  -10.19008 -10.18765 -10.18321 -10.18252 -10.17841
 Alpha  occ. eigenvalues --  -10.16956 -10.16681 -10.16365  -1.11412  -1.09471
 Alpha  occ. eigenvalues --   -1.03444  -1.03321  -1.02093  -0.97671  -0.97540
 Alpha  occ. eigenvalues --   -0.96632  -0.94011  -0.89740  -0.83067  -0.82903
 Alpha  occ. eigenvalues --   -0.81462  -0.81008  -0.79514  -0.79297  -0.77872
 Alpha  occ. eigenvalues --   -0.77382  -0.77113  -0.75358  -0.74424  -0.72819
 Alpha  occ. eigenvalues --   -0.72040  -0.70293  -0.69605  -0.68378  -0.68317
 Alpha  occ. eigenvalues --   -0.67846  -0.65934  -0.64088  -0.63139  -0.62135
 Alpha  occ. eigenvalues --   -0.61465  -0.60416  -0.59677  -0.58158  -0.56915
 Alpha  occ. eigenvalues --   -0.55920  -0.55355  -0.54157  -0.53692  -0.52973
 Alpha  occ. eigenvalues --   -0.52184  -0.51739  -0.51460  -0.50560  -0.50104
 Alpha  occ. eigenvalues --   -0.49871  -0.48958  -0.48928  -0.48685  -0.48328
 Alpha  occ. eigenvalues --   -0.47190  -0.47112  -0.46531  -0.46129  -0.45796
 Alpha  occ. eigenvalues --   -0.45088  -0.44489  -0.44227  -0.43927  -0.43733
 Alpha  occ. eigenvalues --   -0.43602  -0.43320  -0.43197  -0.42436  -0.42220
 Alpha  occ. eigenvalues --   -0.42015  -0.41679  -0.41276  -0.41088  -0.40914
 Alpha  occ. eigenvalues --   -0.40867  -0.40548  -0.40085  -0.39819  -0.39497
 Alpha  occ. eigenvalues --   -0.38987  -0.38968  -0.38581  -0.38269  -0.37741
 Alpha  occ. eigenvalues --   -0.37572  -0.37156  -0.37059  -0.36729  -0.36460
 Alpha  occ. eigenvalues --   -0.36441  -0.35922  -0.35588  -0.34846  -0.34650
 Alpha  occ. eigenvalues --   -0.34488  -0.34338  -0.34128  -0.33761  -0.33484
 Alpha  occ. eigenvalues --   -0.33157  -0.32399  -0.31586  -0.30232  -0.28946
 Alpha  occ. eigenvalues --   -0.28274  -0.27333  -0.27198  -0.25987  -0.24916
 Alpha  occ. eigenvalues --   -0.24394  -0.23490  -0.22896  -0.22390  -0.20780
 Alpha  occ. eigenvalues --   -0.16515
 Alpha virt. eigenvalues --   -0.10544  -0.05958  -0.04382  -0.02321  -0.01533
 Alpha virt. eigenvalues --    0.00302   0.01467   0.01853   0.03736   0.04040
 Alpha virt. eigenvalues --    0.04335   0.05155   0.05590   0.05699   0.06464

 Mulliken charges:
               1
     1  O   -0.214311
     2  O   -0.162414
     3  O   -0.177564
     4  O   -0.205807
     5  O   -0.211084
     6  O   -0.279462
     7  N   -0.146119
     8  N   -0.061843
     9  N   -0.103154
    10  N   -0.336554
    11  C   -0.085296
    12  C    0.110483
    13  C   -0.211076
    14  C    0.122067
    15  C   -0.052332
    16  C    0.041138
    17  C   -0.081148
    18  C   -0.092889
    19  C    0.138842
    20  C   -0.014583
    21  C    0.017882
    22  C    0.171752
    23  C   -0.067411
    24  C    0.096746
    25  C   -0.177030
    26  C    0.177211
    27  C    0.150473
    28  C   -0.093431
    29  C    0.051757
    30  C    0.111469
    31  C   -0.036587
    32  C    0.023036
    33  C   -0.098961
    34  C    0.046694
    35  C   -0.054240
    36  C   -0.189342
    37  C    0.153144
    38  C    0.064119
    39  C    0.131804
    40  C    0.163317
    41  C    0.173740
    42  C    0.083485
    43  C    0.035473
    44  H    0.115613
    45  H    0.047231
    46  H   -0.007994
    47  H    0.003903
    48  H    0.014476
    49  H    0.027786
    50  H   -0.013230
    51  H    0.059932
    52  H    0.071614
    53  H    0.016039
    54  H    0.034386
    55  H   -0.027398
    56  H    0.166770
    57  H    0.056879
    58  H    0.048519
    59  H    0.020734
    60  H    0.004149
    61  H    0.017107
    62  H    0.003582
    63  H    0.010612
    64  H   -0.151621
    65  H    0.027060
    66  H    0.049695
    67  H    0.007468
    68  H    0.024262
    69  H    0.118189
    70  H   -0.019079
    71  H    0.022377
    72  H   -0.030797
    73  H   -0.002416
    74  H    0.007125
    75  H    0.044066
    76  H    0.000783
    77  H   -0.031431
    78  H    0.010396
    79  H    0.017754
    80  H    0.176228
    81  H    0.147236
 Sum of Mulliken charges =  -0.00000

 Dipole moment (field-independent basis, Debye):
    X=             -2.0035    Y=             -1.1564    Z=             -2.0183  Tot=              3.0700
 Quadrupole moment (field-independent basis, Debye-Ang):
   XX=           -241.4515   YY=           -236.2469   ZZ=           -252.1736
   XY=             15.7801   XZ=             13.0371   YZ=            -11.0072

 Normal termination of Gaussian 16 at Thu Jun 27 00:16:02 2019.
