 Gaussian 16, Revision A.03,
 Gaussian 16:  ES64L-G16RevA.03 25-Dec-2016

 --------------------------
 # td=(NStates=1) B3LYP/SVP
 --------------------------

 --
 TD
 --
 Symbolic Z-matrix:
 Charge =  0 Multiplicity = 1

                         Standard orientation:
 ---------------------------------------------------------------------
 Center     Atomic      Atomic             Coordinates (Angstroms)
 Number     Number       Type             X           Y           Z
 ---------------------------------------------------------------------
      1          8           0        4.367277   -4.748900   -1.812315
      2          8           0       -2.620722   -5.016549   -1.000783
      3          8           0       -6.963434   -1.552615   -2.073465
      4          8           0       -3.773039   -3.434956    0.070588
      5          8           0       -7.575179   -0.939619    0.088362
      6          8           0        2.961989    2.541375    0.265721
      7          7           0        0.343512   -0.437237    0.596543
      8          7           0       -1.597458    1.829164    0.292070
      9          7           0        3.411012   -3.077488   -0.552337
     10          7           0        0.697764    3.034165    0.131955
     11          6           0       -0.613662   -2.319903    1.433550
     12          6           0       -0.870101   -1.063514    0.954127
     13          6           0        0.742685   -2.560148    1.284570
     14          6           0        1.405011   -1.394566    0.744019
     15          6           0       -3.819807    1.380567    0.334539
     16          6           0       -2.565518    0.884883    0.539116
     17          6           0       -2.237422   -0.387615    0.927883
     18          6           0       -3.588376    2.698399   -0.126652
     19          6           0       -1.572406   -3.357871    2.057524
     20          6           0        5.593220   -2.740495   -1.323223
     21          6           0        3.682244   -1.860685   -0.220340
     22          6           0       -2.253390    2.983109   -0.060796
     23          6           0        5.048679   -1.572403   -0.514585
     24          6           0       -5.116157    0.614673    0.362530
     25          6           0        2.698412   -1.052408    0.406316
     26          6           0        1.677447   -3.708435    1.709997
     27          6           0        4.450822   -3.687951   -1.278958
     28          6           0       -1.838220   -4.539180    1.172022
     29          6           0       -5.365029   -0.356813   -0.885101
     30          6           0       -4.735305    3.740487   -0.433235
     31          6           0       -1.467730    4.110288   -0.353316
     32          6           0        7.004793   -3.250042   -0.917519
     33          6           0        5.800640   -0.463377   -0.223919
     34          6           0       -0.011060    4.132165   -0.248295
     35          6           0        0.837447    5.234874   -0.418381
     36          6           0        2.156650    4.818052   -0.358965
     37          6           0       -2.826041   -4.184419   -0.030830
     38          6           0        5.567540    0.806939    0.659098
     39          6           0       -6.784407   -0.982325   -0.828479
     40          6           0        3.519327    5.340568   -0.320973
     41          6           0        1.994966    3.340456    0.020945
     42          6           0        0.379252    6.635737   -0.757403
     43          6           0        3.915782    5.626846    1.166111
     44          1           0        0.582575    0.492338    0.150375
     45          1           0       -2.983297   -1.047242    1.165780
     46          1           0       -2.463326   -2.634969    2.204081
     47          1           0       -0.993710   -3.816243    2.887921
     48          1           0        5.562292   -2.463573   -2.455947
     49          1           0       -5.102417   -0.147491    1.245886
     50          1           0       -5.823229    1.340830    0.433007
     51          1           0        2.852166    0.020225    0.585034
     52          1           0       -0.463302    1.892052    0.430033
     53          1           0        1.612088   -4.450150    0.965693
     54          1           0        2.562986   -3.534399    1.896341
     55          1           0        0.847380   -4.039830    2.511005
     56          1           0        2.507743   -3.503353   -0.396619
     57          1           0       -0.967307   -4.916671    0.469351
     58          1           0       -2.456651   -5.354538    1.788875
     59          1           0       -4.482067   -1.153785   -0.696671
     60          1           0       -5.316439    0.061721   -1.848644
     61          1           0       -4.649718    4.571336    0.176052
     62          1           0       -5.731542    3.112228   -0.284061
     63          1           0       -4.580015    4.220864   -1.528056
     64          1           0       -2.074504    5.025273   -0.472605
     65          1           0        7.946437   -2.488746   -1.076046
     66          1           0        7.217854   -4.188518   -1.268436
     67          1           0        6.796092   -3.491488    0.249228
     68          1           0        6.855573   -0.254953   -0.770566
     69          1           0        5.123293    1.730880   -0.005618
     70          1           0        6.460005    1.099324    1.033164
     71          1           0        4.875662    0.574610    1.456363
     72          1           0        3.476400    6.218707   -0.841405
     73          1           0        4.356682    4.617845   -0.747771
     74          1           0       -0.293844    6.516635   -1.644595
     75          1           0        1.411300    7.261477   -1.026074
     76          1           0       -0.184826    7.066804    0.140428
     77          1           0        3.551363    6.521466    1.709909
     78          1           0        4.987747    5.816883    1.204960
     79          1           0        3.912543    4.581158    1.846056
     80          1           0       -3.084194   -4.829887   -1.868982
     81          1           0       -7.868455   -1.852304   -2.028189
 ---------------------------------------------------------------------

 SCF Done:  E(RB3LYP) =  -1949.06817585     A.U. after   20 cycles

 Excitation energies and oscillator strengths:

 Excited State   1:      Singlet-A      1.6892 eV  734.00 nm  f=0.3389  <S**2>=0.000
     156 ->157         0.71185
     156 <-157        -0.12669
 This state for optimization and/or second-order correction.
 Total Energy, E(TD-HF/TD-DFT) =  -1949.00610067
 Copying the excited state density for this state as the 1-particle RhoCI density.

 The electronic state is 1-A.
 Alpha  occ. eigenvalues --  -19.20668 -19.18509 -19.13825 -19.13600 -19.12218
 Alpha  occ. eigenvalues --  -19.08864 -14.37808 -14.37088 -14.34057 -14.28539
 Alpha  occ. eigenvalues --  -10.33208 -10.32556 -10.30088 -10.25058 -10.24701
 Alpha  occ. eigenvalues --  -10.23829 -10.23132 -10.22810 -10.22591 -10.22341
 Alpha  occ. eigenvalues --  -10.21974 -10.21926 -10.21889 -10.21866 -10.21419
 Alpha  occ. eigenvalues --  -10.21309 -10.20909 -10.20893 -10.20610 -10.20589
 Alpha  occ. eigenvalues --  -10.20378 -10.19748 -10.19709 -10.19472 -10.19437
 Alpha  occ. eigenvalues --  -10.19417 -10.19131 -10.19068 -10.18968 -10.18687
 Alpha  occ. eigenvalues --  -10.18532 -10.18187 -10.18043  -1.12290  -1.09348
 Alpha  occ. eigenvalues --   -1.06228  -1.02085  -1.01502  -0.99262  -0.98255
 Alpha  occ. eigenvalues --   -0.97394  -0.95633  -0.91436  -0.82580  -0.82401
 Alpha  occ. eigenvalues --   -0.81586  -0.80328  -0.79310  -0.78680  -0.77492
 Alpha  occ. eigenvalues --   -0.76080  -0.75950  -0.75085  -0.73621  -0.72775
 Alpha  occ. eigenvalues --   -0.70658  -0.70371  -0.69178  -0.68368  -0.67958
 Alpha  occ. eigenvalues --   -0.67086  -0.65718  -0.64954  -0.63365  -0.62099
 Alpha  occ. eigenvalues --   -0.61410  -0.59561  -0.58798  -0.58642  -0.56746
 Alpha  occ. eigenvalues --   -0.56062  -0.54851  -0.54458  -0.53631  -0.52411
 Alpha  occ. eigenvalues --   -0.51805  -0.51213  -0.50602  -0.49776  -0.49465
 Alpha  occ. eigenvalues --   -0.49341  -0.49173  -0.49134  -0.48459  -0.48151
 Alpha  occ. eigenvalues --   -0.47485  -0.47085  -0.46092  -0.45815  -0.45575
 Alpha  occ. eigenvalues --   -0.44842  -0.44372  -0.44190  -0.43763  -0.43579
 Alpha  occ. eigenvalues --   -0.43162  -0.43039  -0.42718  -0.42626  -0.42381
 Alpha  occ. eigenvalues --   -0.42006  -0.41643  -0.41410  -0.41095  -0.40583
 Alpha  occ. eigenvalues --   -0.40348  -0.40064  -0.39633  -0.39623  -0.39306
 Alpha  occ. eigenvalues --   -0.39237  -0.38893  -0.38664  -0.38098  -0.37834
 Alpha  occ. eigenvalues --   -0.37561  -0.37428  -0.37017  -0.37001  -0.36713
 Alpha  occ. eigenvalues --   -0.36478  -0.36170  -0.35739  -0.35589  -0.34804
 Alpha  occ. eigenvalues --   -0.34424  -0.33916  -0.33652  -0.33324  -0.33166
 Alpha  occ. eigenvalues --   -0.33016  -0.32744  -0.31633  -0.29310  -0.28752
 Alpha  occ. eigenvalues --   -0.28512  -0.27464  -0.27181  -0.26553  -0.25696
 Alpha  occ. eigenvalues --   -0.25009  -0.24342  -0.23172  -0.22361  -0.20881
 Alpha  occ. eigenvalues --   -0.17360
 Alpha virt. eigenvalues --   -0.10647  -0.06183  -0.04625  -0.01398  -0.01218
 Alpha virt. eigenvalues --   -0.00237   0.02248   0.03015   0.03448   0.04173
 Alpha virt. eigenvalues --    0.04728   0.04958   0.05470   0.05629   0.05784

 Mulliken charges:
               1
     1  O   -0.167434
     2  O   -0.152133
     3  O   -0.188517
     4  O   -0.228152
     5  O   -0.213413
     6  O   -0.288982
     7  N   -0.168190
     8  N   -0.166027
     9  N   -0.039003
    10  N   -0.274766
    11  C   -0.140898
    12  C    0.057868
    13  C   -0.225407
    14  C    0.094012
    15  C   -0.080084
    16  C    0.140823
    17  C   -0.043132
    18  C   -0.150360
    19  C    0.139114
    20  C   -0.040364
    21  C    0.057954
    22  C    0.097308
    23  C   -0.000896
    24  C    0.124693
    25  C   -0.147856
    26  C    0.225927
    27  C    0.077377
    28  C   -0.073573
    29  C   -0.050691
    30  C    0.057953
    31  C   -0.127839
    32  C    0.033276
    33  C   -0.215843
    34  C    0.127309
    35  C   -0.139445
    36  C   -0.160578
    37  C    0.102596
    38  C    0.075397
    39  C    0.168986
    40  C    0.133126
    41  C    0.136551
    42  C    0.048484
    43  C   -0.055391
    44  H    0.162243
    45  H   -0.062756
    46  H    0.046719
    47  H    0.022555
    48  H    0.062822
    49  H    0.039794
    50  H   -0.025318
    51  H    0.020537
    52  H    0.198234
    53  H   -0.000492
    54  H   -0.044624
    55  H    0.018895
    56  H    0.124077
    57  H    0.061476
    58  H    0.073554
    59  H    0.089633
    60  H    0.019666
    61  H    0.014365
    62  H    0.040675
    63  H    0.032932
    64  H   -0.029659
    65  H    0.060906
    66  H    0.012231
    67  H    0.024122
    68  H    0.025949
    69  H    0.092265
    70  H   -0.015847
    71  H    0.024521
    72  H   -0.038935
    73  H    0.038651
    74  H    0.037882
    75  H    0.039180
    76  H    0.038989
    77  H    0.020663
    78  H   -0.006806
    79  H    0.050879
    80  H    0.209652
    81  H    0.160591
 Sum of Mulliken charges =  -0.00000

 Dipole moment (field-independent basis, Debye):
    X=             -0.6183    Y=             -1.0730    Z=             -1.7414  Tot=              2.1369
 Quadrupole moment (field-independent basis, Debye-Ang):
   XX=           -244.8478   YY=           -240.3155   ZZ=           -254.0693
   XY=              9.0390   XZ=             14.5989   YZ=             -5.2441

 Normal termination of Gaussian 16 at Fri Jun 28 05:46:17 2019.
