 Gaussian 16, Revision A.03,
 Gaussian 16:  ES64L-G16RevA.03 25-Dec-2016

 --------------------------
 # td=(NStates=1) B3LYP/SVP
 --------------------------

 --
 TD
 --
 Symbolic Z-matrix:
 Charge =  0 Multiplicity = 1

                         Standard orientation:
 ---------------------------------------------------------------------
 Center     Atomic      Atomic             Coordinates (Angstroms)
 Number     Number       Type             X           Y           Z
 ---------------------------------------------------------------------
      1          8           0       -3.706577   -4.831820    2.118183
      2          8           0        3.366753   -4.609815    1.034851
      3          8           0        6.917289   -1.152797    2.017996
      4          8           0        4.094797   -2.982049   -0.310006
      5          8           0        7.611936   -0.049285    0.162947
      6          8           0       -3.265050    2.205374   -0.162096
      7          7           0       -0.196277   -0.531454   -0.606979
      8          7           0        1.392955    1.941466   -0.491448
      9          7           0       -3.026327   -3.214826    0.688542
     10          7           0       -0.947166    2.758794   -0.158672
     11          6           0        0.731214   -2.409313   -1.442785
     12          6           0        1.048334   -1.033600   -1.093733
     13          6           0       -0.600775   -2.656558   -1.358337
     14          6           0       -1.177951   -1.448417   -0.823849
     15          6           0        3.646553    1.731512   -0.411815
     16          6           0        2.426752    0.986352   -0.629503
     17          6           0        2.271418   -0.310724   -1.047127
     18          6           0        3.413712    3.029059    0.033330
     19          6           0        1.757420   -3.246405   -2.057266
     20          6           0       -5.207845   -3.013864    1.364530
     21          6           0       -3.432274   -1.914391    0.223513
     22          6           0        1.796152    3.157991    0.022746
     23          6           0       -4.839218   -1.849070    0.497970
     24          6           0        4.979623    1.068798   -0.257457
     25          6           0       -2.543368   -1.077853   -0.353036
     26          6           0       -1.197586   -3.904882   -1.751137
     27          6           0       -3.877465   -3.825115    1.522612
     28          6           0        2.243692   -4.384961   -1.132346
     29          6           0        5.242040    0.068975    0.899703
     30          6           0        4.307063    4.159877    0.424329
     31          6           0        0.959646    4.214234    0.410691
     32          6           0       -6.497559   -3.832916    1.133217
     33          6           0       -5.773896   -0.973807    0.027655
     34          6           0       -0.463225    3.981635    0.226777
     35          6           0       -1.454202    5.036226    0.489801
     36          6           0       -2.688904    4.469264    0.252753
     37          6           0        3.300220   -3.887374   -0.184966
     38          6           0       -5.582526    0.194560   -0.968816
     39          6           0        6.728331   -0.363660    0.889722
     40          6           0       -4.015453    5.007134    0.303163
     41          6           0       -2.282763    3.006190   -0.048424
     42          6           0       -1.107832    6.451844    0.807075
     43          6           0       -4.728872    5.170935   -1.085412
     44          1           0       -0.333595    0.147606    0.286504
     45          1           0        3.159436   -1.045993   -0.978672
     46          1           0        2.666067   -2.783684   -2.468492
     47          1           0        1.245015   -3.641683   -2.885946
     48          1           0       -5.178100   -2.611926    2.370755
     49          1           0        5.130890    0.545216   -1.210456
     50          1           0        5.947148    1.830547   -0.340609
     51          1           0       -2.783233   -0.040603   -0.263275
     52          1           0        0.297902    1.746019   -0.642036
     53          1           0       -0.938601   -4.828235   -0.983426
     54          1           0       -2.346169   -3.992655   -1.851097
     55          1           0       -0.809597   -4.166994   -2.900744
     56          1           0       -1.840249   -3.456510    0.717471
     57          1           0        1.420321   -4.588813   -0.437814
     58          1           0        2.511314   -5.335099   -1.615128
     59          1           0        4.817029   -0.966648    0.748482
     60          1           0        5.041860    0.403510    1.980223
     61          1           0        4.223719    5.126410   -0.176921
     62          1           0        5.332000    3.707632    0.394035
     63          1           0        4.400964    4.333596    1.648152
     64          1           0        1.294846    5.028178    0.989033
     65          1           0       -7.264389   -3.069688    1.229431
     66          1           0       -6.644670   -4.562136    1.919333
     67          1           0       -6.366661   -4.292303    0.079201
     68          1           0       -6.727891   -0.859560    0.415863
     69          1           0       -5.116093    1.044102   -0.402996
     70          1           0       -6.677994    0.493465   -1.521236
     71          1           0       -5.054584   -0.170406   -1.851553
     72          1           0       -4.015457    6.084847    0.679103
     73          1           0       -4.685211    4.291811    0.784047
     74          1           0       -0.725975    6.577359    1.845203
     75          1           0       -1.988871    7.252460    0.438545
     76          1           0       -0.056944    6.755297    0.268541
     77          1           0       -4.300771    6.003515   -1.702251
     78          1           0       -5.658035    5.515577   -1.021712
     79          1           0       -4.811900    4.397515   -1.526496
     80          1           0        4.039323   -4.189946    1.606378
     81          1           0        7.798943   -1.606561    2.164018
 ---------------------------------------------------------------------

 SCF Done:  E(RB3LYP) =  -1949.07643809     A.U. after   16 cycles

 Excitation energies and oscillator strengths:

 Excited State   1:      Singlet-A      1.8497 eV  670.29 nm  f=0.3187  <S**2>=0.000
     156 ->157         0.70544
     156 <-157        -0.10348
 This state for optimization and/or second-order correction.
 Total Energy, E(TD-HF/TD-DFT) =  -1949.00846225
 Copying the excited state density for this state as the 1-particle RhoCI density.

 The electronic state is 1-A.
 Alpha  occ. eigenvalues --  -19.18230 -19.17023 -19.15412 -19.13144 -19.10113
 Alpha  occ. eigenvalues --  -19.10025 -14.38400 -14.36999 -14.36140 -14.30710
 Alpha  occ. eigenvalues --  -10.34357 -10.32085 -10.27737 -10.27128 -10.25253
 Alpha  occ. eigenvalues --  -10.24250 -10.24156 -10.23936 -10.23470 -10.23274
 Alpha  occ. eigenvalues --  -10.22669 -10.22577 -10.21947 -10.21615 -10.21560
 Alpha  occ. eigenvalues --  -10.21522 -10.21424 -10.20961 -10.20600 -10.20411
 Alpha  occ. eigenvalues --  -10.20068 -10.19983 -10.19980 -10.19869 -10.19482
 Alpha  occ. eigenvalues --  -10.19447 -10.19394 -10.19378 -10.19257 -10.19147
 Alpha  occ. eigenvalues --  -10.18732 -10.18464 -10.15284  -1.09846  -1.08243
 Alpha  occ. eigenvalues --   -1.04191  -1.00874  -1.00254  -0.99551  -0.97660
 Alpha  occ. eigenvalues --   -0.95662  -0.94484  -0.92271  -0.84146  -0.81669
 Alpha  occ. eigenvalues --   -0.80849  -0.80702  -0.80477  -0.78962  -0.78101
 Alpha  occ. eigenvalues --   -0.76710  -0.76345  -0.75504  -0.73799  -0.72569
 Alpha  occ. eigenvalues --   -0.71015  -0.69441  -0.69154  -0.68514  -0.67204
 Alpha  occ. eigenvalues --   -0.66352  -0.65110  -0.63804  -0.62828  -0.61209
 Alpha  occ. eigenvalues --   -0.60189  -0.59125  -0.58549  -0.57343  -0.56601
 Alpha  occ. eigenvalues --   -0.55672  -0.54789  -0.54063  -0.53009  -0.52336
 Alpha  occ. eigenvalues --   -0.52170  -0.51926  -0.51051  -0.49954  -0.49582
 Alpha  occ. eigenvalues --   -0.48818  -0.48494  -0.48118  -0.47643  -0.47156
 Alpha  occ. eigenvalues --   -0.46813  -0.46759  -0.46431  -0.46169  -0.45496
 Alpha  occ. eigenvalues --   -0.44631  -0.44335  -0.44078  -0.43890  -0.43476
 Alpha  occ. eigenvalues --   -0.43114  -0.42988  -0.42673  -0.42200  -0.41929
 Alpha  occ. eigenvalues --   -0.41689  -0.41517  -0.41338  -0.41233  -0.40943
 Alpha  occ. eigenvalues --   -0.40624  -0.40190  -0.39911  -0.39846  -0.39531
 Alpha  occ. eigenvalues --   -0.39264  -0.39113  -0.38889  -0.38797  -0.38348
 Alpha  occ. eigenvalues --   -0.38064  -0.37492  -0.37177  -0.36687  -0.36235
 Alpha  occ. eigenvalues --   -0.35786  -0.35648  -0.35454  -0.35256  -0.34382
 Alpha  occ. eigenvalues --   -0.34287  -0.34128  -0.33727  -0.33309  -0.33203
 Alpha  occ. eigenvalues --   -0.32621  -0.32409  -0.32126  -0.30227  -0.29637
 Alpha  occ. eigenvalues --   -0.29107  -0.28219  -0.26371  -0.25957  -0.25637
 Alpha  occ. eigenvalues --   -0.24872  -0.24250  -0.24030  -0.23535  -0.21916
 Alpha  occ. eigenvalues --   -0.17860
 Alpha virt. eigenvalues --   -0.10364  -0.06583  -0.04350  -0.02830   0.00355
 Alpha virt. eigenvalues --    0.00961   0.01170   0.02178   0.02507   0.03462
 Alpha virt. eigenvalues --    0.03672   0.03988   0.04677   0.04827   0.05369

 Mulliken charges:
               1
     1  O   -0.180070
     2  O   -0.239798
     3  O   -0.268558
     4  O   -0.214676
     5  O   -0.181914
     6  O   -0.276408
     7  N   -0.159807
     8  N   -0.181443
     9  N   -0.206905
    10  N   -0.273548
    11  C   -0.100064
    12  C    0.029471
    13  C   -0.095458
    14  C    0.054668
    15  C   -0.032875
    16  C    0.099220
    17  C   -0.075924
    18  C   -0.110861
    19  C    0.143013
    20  C   -0.073101
    21  C    0.121107
    22  C    0.115689
    23  C    0.050891
    24  C    0.013389
    25  C   -0.104322
    26  C   -0.072220
    27  C    0.067831
    28  C    0.026507
    29  C   -0.023165
    30  C    0.035045
    31  C   -0.111277
    32  C    0.094654
    33  C   -0.162661
    34  C    0.089259
    35  C   -0.087888
    36  C   -0.111371
    37  C    0.145095
    38  C   -0.017650
    39  C    0.136237
    40  C    0.050200
    41  C    0.167417
    42  C    0.008574
    43  C    0.148301
    44  H    0.204735
    45  H    0.055453
    46  H    0.023044
    47  H   -0.025636
    48  H    0.016640
    49  H    0.011867
    50  H    0.046011
    51  H   -0.006099
    52  H    0.198886
    53  H    0.053790
    54  H    0.051331
    55  H    0.045501
    56  H    0.187810
    57  H    0.034755
    58  H    0.060366
    59  H    0.056401
    60  H    0.053984
    61  H    0.062402
    62  H    0.003323
    63  H    0.036036
    64  H   -0.028084
    65  H    0.014444
    66  H    0.026396
    67  H    0.036694
    68  H   -0.014367
    69  H    0.098812
    70  H    0.009959
    71  H    0.028849
    72  H    0.007939
    73  H    0.015465
    74  H    0.028352
    75  H    0.060910
    76  H    0.030960
    77  H   -0.003659
    78  H   -0.038922
    79  H   -0.066131
    80  H    0.190275
    81  H    0.196903
 Sum of Mulliken charges =  -0.00000

 Dipole moment (field-independent basis, Debye):
    X=              1.9657    Y=              0.9656    Z=              0.7913  Tot=              2.3286
 Quadrupole moment (field-independent basis, Debye-Ang):
   XX=           -253.6280   YY=           -241.5921   ZZ=           -254.6275
   XY=            -19.7661   XZ=             15.7267   YZ=             17.4675

 Normal termination of Gaussian 16 at Sat Jun 29 14:06:13 2019.
