 Gaussian 16, Revision A.03,
 Gaussian 16:  ES64L-G16RevA.03 25-Dec-2016

 --------------------------
 # td=(NStates=1) B3LYP/SVP
 --------------------------

 --
 TD
 --
 Symbolic Z-matrix:
 Charge =  0 Multiplicity = 1

                         Standard orientation:
 ---------------------------------------------------------------------
 Center     Atomic      Atomic             Coordinates (Angstroms)
 Number     Number       Type             X           Y           Z
 ---------------------------------------------------------------------
      1          8           0        4.288752   -4.946305   -1.693952
      2          8           0       -2.960874   -4.854323   -1.090186
      3          8           0       -6.882273   -1.574398   -1.991576
      4          8           0       -3.786661   -3.090821    0.029677
      5          8           0       -7.566946   -0.612838    0.040836
      6          8           0        2.995567    2.354180    0.322974
      7          7           0        0.211015   -0.520111    0.644376
      8          7           0       -1.550161    1.939295    0.483669
      9          7           0        3.286104   -3.186341   -0.779368
     10          7           0        0.739432    2.882646    0.005476
     11          6           0       -0.647250   -2.349897    1.410728
     12          6           0       -0.903645   -1.056919    0.929770
     13          6           0        0.683054   -2.614760    1.281960
     14          6           0        1.266816   -1.397762    0.695839
     15          6           0       -3.826718    1.639396    0.325627
     16          6           0       -2.543433    0.940975    0.597706
     17          6           0       -2.227755   -0.377193    0.822807
     18          6           0       -3.551383    2.935377    0.018257
     19          6           0       -1.706175   -3.247293    2.042955
     20          6           0        5.426681   -2.746531   -1.376367
     21          6           0        3.556719   -1.887433   -0.244354
     22          6           0       -2.071989    3.096786    0.074204
     23          6           0        5.005568   -1.657145   -0.590574
     24          6           0       -5.070231    0.758786    0.344641
     25          6           0        2.602270   -0.975182    0.244043
     26          6           0        1.401599   -3.763428    1.783903
     27          6           0        4.374413   -3.798716   -1.326790
     28          6           0       -2.152529   -4.481733    1.166595
     29          6           0       -5.306432   -0.141937   -0.899676
     30          6           0       -4.511368    3.855298   -0.567211
     31          6           0       -1.254954    4.185923   -0.250593
     32          6           0        6.703145   -3.518920   -0.894398
     33          6           0        5.866295   -0.730257    0.041138
     34          6           0        0.106365    4.071601   -0.250079
     35          6           0        1.094608    5.106284   -0.509115
     36          6           0        2.413557    4.601953   -0.286550
     37          6           0       -3.065143   -4.110284   -0.007074
     38          6           0        5.436832    0.439629    0.840918
     39          6           0       -6.732340   -0.710706   -0.824753
     40          6           0        3.741607    5.341789   -0.306282
     41          6           0        2.113632    3.164283    0.038456
     42          6           0        0.748603    6.565358   -0.733623
     43          6           0        4.462203    5.521316    1.034462
     44          1           0        0.461041    0.461898    0.245808
     45          1           0       -3.138976   -0.943862    1.125749
     46          1           0       -2.635435   -2.519163    2.221283
     47          1           0       -1.239215   -3.539102    2.973459
     48          1           0        5.543229   -2.401555   -2.479494
     49          1           0       -4.937886   -0.020302    1.008276
     50          1           0       -6.000927    1.429130    0.604542
     51          1           0        2.820578    0.232874    0.381352
     52          1           0       -0.578291    1.664757    0.878069
     53          1           0        1.490262   -4.742905    1.158021
     54          1           0        2.487505   -3.728014    1.906809
     55          1           0        1.042774   -4.153415    2.715768
     56          1           0        2.222413   -3.560085   -0.772534
     57          1           0       -1.385528   -5.024589    0.834325
     58          1           0       -2.718799   -5.081492    1.871882
     59          1           0       -4.628539   -0.926056   -0.813045
     60          1           0       -5.526224    0.155126   -1.753255
     61          1           0       -4.161474    4.888541   -0.370737
     62          1           0       -5.570141    3.746261   -0.155491
     63          1           0       -4.405617    3.820356   -1.750007
     64          1           0       -1.620410    5.149383   -0.878210
     65          1           0        7.634728   -2.892165   -1.084555
     66          1           0        6.873446   -4.312006   -1.526910
     67          1           0        6.688963   -3.633779    0.081328
     68          1           0        6.823702   -0.835619   -0.447166
     69          1           0        5.256920    1.214765    0.033583
     70          1           0        6.174277    0.939671    1.414752
     71          1           0        4.405369    0.293957    1.570897
     72          1           0        3.570378    6.344408   -0.703123
     73          1           0        4.398094    4.500609   -1.037653
     74          1           0        0.360990    6.586569   -1.815822
     75          1           0        1.612037    7.257193   -0.504538
     76          1           0       -0.153508    6.909405   -0.126401
     77          1           0        3.994784    6.174294    1.726197
     78          1           0        5.475198    5.948482    0.703626
     79          1           0        4.609221    4.437873    1.398796
     80          1           0       -3.495493   -4.234311   -1.784373
     81          1           0       -7.850441   -1.571473   -2.031876
 ---------------------------------------------------------------------

 SCF Done:  E(RB3LYP) =  -1949.07292778     A.U. after   17 cycles

 Excitation energies and oscillator strengths:

 Excited State   1:      Singlet-A      1.6633 eV  745.40 nm  f=0.2634  <S**2>=0.000
     156 ->157         0.70784
     156 <-157        -0.10329
 This state for optimization and/or second-order correction.
 Total Energy, E(TD-HF/TD-DFT) =  -1949.01180203
 Copying the excited state density for this state as the 1-particle RhoCI density.

 The electronic state is 1-A.
 Alpha  occ. eigenvalues --  -19.21168 -19.17299 -19.14885 -19.13665 -19.10168
 Alpha  occ. eigenvalues --  -19.10164 -14.38313 -14.37163 -14.36734 -14.28189
 Alpha  occ. eigenvalues --  -10.33673 -10.32820 -10.28277 -10.26125 -10.25344
 Alpha  occ. eigenvalues --  -10.24185 -10.23327 -10.23250 -10.22926 -10.22262
 Alpha  occ. eigenvalues --  -10.21944 -10.21553 -10.21127 -10.21108 -10.21074
 Alpha  occ. eigenvalues --  -10.21034 -10.20977 -10.20756 -10.20412 -10.20399
 Alpha  occ. eigenvalues --  -10.20101 -10.19983 -10.19937 -10.19571 -10.19529
 Alpha  occ. eigenvalues --  -10.19395 -10.19338 -10.19233 -10.19172 -10.18949
 Alpha  occ. eigenvalues --  -10.18782 -10.18623 -10.17446  -1.11284  -1.08081
 Alpha  occ. eigenvalues --   -1.03526  -1.01066  -1.00693  -1.00593  -1.00182
 Alpha  occ. eigenvalues --   -0.98288  -0.93900  -0.90643  -0.82887  -0.82297
 Alpha  occ. eigenvalues --   -0.81843  -0.81166  -0.79404  -0.78796  -0.78137
 Alpha  occ. eigenvalues --   -0.77506  -0.76196  -0.75040  -0.73842  -0.72496
 Alpha  occ. eigenvalues --   -0.71916  -0.69807  -0.68844  -0.68435  -0.67850
 Alpha  occ. eigenvalues --   -0.67747  -0.65511  -0.64179  -0.61587  -0.60893
 Alpha  occ. eigenvalues --   -0.60353  -0.58100  -0.57957  -0.57355  -0.57051
 Alpha  occ. eigenvalues --   -0.56043  -0.55200  -0.54743  -0.53600  -0.52713
 Alpha  occ. eigenvalues --   -0.52144  -0.51694  -0.51250  -0.50840  -0.50091
 Alpha  occ. eigenvalues --   -0.49253  -0.49072  -0.48966  -0.48417  -0.48007
 Alpha  occ. eigenvalues --   -0.47547  -0.46425  -0.46095  -0.45448  -0.45179
 Alpha  occ. eigenvalues --   -0.45096  -0.44656  -0.44219  -0.43658  -0.43430
 Alpha  occ. eigenvalues --   -0.43392  -0.43174  -0.42849  -0.42329  -0.42290
 Alpha  occ. eigenvalues --   -0.41849  -0.41601  -0.41076  -0.40881  -0.40612
 Alpha  occ. eigenvalues --   -0.40476  -0.40346  -0.40210  -0.39874  -0.39796
 Alpha  occ. eigenvalues --   -0.39460  -0.39238  -0.38990  -0.38776  -0.38398
 Alpha  occ. eigenvalues --   -0.37940  -0.37591  -0.37328  -0.37212  -0.36872
 Alpha  occ. eigenvalues --   -0.36753  -0.36402  -0.36317  -0.35588  -0.35305
 Alpha  occ. eigenvalues --   -0.34338  -0.34154  -0.33582  -0.33265  -0.33038
 Alpha  occ. eigenvalues --   -0.32616  -0.32533  -0.32147  -0.29608  -0.29207
 Alpha  occ. eigenvalues --   -0.28890  -0.27228  -0.25982  -0.25843  -0.25517
 Alpha  occ. eigenvalues --   -0.25363  -0.23986  -0.23645  -0.22401  -0.21059
 Alpha  occ. eigenvalues --   -0.17348
 Alpha virt. eigenvalues --   -0.10436  -0.05870  -0.04043  -0.02075  -0.01043
 Alpha virt. eigenvalues --    0.00060   0.01821   0.02561   0.02942   0.03542
 Alpha virt. eigenvalues --    0.03907   0.04199   0.04911   0.05631   0.06129

 Mulliken charges:
               1
     1  O   -0.200633
     2  O   -0.183287
     3  O   -0.262511
     4  O   -0.280017
     5  O   -0.193996
     6  O   -0.234869
     7  N   -0.014842
     8  N   -0.094896
     9  N   -0.178668
    10  N   -0.339369
    11  C   -0.117465
    12  C   -0.001958
    13  C   -0.097838
    14  C   -0.010055
    15  C    0.001021
    16  C   -0.024147
    17  C   -0.013579
    18  C   -0.152745
    19  C    0.059083
    20  C   -0.096661
    21  C    0.085804
    22  C    0.140554
    23  C   -0.094062
    24  C    0.089358
    25  C   -0.154076
    26  C    0.042256
    27  C    0.106960
    28  C    0.129589
    29  C    0.145501
    30  C    0.049747
    31  C   -0.185406
    32  C    0.154232
    33  C   -0.064494
    34  C    0.093697
    35  C   -0.121681
    36  C   -0.130900
    37  C    0.127917
    38  C    0.039106
    39  C    0.132765
    40  C   -0.005331
    41  C    0.151052
    42  C    0.043512
    43  C   -0.000857
    44  H    0.169891
    45  H    0.011336
    46  H    0.034860
    47  H    0.008041
    48  H    0.060076
    49  H   -0.009378
    50  H    0.036831
    51  H    0.116259
    52  H    0.177351
    53  H    0.014043
    54  H    0.013048
    55  H    0.000406
    56  H    0.177827
    57  H   -0.017163
    58  H    0.036637
    59  H    0.035569
    60  H   -0.056625
    61  H    0.013538
    62  H    0.042376
    63  H    0.046648
    64  H    0.019832
    65  H   -0.004006
    66  H    0.009281
    67  H   -0.023068
    68  H   -0.011153
    69  H    0.058798
    70  H   -0.005114
    71  H    0.075167
    72  H    0.000636
    73  H    0.046891
    74  H    0.032809
    75  H    0.032574
    76  H    0.030852
    77  H    0.015243
    78  H    0.021995
    79  H    0.046858
    80  H    0.233697
    81  H    0.169328
 Sum of Mulliken charges =  -0.00000

 Dipole moment (field-independent basis, Debye):
    X=             -2.4189    Y=              2.2369    Z=             -0.5433  Tot=              3.3392
 Quadrupole moment (field-independent basis, Debye-Ang):
   XX=           -250.8266   YY=           -247.0586   ZZ=           -252.1153
   XY=             10.1320   XZ=             13.4366   YZ=            -13.1638

 Normal termination of Gaussian 16 at Thu Jun 27 00:04:07 2019.
