 Gaussian 16, Revision A.03,
 Gaussian 16:  ES64L-G16RevA.03 25-Dec-2016

 --------------------------
 # td=(NStates=1) B3LYP/SVP
 --------------------------

 --
 TD
 --
 Symbolic Z-matrix:
 Charge =  0 Multiplicity = 1

                         Standard orientation:
 ---------------------------------------------------------------------
 Center     Atomic      Atomic             Coordinates (Angstroms)
 Number     Number       Type             X           Y           Z
 ---------------------------------------------------------------------
      1          8           0        4.364552   -4.776704   -1.899439
      2          8           0       -2.615041   -4.728778   -1.164115
      3          8           0       -6.810916   -1.653645   -1.986648
      4          8           0       -3.591498   -3.204473    0.156759
      5          8           0       -7.516762   -0.662207   -0.120582
      6          8           0        2.916928    2.313969    0.457511
      7          7           0        0.229746   -0.522672    0.634535
      8          7           0       -1.698688    1.839729    0.631208
      9          7           0        3.376854   -3.134984   -0.696077
     10          7           0        0.722273    2.836336    0.078191
     11          6           0       -0.668094   -2.460363    1.422633
     12          6           0       -0.952278   -1.097136    1.019013
     13          6           0        0.754718   -2.588821    1.222572
     14          6           0        1.288622   -1.371615    0.757116
     15          6           0       -3.858377    1.526181    0.300512
     16          6           0       -2.609309    0.814692    0.652003
     17          6           0       -2.256403   -0.483527    0.988677
     18          6           0       -3.624451    2.789777   -0.054293
     19          6           0       -1.549167   -3.438067    2.110895
     20          6           0        5.497099   -2.672833   -1.387586
     21          6           0        3.602602   -1.844099   -0.268539
     22          6           0       -2.153027    2.999727    0.080175
     23          6           0        4.947658   -1.491420   -0.622433
     24          6           0       -5.098932    0.770039    0.259951
     25          6           0        2.598469   -0.949435    0.308680
     26          6           0        1.499984   -3.792591    1.718227
     27          6           0        4.307038   -3.644722   -1.326732
     28          6           0       -1.988684   -4.611238    1.177130
     29          6           0       -5.308692   -0.169608   -0.960936
     30          6           0       -4.575326    3.770281   -0.557863
     31          6           0       -1.478537    4.102089   -0.235225
     32          6           0        6.703908   -3.227852   -0.823675
     33          6           0        5.716054   -0.473534   -0.142009
     34          6           0        0.066112    4.002704   -0.262636
     35          6           0        1.069960    5.129348   -0.499920
     36          6           0        2.325640    4.625939   -0.275787
     37          6           0       -2.736787   -4.090115    0.118508
     38          6           0        5.300832    0.763740    0.664236
     39          6           0       -6.595060   -0.794693   -0.922408
     40          6           0        3.593666    5.340590   -0.343832
     41          6           0        2.074194    3.123715    0.138346
     42          6           0        0.662753    6.566990   -0.759212
     43          6           0        4.225648    5.584345    1.134475
     44          1           0        0.283819    0.638496    0.215973
     45          1           0       -3.037890   -1.118955    0.919311
     46          1           0       -2.565247   -2.799007    2.417008
     47          1           0       -0.934342   -3.550076    3.018295
     48          1           0        5.451555   -2.374473   -2.601016
     49          1           0       -5.248904    0.048107    1.146395
     50          1           0       -5.867701    1.520115    0.287501
     51          1           0        2.846476    0.138038    0.572676
     52          1           0       -0.585537    1.844816    0.592706
     53          1           0        1.372166   -4.603114    1.019319
     54          1           0        2.588799   -3.610075    1.953833
     55          1           0        1.269808   -4.168880    2.671455
     56          1           0        2.462753   -3.675850   -0.581578
     57          1           0       -1.163196   -5.156367    0.752661
     58          1           0       -2.525804   -5.386620    1.925751
     59          1           0       -4.509008   -1.043747   -1.068255
     60          1           0       -5.127408    0.298210   -1.881052
     61          1           0       -4.338578    4.761773   -0.049550
     62          1           0       -5.619345    3.445577   -0.183019
     63          1           0       -4.353631    3.884757   -1.746092
     64          1           0       -1.783444    4.958404   -0.826574
     65          1           0        7.562540   -2.360883   -0.832171
     66          1           0        7.009539   -4.278804   -1.317525
     67          1           0        6.675204   -3.745509    0.164649
     68          1           0        6.937716   -0.639175   -0.426960
     69          1           0        4.730161    1.341905   -0.206303
     70          1           0        6.090337    1.308129    0.949753
     71          1           0        4.481989    0.618731    1.355298
     72          1           0        3.643096    6.328075   -0.807621
     73          1           0        4.134899    4.633967   -0.899595
     74          1           0        0.155983    6.626818   -1.809326
     75          1           0        1.446948    7.191738   -0.916679
     76          1           0       -0.212179    6.900037   -0.066778
     77          1           0        3.424777    6.140211    1.657606
     78          1           0        5.201005    5.959338    1.012973
     79          1           0        3.996342    4.581162    1.743453
     80          1           0       -3.309459   -4.324500   -1.971019
     81          1           0       -7.664632   -2.017443   -2.048780
 ---------------------------------------------------------------------

 SCF Done:  E(RB3LYP) =  -1949.04055766     A.U. after   20 cycles

 Excitation energies and oscillator strengths:

 Excited State   1:      Singlet-A      1.4770 eV  839.45 nm  f=0.1757  <S**2>=0.000
     156 ->157         0.70776
     156 <-157        -0.10541
 This state for optimization and/or second-order correction.
 Total Energy, E(TD-HF/TD-DFT) =  -1948.98627982
 Copying the excited state density for this state as the 1-particle RhoCI density.

 The electronic state is 1-A.
 Alpha  occ. eigenvalues --  -19.17837 -19.16241 -19.13714 -19.12316 -19.12093
 Alpha  occ. eigenvalues --  -19.07885 -14.38265 -14.37946 -14.35983 -14.31904
 Alpha  occ. eigenvalues --  -10.33346 -10.31852 -10.28989 -10.26709 -10.26143
 Alpha  occ. eigenvalues --  -10.24829 -10.24192 -10.23221 -10.23110 -10.22900
 Alpha  occ. eigenvalues --  -10.22851 -10.22426 -10.21868 -10.21461 -10.21212
 Alpha  occ. eigenvalues --  -10.21012 -10.21006 -10.20711 -10.20434 -10.20325
 Alpha  occ. eigenvalues --  -10.20163 -10.20108 -10.19942 -10.19819 -10.19818
 Alpha  occ. eigenvalues --  -10.19784 -10.19767 -10.19629 -10.19481 -10.19299
 Alpha  occ. eigenvalues --  -10.19076 -10.18965 -10.17737  -1.08011  -1.06907
 Alpha  occ. eigenvalues --   -1.03926  -1.03616  -0.98861  -0.98352  -0.97234
 Alpha  occ. eigenvalues --   -0.96975  -0.94334  -0.92322  -0.83162  -0.82804
 Alpha  occ. eigenvalues --   -0.82024  -0.81580  -0.81011  -0.78909  -0.78431
 Alpha  occ. eigenvalues --   -0.77772  -0.76280  -0.75565  -0.73984  -0.72651
 Alpha  occ. eigenvalues --   -0.71881  -0.70083  -0.69639  -0.68338  -0.67657
 Alpha  occ. eigenvalues --   -0.67407  -0.65860  -0.64795  -0.63606  -0.62586
 Alpha  occ. eigenvalues --   -0.60405  -0.60011  -0.58005  -0.57591  -0.56417
 Alpha  occ. eigenvalues --   -0.55704  -0.55257  -0.54111  -0.53355  -0.53236
 Alpha  occ. eigenvalues --   -0.52901  -0.52289  -0.51110  -0.50999  -0.49341
 Alpha  occ. eigenvalues --   -0.49073  -0.48483  -0.48008  -0.47705  -0.47402
 Alpha  occ. eigenvalues --   -0.47148  -0.46948  -0.46816  -0.46219  -0.45373
 Alpha  occ. eigenvalues --   -0.45282  -0.45025  -0.44694  -0.44246  -0.43838
 Alpha  occ. eigenvalues --   -0.43448  -0.43382  -0.42738  -0.42446  -0.42149
 Alpha  occ. eigenvalues --   -0.41887  -0.41599  -0.41143  -0.40693  -0.40601
 Alpha  occ. eigenvalues --   -0.40307  -0.40129  -0.39798  -0.39658  -0.39618
 Alpha  occ. eigenvalues --   -0.39523  -0.39324  -0.39156  -0.38924  -0.38718
 Alpha  occ. eigenvalues --   -0.38347  -0.37842  -0.37749  -0.37427  -0.36815
 Alpha  occ. eigenvalues --   -0.36524  -0.35674  -0.35169  -0.34802  -0.34576
 Alpha  occ. eigenvalues --   -0.34041  -0.33648  -0.33342  -0.33280  -0.32099
 Alpha  occ. eigenvalues --   -0.31640  -0.31356  -0.30252  -0.30057  -0.29786
 Alpha  occ. eigenvalues --   -0.28497  -0.27583  -0.26330  -0.26062  -0.25514
 Alpha  occ. eigenvalues --   -0.24799  -0.24427  -0.24321  -0.23180  -0.21777
 Alpha  occ. eigenvalues --   -0.17354
 Alpha virt. eigenvalues --   -0.11021  -0.06381  -0.04433  -0.03750  -0.00567
 Alpha virt. eigenvalues --    0.00358   0.01680   0.02017   0.03194   0.03450
 Alpha virt. eigenvalues --    0.04050   0.04202   0.04452   0.04636   0.06063

 Mulliken charges:
               1
     1  O   -0.299197
     2  O   -0.330550
     3  O   -0.207752
     4  O   -0.237199
     5  O   -0.240040
     6  O   -0.193509
     7  N   -0.159052
     8  N   -0.133009
     9  N    0.053217
    10  N   -0.336297
    11  C   -0.136806
    12  C    0.061855
    13  C   -0.181886
    14  C    0.087878
    15  C   -0.037654
    16  C    0.035594
    17  C    0.011857
    18  C   -0.134370
    19  C    0.024447
    20  C   -0.036359
    21  C    0.052211
    22  C    0.167465
    23  C   -0.024047
    24  C    0.089713
    25  C   -0.119626
    26  C    0.067305
    27  C   -0.010641
    28  C    0.054904
    29  C    0.000622
    30  C    0.039213
    31  C   -0.130130
    32  C   -0.003438
    33  C   -0.210532
    34  C    0.024379
    35  C   -0.111326
    36  C   -0.192745
    37  C    0.182662
    38  C    0.120218
    39  C    0.151734
    40  C    0.076409
    41  C    0.177215
    42  C    0.120724
    43  C   -0.018792
    44  H    0.216887
    45  H   -0.046450
    46  H    0.052017
    47  H    0.035833
    48  H    0.064978
    49  H    0.037685
    50  H   -0.009613
    51  H    0.049452
    52  H    0.169720
    53  H    0.019253
    54  H    0.028083
    55  H   -0.003877
    56  H    0.156405
    57  H    0.026705
    58  H    0.092780
    59  H    0.072819
    60  H    0.011999
    61  H    0.032971
    62  H    0.042067
    63  H    0.057519
    64  H   -0.005942
    65  H    0.041035
    66  H    0.037808
    67  H    0.015969
    68  H    0.026483
    69  H    0.072500
    70  H   -0.019953
    71  H    0.037694
    72  H    0.006971
    73  H    0.009682
    74  H    0.018380
    75  H   -0.017651
    76  H    0.049033
    77  H    0.013512
    78  H    0.032851
    79  H    0.036730
    80  H    0.261809
    81  H    0.161193
 Sum of Mulliken charges =  -0.00000

 Dipole moment (field-independent basis, Debye):
    X=             -1.8802    Y=              4.2056    Z=             -0.0136  Tot=              4.6068
 Quadrupole moment (field-independent basis, Debye-Ang):
   XX=           -268.9520   YY=           -236.9249   ZZ=           -254.1285
   XY=             24.2123   XZ=             21.2467   YZ=            -22.4927

 Normal termination of Gaussian 16 at Wed Jul  3 08:56:19 2019.
