 Gaussian 16, Revision A.03,
 Gaussian 16:  ES64L-G16RevA.03 25-Dec-2016

 --------------------------
 # td=(NStates=1) B3LYP/SVP
 --------------------------

 --
 TD
 --
 Symbolic Z-matrix:
 Charge =  0 Multiplicity = 1

                         Standard orientation:
 ---------------------------------------------------------------------
 Center     Atomic      Atomic             Coordinates (Angstroms)
 Number     Number       Type             X           Y           Z
 ---------------------------------------------------------------------
      1          8           0        4.264914   -4.874059   -1.680071
      2          8           0       -2.870889   -4.925728   -1.033941
      3          8           0       -6.989643   -1.750141   -1.810517
      4          8           0       -3.608094   -3.161497    0.054099
      5          8           0       -7.618374   -0.626375    0.031773
      6          8           0        2.894985    2.346081    0.302205
      7          7           0        0.282001   -0.488225    0.431059
      8          7           0       -1.658358    1.806746    0.318397
      9          7           0        3.365531   -3.062217   -0.681805
     10          7           0        0.651886    2.839736    0.187552
     11          6           0       -0.516169   -2.404223    1.348503
     12          6           0       -0.852152   -1.092664    0.850375
     13          6           0        0.838058   -2.553463    1.170011
     14          6           0        1.299187   -1.313314    0.643721
     15          6           0       -3.788465    1.407423    0.180552
     16          6           0       -2.554691    0.805762    0.451101
     17          6           0       -2.160470   -0.505066    0.696973
     18          6           0       -3.635592    2.731523   -0.010765
     19          6           0       -1.542600   -3.304058    2.162027
     20          6           0        5.585475   -2.742855   -1.270052
     21          6           0        3.706074   -1.745996   -0.126182
     22          6           0       -2.163717    2.988734   -0.101165
     23          6           0        5.045845   -1.536967   -0.481834
     24          6           0       -5.141127    0.656651    0.325721
     25          6           0        2.599756   -0.938127    0.325204
     26          6           0        1.661528   -3.656407    1.695082
     27          6           0        4.384103   -3.720356   -1.346834
     28          6           0       -1.951433   -4.488931    1.167226
     29          6           0       -5.360054   -0.247159   -0.894088
     30          6           0       -4.682697    3.699512   -0.259914
     31          6           0       -1.386782    4.078377   -0.243843
     32          6           0        6.845880   -3.364543   -0.869644
     33          6           0        5.847103   -0.449697   -0.063099
     34          6           0        0.024537    4.068837   -0.124607
     35          6           0        0.981286    5.182602   -0.361082
     36          6           0        2.199699    4.686786   -0.184251
     37          6           0       -2.855048   -4.087359   -0.021070
     38          6           0        5.430769    0.722331    0.637747
     39          6           0       -6.654811   -0.892013   -0.754024
     40          6           0        3.531578    5.498312   -0.342198
     41          6           0        1.987682    3.271004    0.125243
     42          6           0        0.542131    6.629575   -0.891599
     43          6           0        4.245983    5.569164    0.936649
     44          1           0        0.202306    0.467240    0.031611
     45          1           0       -3.052308   -1.136143    0.895464
     46          1           0       -2.486142   -2.884882    2.326071
     47          1           0       -0.960379   -3.685161    2.906822
     48          1           0        5.627523   -2.684646   -2.346594
     49          1           0       -5.190262   -0.015841    1.355168
     50          1           0       -6.101852    1.414412    0.485517
     51          1           0        2.963944    0.112941    0.428187
     52          1           0       -0.467085    1.859897    0.295186
     53          1           0        1.709932   -4.488276    0.907931
     54          1           0        2.660352   -3.404954    2.358179
     55          1           0        1.163309   -4.255823    2.414768
     56          1           0        2.305552   -3.357362   -0.852682
     57          1           0       -0.848544   -4.967049    0.866955
     58          1           0       -2.520471   -5.215720    1.678180
     59          1           0       -4.496554   -0.879332   -1.250871
     60          1           0       -5.415032    0.338450   -1.834968
     61          1           0       -4.633023    4.578039    0.307820
     62          1           0       -5.618362    3.159660   -0.128391
     63          1           0       -4.636195    4.094557   -1.430402
     64          1           0       -1.888510    5.018211   -0.557680
     65          1           0        7.730043   -2.588691   -0.927247
     66          1           0        7.202144   -4.142617   -1.477721
     67          1           0        6.980624   -3.828885    0.140432
     68          1           0        6.824333   -0.577958   -0.431018
     69          1           0        4.995294    1.515004    0.321799
     70          1           0        6.297967    0.983765    1.123763
     71          1           0        4.848221    0.585024    1.554436
     72          1           0        3.292683    6.306298   -0.812237
     73          1           0        4.078258    4.991478   -1.105678
     74          1           0        0.021785    6.613201   -1.787152
     75          1           0        1.414318    7.366575   -0.828243
     76          1           0       -0.144191    6.861736    0.015534
     77          1           0        3.626783    6.198972    1.626975
     78          1           0        5.272477    6.040508    0.931167
     79          1           0        4.535831    4.560551    1.388070
     80          1           0       -3.414836   -4.538192   -1.736209
     81          1           0       -8.015756   -1.873872   -1.767070
 ---------------------------------------------------------------------

 SCF Done:  E(RB3LYP) =  -1949.07562031     A.U. after   19 cycles

 Excitation energies and oscillator strengths:

 Excited State   1:      Singlet-A      1.6689 eV  742.89 nm  f=0.3254  <S**2>=0.000
     156 ->157         0.71204
     156 <-157        -0.13631
 This state for optimization and/or second-order correction.
 Total Energy, E(TD-HF/TD-DFT) =  -1949.01428800
 Copying the excited state density for this state as the 1-particle RhoCI density.

 The electronic state is 1-A.
 Alpha  occ. eigenvalues --  -19.19974 -19.17135 -19.13924 -19.12373 -19.10293
 Alpha  occ. eigenvalues --  -19.09072 -14.38185 -14.35767 -14.34233 -14.30645
 Alpha  occ. eigenvalues --  -10.33496 -10.32330 -10.28242 -10.26904 -10.24294
 Alpha  occ. eigenvalues --  -10.23542 -10.23394 -10.23011 -10.22763 -10.22539
 Alpha  occ. eigenvalues --  -10.22536 -10.22056 -10.21631 -10.21259 -10.21051
 Alpha  occ. eigenvalues --  -10.20997 -10.20830 -10.20608 -10.20467 -10.20421
 Alpha  occ. eigenvalues --  -10.20365 -10.20121 -10.19716 -10.19567 -10.19430
 Alpha  occ. eigenvalues --  -10.19372 -10.19242 -10.18998 -10.18838 -10.18771
 Alpha  occ. eigenvalues --  -10.18499 -10.18170 -10.15224  -1.12732  -1.06235
 Alpha  occ. eigenvalues --   -1.02993  -1.02835  -1.00528  -0.98136  -0.97261
 Alpha  occ. eigenvalues --   -0.96584  -0.92664  -0.90357  -0.82514  -0.82202
 Alpha  occ. eigenvalues --   -0.81283  -0.81144  -0.80621  -0.79079  -0.78189
 Alpha  occ. eigenvalues --   -0.77868  -0.76996  -0.75795  -0.74568  -0.72574
 Alpha  occ. eigenvalues --   -0.71368  -0.70811  -0.70070  -0.69220  -0.67700
 Alpha  occ. eigenvalues --   -0.66213  -0.65403  -0.64788  -0.62963  -0.62122
 Alpha  occ. eigenvalues --   -0.61571  -0.59152  -0.58534  -0.57582  -0.57051
 Alpha  occ. eigenvalues --   -0.56056  -0.55487  -0.55073  -0.53686  -0.53159
 Alpha  occ. eigenvalues --   -0.52885  -0.51647  -0.51204  -0.50312  -0.49913
 Alpha  occ. eigenvalues --   -0.49395  -0.49201  -0.48353  -0.47557  -0.46918
 Alpha  occ. eigenvalues --   -0.46619  -0.46291  -0.45993  -0.45716  -0.45570
 Alpha  occ. eigenvalues --   -0.45082  -0.44938  -0.44753  -0.44317  -0.44166
 Alpha  occ. eigenvalues --   -0.43804  -0.43398  -0.43368  -0.42628  -0.42059
 Alpha  occ. eigenvalues --   -0.41876  -0.41436  -0.41292  -0.40970  -0.40673
 Alpha  occ. eigenvalues --   -0.40521  -0.40257  -0.40220  -0.40041  -0.39528
 Alpha  occ. eigenvalues --   -0.39424  -0.38940  -0.38870  -0.38464  -0.38294
 Alpha  occ. eigenvalues --   -0.37962  -0.37763  -0.37134  -0.36319  -0.36162
 Alpha  occ. eigenvalues --   -0.35813  -0.35395  -0.34986  -0.34812  -0.34459
 Alpha  occ. eigenvalues --   -0.34213  -0.34110  -0.33800  -0.33403  -0.33164
 Alpha  occ. eigenvalues --   -0.32934  -0.32167  -0.30628  -0.29502  -0.29336
 Alpha  occ. eigenvalues --   -0.29105  -0.27416  -0.26359  -0.26227  -0.25565
 Alpha  occ. eigenvalues --   -0.24806  -0.24478  -0.24188  -0.23609  -0.21292
 Alpha  occ. eigenvalues --   -0.17120
 Alpha virt. eigenvalues --   -0.10553  -0.06477  -0.04361  -0.02111  -0.00566
 Alpha virt. eigenvalues --    0.01251   0.02540   0.02958   0.03427   0.03855
 Alpha virt. eigenvalues --    0.04644   0.04762   0.05202   0.05706   0.06313

 Mulliken charges:
               1
     1  O   -0.202670
     2  O   -0.139824
     3  O   -0.264706
     4  O   -0.223220
     5  O   -0.287129
     6  O   -0.295278
     7  N    0.019869
     8  N   -0.181912
     9  N   -0.223637
    10  N   -0.327566
    11  C   -0.127863
    12  C    0.015282
    13  C   -0.176011
    14  C    0.127756
    15  C   -0.025255
    16  C    0.040107
    17  C   -0.049094
    18  C   -0.123095
    19  C    0.258660
    20  C    0.001015
    21  C    0.082175
    22  C    0.086587
    23  C   -0.028922
    24  C   -0.061788
    25  C   -0.142010
    26  C    0.086794
    27  C    0.086851
    28  C   -0.081343
    29  C    0.034113
    30  C    0.102003
    31  C   -0.127421
    32  C    0.038148
    33  C   -0.096973
    34  C    0.076503
    35  C   -0.104730
    36  C   -0.208969
    37  C    0.129842
    38  C    0.235633
    39  C    0.192597
    40  C    0.276952
    41  C    0.181326
    42  C    0.084574
    43  C   -0.025462
    44  H    0.126184
    45  H    0.012612
    46  H    0.000721
    47  H   -0.015179
    48  H    0.024961
    49  H    0.061462
    50  H    0.063959
    51  H    0.028092
    52  H    0.220762
    53  H    0.025506
    54  H    0.062651
    55  H   -0.028184
    56  H    0.168546
    57  H    0.048717
    58  H    0.033667
    59  H    0.051423
    60  H    0.040465
    61  H    0.009587
    62  H   -0.002933
    63  H    0.029913
    64  H   -0.028340
    65  H    0.012636
    66  H    0.003394
    67  H    0.017333
    68  H   -0.032805
    69  H   -0.007627
    70  H   -0.035726
    71  H    0.005674
    72  H   -0.088293
    73  H   -0.013341
    74  H    0.032362
    75  H    0.037911
    76  H    0.040452
    77  H    0.013733
    78  H    0.006953
    79  H    0.043780
    80  H    0.186114
    81  H    0.210945
 Sum of Mulliken charges =  -0.00000

 Dipole moment (field-independent basis, Debye):
    X=             -0.9436    Y=              2.0464    Z=             -1.2986  Tot=              2.6009
 Quadrupole moment (field-independent basis, Debye-Ang):
   XX=           -256.9677   YY=           -239.5361   ZZ=           -249.6049
   XY=             15.4144   XZ=             14.9714   YZ=            -14.1418

 Normal termination of Gaussian 16 at Tue Jul  2 21:38:08 2019.
