 Gaussian 16, Revision A.03,
 Gaussian 16:  ES64L-G16RevA.03 25-Dec-2016

 --------------------------
 # td=(NStates=1) B3LYP/SVP
 --------------------------

 --
 TD
 --
 Symbolic Z-matrix:
 Charge =  0 Multiplicity = 1

                         Standard orientation:
 ---------------------------------------------------------------------
 Center     Atomic      Atomic             Coordinates (Angstroms)
 Number     Number       Type             X           Y           Z
 ---------------------------------------------------------------------
      1          8           0        4.123752   -4.938478   -1.792106
      2          8           0       -2.983738   -4.973375   -0.880543
      3          8           0       -6.986612   -1.548180   -2.029565
      4          8           0       -3.732464   -3.033946    0.121106
      5          8           0       -7.512083   -0.588506   -0.079070
      6          8           0        3.003215    2.306552    0.380299
      7          7           0        0.209611   -0.485293    0.592702
      8          7           0       -1.526347    1.859915    0.471828
      9          7           0        3.234881   -3.160224   -0.695410
     10          7           0        0.812989    2.859905   -0.033298
     11          6           0       -0.682772   -2.277330    1.549786
     12          6           0       -0.970590   -1.062852    0.946961
     13          6           0        0.675906   -2.544667    1.278517
     14          6           0        1.258804   -1.402878    0.696263
     15          6           0       -3.792549    1.551919    0.274864
     16          6           0       -2.511028    0.925986    0.573350
     17          6           0       -2.203599   -0.462470    0.808437
     18          6           0       -3.519814    2.830794   -0.123832
     19          6           0       -1.686737   -3.252764    2.213640
     20          6           0        5.398865   -2.782861   -1.514614
     21          6           0        3.519231   -1.935738   -0.242035
     22          6           0       -2.116301    3.024160    0.024454
     23          6           0        4.945859   -1.675103   -0.560499
     24          6           0       -5.020291    0.780158    0.213783
     25          6           0        2.601377   -1.071139    0.330719
     26          6           0        1.480440   -3.689136    1.829946
     27          6           0        4.249573   -3.768168   -1.399564
     28          6           0       -2.034873   -4.403386    1.367735
     29          6           0       -5.324616    0.004758   -0.983716
     30          6           0       -4.532024    3.916581   -0.576140
     31          6           0       -1.258532    4.106480   -0.364956
     32          6           0        6.800117   -3.479955   -1.086399
     33          6           0        5.759487   -0.593970   -0.239515
     34          6           0        0.156434    4.023511   -0.332844
     35          6           0        1.192645    5.189616   -0.463871
     36          6           0        2.377789    4.511359   -0.178060
     37          6           0       -2.976431   -4.020277    0.129351
     38          6           0        5.552351    0.621188    0.635056
     39          6           0       -6.739000   -0.726726   -0.949045
     40          6           0        3.718486    5.285474   -0.126974
     41          6           0        2.153038    3.121932    0.080299
     42          6           0        0.779020    6.592067   -0.746831
     43          6           0        4.214747    5.483704    1.258062
     44          1           0        0.634074    0.265194    0.092158
     45          1           0       -2.885499   -1.080155    0.876034
     46          1           0       -2.734848   -2.763572    2.405045
     47          1           0       -1.268586   -3.798031    2.943378
     48          1           0        5.457428   -2.321493   -2.519896
     49          1           0       -5.312080    0.211451    1.367868
     50          1           0       -5.881052    1.459736    0.333001
     51          1           0        2.854508   -0.087777    0.791631
     52          1           0       -0.564157    1.891113    0.580620
     53          1           0        1.492105   -4.795357    1.203191
     54          1           0        2.444606   -3.523164    2.092096
     55          1           0        1.188032   -3.883533    2.847556
     56          1           0        2.194766   -3.758855   -0.526168
     57          1           0       -1.026020   -5.118631    1.059702
     58          1           0       -2.490047   -5.192154    1.957799
     59          1           0       -4.472938   -1.038051   -1.255162
     60          1           0       -5.322827    0.559277   -1.886513
     61          1           0       -4.084339    4.988233   -0.407425
     62          1           0       -5.476133    3.829526    0.298845
     63          1           0       -4.731732    3.695411   -1.858587
     64          1           0       -1.722376    5.074490   -0.792512
     65          1           0        7.714019   -2.750450   -1.346502
     66          1           0        6.982714   -4.408244   -1.736985
     67          1           0        6.653819   -3.764320   -0.034970
     68          1           0        6.880298   -0.699674   -0.623613
     69          1           0        5.064521    1.443075   -0.038653
     70          1           0        6.577133    1.123397    0.989347
     71          1           0        4.790523    0.255192    1.373123
     72          1           0        3.741625    6.249032   -0.620160
     73          1           0        4.534832    4.674741   -0.687325
     74          1           0        0.166750    6.834408   -1.589615
     75          1           0        1.514268    7.099926   -1.007782
     76          1           0        0.283116    6.940641    0.026509
     77          1           0        3.592579    6.367020    1.676511
     78          1           0        5.398467    5.549396    1.432123
     79          1           0        3.882009    4.447236    1.964470
     80          1           0       -3.409352   -4.432032   -1.604113
     81          1           0       -7.864750   -1.777251   -1.820706
 ---------------------------------------------------------------------

 SCF Done:  E(RB3LYP) =  -1948.98300020     A.U. after   17 cycles

 Excitation energies and oscillator strengths:

 Excited State   1:      Singlet-A      1.7239 eV  719.22 nm  f=0.3113  <S**2>=0.000
     156 ->157         0.70826
     156 <-157        -0.12873
 This state for optimization and/or second-order correction.
 Total Energy, E(TD-HF/TD-DFT) =  -1948.91964945
 Copying the excited state density for this state as the 1-particle RhoCI density.

 The electronic state is 1-A.
 Alpha  occ. eigenvalues --  -19.20177 -19.17968 -19.15693 -19.13735 -19.10848
 Alpha  occ. eigenvalues --  -19.09170 -14.38320 -14.36885 -14.35575 -14.27684
 Alpha  occ. eigenvalues --  -10.34848 -10.32409 -10.29354 -10.25139 -10.24783
 Alpha  occ. eigenvalues --  -10.24437 -10.23947 -10.23550 -10.23438 -10.23037
 Alpha  occ. eigenvalues --  -10.22895 -10.22630 -10.22597 -10.21642 -10.21461
 Alpha  occ. eigenvalues --  -10.21233 -10.21040 -10.20919 -10.20606 -10.20559
 Alpha  occ. eigenvalues --  -10.20510 -10.20387 -10.20289 -10.20193 -10.19758
 Alpha  occ. eigenvalues --  -10.19597 -10.19533 -10.19501 -10.19430 -10.18716
 Alpha  occ. eigenvalues --  -10.18610 -10.18521 -10.16848  -1.11211  -1.09851
 Alpha  occ. eigenvalues --   -1.02829  -1.02498  -1.01443  -1.00983  -0.99131
 Alpha  occ. eigenvalues --   -0.98216  -0.95657  -0.90369  -0.83357  -0.82971
 Alpha  occ. eigenvalues --   -0.81463  -0.80473  -0.79223  -0.78744  -0.78362
 Alpha  occ. eigenvalues --   -0.77229  -0.76343  -0.75353  -0.73730  -0.72104
 Alpha  occ. eigenvalues --   -0.70394  -0.69517  -0.68947  -0.67634  -0.67418
 Alpha  occ. eigenvalues --   -0.67106  -0.65687  -0.63417  -0.61958  -0.60871
 Alpha  occ. eigenvalues --   -0.60228  -0.59765  -0.58010  -0.57641  -0.56471
 Alpha  occ. eigenvalues --   -0.56197  -0.55863  -0.55063  -0.53817  -0.52323
 Alpha  occ. eigenvalues --   -0.52241  -0.51824  -0.51128  -0.50321  -0.49798
 Alpha  occ. eigenvalues --   -0.49305  -0.49153  -0.48492  -0.47947  -0.47779
 Alpha  occ. eigenvalues --   -0.46889  -0.46515  -0.46242  -0.45779  -0.45278
 Alpha  occ. eigenvalues --   -0.44978  -0.44606  -0.44182  -0.43827  -0.43412
 Alpha  occ. eigenvalues --   -0.43080  -0.42964  -0.42805  -0.42488  -0.42235
 Alpha  occ. eigenvalues --   -0.41962  -0.41799  -0.41364  -0.41333  -0.41220
 Alpha  occ. eigenvalues --   -0.40881  -0.40825  -0.40522  -0.40084  -0.39561
 Alpha  occ. eigenvalues --   -0.39247  -0.38976  -0.38785  -0.38374  -0.38055
 Alpha  occ. eigenvalues --   -0.37870  -0.37578  -0.37234  -0.37118  -0.36474
 Alpha  occ. eigenvalues --   -0.36223  -0.35947  -0.35693  -0.34921  -0.34093
 Alpha  occ. eigenvalues --   -0.34008  -0.33558  -0.33456  -0.32557  -0.32258
 Alpha  occ. eigenvalues --   -0.31624  -0.31242  -0.30837  -0.30361  -0.29333
 Alpha  occ. eigenvalues --   -0.28760  -0.26812  -0.26195  -0.25982  -0.25648
 Alpha  occ. eigenvalues --   -0.25583  -0.24780  -0.23700  -0.22882  -0.21187
 Alpha  occ. eigenvalues --   -0.17528
 Alpha virt. eigenvalues --   -0.10629  -0.05544  -0.04187  -0.03420  -0.00915
 Alpha virt. eigenvalues --    0.00348   0.00716   0.01793   0.01940   0.03080
 Alpha virt. eigenvalues --    0.03697   0.04015   0.04987   0.05169   0.05498

 Mulliken charges:
               1
     1  O   -0.234956
     2  O   -0.202261
     3  O   -0.175666
     4  O   -0.244291
     5  O   -0.185491
     6  O   -0.216491
     7  N   -0.064113
     8  N   -0.003133
     9  N   -0.151664
    10  N   -0.317083
    11  C   -0.088964
    12  C    0.108984
    13  C   -0.154570
    14  C    0.011150
    15  C   -0.029862
    16  C    0.070561
    17  C    0.087070
    18  C   -0.114962
    19  C    0.227233
    20  C   -0.076123
    21  C    0.139806
    22  C    0.074654
    23  C   -0.046604
    24  C    0.044527
    25  C   -0.147480
    26  C    0.042906
    27  C    0.131392
    28  C   -0.094958
    29  C   -0.048714
    30  C   -0.055048
    31  C   -0.120102
    32  C   -0.003565
    33  C   -0.172798
    34  C    0.043696
    35  C   -0.116475
    36  C   -0.180332
    37  C    0.193957
    38  C    0.025357
    39  C    0.134389
    40  C    0.095512
    41  C    0.141714
    42  C    0.313996
    43  C   -0.106348
    44  H    0.135079
    45  H   -0.175902
    46  H    0.045291
    47  H   -0.049289
    48  H    0.058854
    49  H    0.048749
    50  H   -0.003742
    51  H    0.050456
    52  H    0.084795
    53  H    0.038998
    54  H   -0.008989
    55  H    0.003786
    56  H    0.215987
    57  H    0.048446
    58  H    0.040509
    59  H    0.073084
    60  H    0.023962
    61  H    0.050240
    62  H    0.071115
    63  H    0.072516
    64  H   -0.008498
    65  H    0.044976
    66  H    0.047699
    67  H    0.032996
    68  H    0.014609
    69  H    0.085418
    70  H    0.033918
    71  H    0.048086
    72  H   -0.006180
    73  H    0.007861
    74  H   -0.006554
    75  H   -0.079611
    76  H   -0.014676
    77  H    0.019136
    78  H    0.037908
    79  H    0.041056
    80  H    0.196034
    81  H    0.147026
 Sum of Mulliken charges =  -0.00000

 Dipole moment (field-independent basis, Debye):
    X=             -2.1520    Y=              0.9559    Z=             -0.2855  Tot=              2.3720
 Quadrupole moment (field-independent basis, Debye-Ang):
   XX=           -249.1397   YY=           -244.0588   ZZ=           -253.2121
   XY=              8.2747   XZ=              9.2256   YZ=            -18.1400

 Normal termination of Gaussian 16 at Tue Jul  2 22:10:59 2019.
