 Gaussian 16, Revision A.03,
 Gaussian 16:  ES64L-G16RevA.03 25-Dec-2016

 --------------------------
 # td=(NStates=1) B3LYP/SVP
 --------------------------

 --
 TD
 --
 Symbolic Z-matrix:
 Charge =  0 Multiplicity = 1

                         Standard orientation:
 ---------------------------------------------------------------------
 Center     Atomic      Atomic             Coordinates (Angstroms)
 Number     Number       Type             X           Y           Z
 ---------------------------------------------------------------------
      1          8           0        4.118376   -5.033925   -1.837028
      2          8           0       -3.095424   -4.820998   -0.921989
      3          8           0       -6.937250   -1.556633   -1.863653
      4          8           0       -3.867584   -3.062428    0.178407
      5          8           0       -7.678292   -0.380393    0.027677
      6          8           0        3.140794    2.408435    0.514869
      7          7           0        0.274373   -0.500111    0.693444
      8          7           0       -1.531764    1.804445    0.305723
      9          7           0        3.145448   -3.219977   -0.774404
     10          7           0        0.871313    2.903587    0.214007
     11          6           0       -0.650595   -2.322565    1.533406
     12          6           0       -0.905629   -1.011428    1.029827
     13          6           0        0.697693   -2.584153    1.238001
     14          6           0        1.303685   -1.412693    0.714526
     15          6           0       -3.718389    1.551449    0.156865
     16          6           0       -2.542892    0.960047    0.557610
     17          6           0       -2.253201   -0.396920    0.870564
     18          6           0       -3.498177    2.885776   -0.169165
     19          6           0       -1.711329   -3.248942    2.116997
     20          6           0        5.321741   -2.913082   -1.388875
     21          6           0        3.471989   -1.912237   -0.359000
     22          6           0       -2.005921    3.033752   -0.035563
     23          6           0        4.905008   -1.847202   -0.634776
     24          6           0       -5.016219    0.875797    0.283449
     25          6           0        2.605639   -1.071637    0.305869
     26          6           0        1.453636   -3.808038    1.820624
     27          6           0        4.217796   -3.895580   -1.395925
     28          6           0       -2.144779   -4.420230    1.253722
     29          6           0       -5.525613    0.127285   -1.037778
     30          6           0       -4.283513    3.981040   -0.720056
     31          6           0       -1.146620    4.123124   -0.286192
     32          6           0        6.703959   -3.592116   -1.000897
     33          6           0        5.768421   -0.757766   -0.229870
     34          6           0        0.319004    4.018738   -0.195179
     35          6           0        1.266399    5.207733   -0.383659
     36          6           0        2.511398    4.600385   -0.223641
     37          6           0       -3.077513   -3.915035    0.085755
     38          6           0        5.429078    0.427616    0.544435
     39          6           0       -6.874201   -0.665930   -0.892358
     40          6           0        3.794902    5.245290   -0.119493
     41          6           0        2.218928    3.179722    0.229487
     42          6           0        0.837012    6.523972   -0.984121
     43          6           0        4.389153    5.456520    1.266730
     44          1           0        0.517041    0.340888    0.236435
     45          1           0       -3.161678   -1.039421    0.838925
     46          1           0       -2.706173   -2.719150    2.507036
     47          1           0       -1.256884   -3.374850    3.084897
     48          1           0        5.610832   -2.815571   -2.522179
     49          1           0       -5.036148    0.238972    1.137249
     50          1           0       -5.877850    1.674030    0.565744
     51          1           0        2.693264    0.063848    0.651854
     52          1           0       -0.509723    1.989276    0.774885
     53          1           0        1.644235   -4.390935    1.076571
     54          1           0        2.515971   -3.589346    1.985706
     55          1           0        0.945141   -4.300906    2.648705
     56          1           0        2.187514   -3.479308   -0.617535
     57          1           0       -1.322241   -4.991376    0.975619
     58          1           0       -2.668931   -5.113413    2.064754
     59          1           0       -4.775311   -0.709241   -1.492835
     60          1           0       -5.717409    0.860792   -1.987742
     61          1           0       -4.228278    4.953902   -0.159287
     62          1           0       -5.373077    3.585412   -0.316017
     63          1           0       -4.264766    4.232889   -1.920171
     64          1           0       -1.755694    4.918632   -0.852878
     65          1           0        7.533079   -2.865449   -1.466320
     66          1           0        6.699108   -4.621411   -1.475660
     67          1           0        6.707592   -3.892914    0.083792
     68          1           0        6.943798   -0.803204   -0.536902
     69          1           0        4.857805    1.043183   -0.088351
     70          1           0        6.303338    1.140613    0.844933
     71          1           0        4.722681    0.286865    1.402291
     72          1           0        3.679310    6.270491   -0.649198
     73          1           0        4.701722    4.774201   -0.680346
     74          1           0        0.374919    6.458575   -1.882895
     75          1           0        1.814766    7.224433   -1.126099
     76          1           0        0.012760    6.928053   -0.332671
     77          1           0        3.652125    5.883314    2.015680
     78          1           0        5.370299    5.988769    1.009220
     79          1           0        4.898134    4.606300    1.844810
     80          1           0       -3.769602   -4.406922   -1.487178
     81          1           0       -7.887316   -2.234246   -1.720412
 ---------------------------------------------------------------------

 SCF Done:  E(RB3LYP) =  -1949.06628460     A.U. after   16 cycles

 Excitation energies and oscillator strengths:

 Excited State   1:      Singlet-A      1.6943 eV  731.79 nm  f=0.2923  <S**2>=0.000
     156 ->157         0.70762
     156 <-157        -0.11323
 This state for optimization and/or second-order correction.
 Total Energy, E(TD-HF/TD-DFT) =  -1949.00402144
 Copying the excited state density for this state as the 1-particle RhoCI density.

 The electronic state is 1-A.
 Alpha  occ. eigenvalues --  -19.21256 -19.19541 -19.15403 -19.12535 -19.11061
 Alpha  occ. eigenvalues --  -19.10518 -14.37214 -14.36588 -14.35063 -14.30176
 Alpha  occ. eigenvalues --  -10.33858 -10.32697 -10.29401 -10.26922 -10.24492
 Alpha  occ. eigenvalues --  -10.23998 -10.23210 -10.23107 -10.22866 -10.22654
 Alpha  occ. eigenvalues --  -10.22280 -10.22051 -10.21924 -10.21855 -10.21823
 Alpha  occ. eigenvalues --  -10.21038 -10.20982 -10.20813 -10.20633 -10.20565
 Alpha  occ. eigenvalues --  -10.20335 -10.20293 -10.20050 -10.19947 -10.19906
 Alpha  occ. eigenvalues --  -10.19462 -10.19381 -10.19260 -10.19201 -10.19198
 Alpha  occ. eigenvalues --  -10.18983 -10.18104 -10.17649  -1.13029  -1.08633
 Alpha  occ. eigenvalues --   -1.03942  -1.02977  -1.01277  -0.99568  -0.99005
 Alpha  occ. eigenvalues --   -0.98262  -0.95302  -0.93209  -0.82566  -0.82047
 Alpha  occ. eigenvalues --   -0.81720  -0.80491  -0.80241  -0.78762  -0.77450
 Alpha  occ. eigenvalues --   -0.76068  -0.75507  -0.75036  -0.73707  -0.72058
 Alpha  occ. eigenvalues --   -0.71094  -0.70017  -0.69243  -0.68218  -0.67794
 Alpha  occ. eigenvalues --   -0.66603  -0.65142  -0.64070  -0.61885  -0.61160
 Alpha  occ. eigenvalues --   -0.60777  -0.58805  -0.58376  -0.57921  -0.56715
 Alpha  occ. eigenvalues --   -0.55499  -0.54901  -0.54578  -0.53338  -0.53041
 Alpha  occ. eigenvalues --   -0.52280  -0.51991  -0.51567  -0.50891  -0.49726
 Alpha  occ. eigenvalues --   -0.49021  -0.48330  -0.48278  -0.48114  -0.47518
 Alpha  occ. eigenvalues --   -0.47209  -0.46839  -0.46079  -0.45290  -0.44999
 Alpha  occ. eigenvalues --   -0.44566  -0.44375  -0.44215  -0.43917  -0.43707
 Alpha  occ. eigenvalues --   -0.43236  -0.43009  -0.42923  -0.42469  -0.42301
 Alpha  occ. eigenvalues --   -0.42113  -0.41344  -0.41241  -0.40827  -0.40566
 Alpha  occ. eigenvalues --   -0.40490  -0.40135  -0.39971  -0.39684  -0.39465
 Alpha  occ. eigenvalues --   -0.39261  -0.38955  -0.38790  -0.38238  -0.37950
 Alpha  occ. eigenvalues --   -0.37845  -0.37562  -0.37296  -0.37046  -0.36879
 Alpha  occ. eigenvalues --   -0.36743  -0.35223  -0.34881  -0.34721  -0.34684
 Alpha  occ. eigenvalues --   -0.34232  -0.33690  -0.33348  -0.33341  -0.32856
 Alpha  occ. eigenvalues --   -0.32784  -0.32133  -0.31173  -0.30832  -0.29166
 Alpha  occ. eigenvalues --   -0.28630  -0.27406  -0.26503  -0.26214  -0.25352
 Alpha  occ. eigenvalues --   -0.25035  -0.24496  -0.24038  -0.23741  -0.21222
 Alpha  occ. eigenvalues --   -0.17332
 Alpha virt. eigenvalues --   -0.10395  -0.06306  -0.04736  -0.02532  -0.02211
 Alpha virt. eigenvalues --   -0.01387  -0.00090   0.02585   0.02887   0.03758
 Alpha virt. eigenvalues --    0.04224   0.04448   0.04851   0.05157   0.05535

 Mulliken charges:
               1
     1  O   -0.211209
     2  O   -0.167715
     3  O   -0.242360
     4  O   -0.177812
     5  O   -0.270456
     6  O   -0.229718
     7  N    0.001341
     8  N   -0.119608
     9  N   -0.148963
    10  N   -0.258469
    11  C   -0.124574
    12  C    0.047132
    13  C   -0.223053
    14  C   -0.003048
    15  C   -0.053853
    16  C    0.049038
    17  C   -0.068215
    18  C   -0.063114
    19  C    0.029576
    20  C   -0.118202
    21  C    0.128298
    22  C   -0.004727
    23  C    0.020435
    24  C    0.056140
    25  C   -0.155355
    26  C    0.222560
    27  C    0.151739
    28  C    0.049043
    29  C   -0.096726
    30  C   -0.021240
    31  C   -0.111104
    32  C   -0.009666
    33  C   -0.149734
    34  C    0.062618
    35  C   -0.101717
    36  C   -0.127329
    37  C    0.147147
    38  C    0.072252
    39  C    0.186583
    40  C    0.031187
    41  C    0.149082
    42  C    0.100864
    43  C   -0.035153
    44  H    0.113710
    45  H    0.030129
    46  H    0.023329
    47  H    0.009747
    48  H    0.063124
    49  H    0.014398
    50  H    0.042980
    51  H    0.073856
    52  H    0.205848
    53  H   -0.069212
    54  H    0.003535
    55  H    0.020460
    56  H    0.122702
    57  H    0.000203
    58  H    0.060821
    59  H    0.054439
    60  H    0.061091
    61  H    0.034903
    62  H    0.022816
    63  H    0.069258
    64  H   -0.002033
    65  H    0.052261
    66  H    0.038300
    67  H    0.022152
    68  H    0.026689
    69  H    0.041003
    70  H    0.018562
    71  H    0.043882
    72  H    0.003574
    73  H    0.016086
    74  H    0.003460
    75  H    0.041038
    76  H    0.027886
    77  H    0.027588
    78  H    0.012957
    79  H    0.028207
    80  H    0.168561
    81  H    0.259776
 Sum of Mulliken charges =  -0.00000

 Dipole moment (field-independent basis, Debye):
    X=             -2.2324    Y=              0.7330    Z=             -1.2346  Tot=              2.6543
 Quadrupole moment (field-independent basis, Debye-Ang):
   XX=           -246.4189   YY=           -246.8614   ZZ=           -252.7471
   XY=             23.2298   XZ=             14.5330   YZ=            -15.1872

 Normal termination of Gaussian 16 at Tue Jul  2 19:37:50 2019.
