 Gaussian 16, Revision A.03,
 Gaussian 16:  ES64L-G16RevA.03 25-Dec-2016

 --------------------------
 # td=(NStates=1) B3LYP/SVP
 --------------------------

 --
 TD
 --
 Symbolic Z-matrix:
 Charge =  0 Multiplicity = 1

                         Standard orientation:
 ---------------------------------------------------------------------
 Center     Atomic      Atomic             Coordinates (Angstroms)
 Number     Number       Type             X           Y           Z
 ---------------------------------------------------------------------
      1          8           0        4.276467   -4.937385   -1.605524
      2          8           0       -3.011411   -4.841871   -1.144774
      3          8           0       -6.980426   -1.454335   -1.900814
      4          8           0       -3.853865   -3.019374   -0.013955
      5          8           0       -7.611108   -0.552391    0.064610
      6          8           0        3.127994    2.345265    0.537482
      7          7           0        0.266907   -0.521077    0.591724
      8          7           0       -1.465880    1.816415    0.420428
      9          7           0        3.214288   -3.134172   -0.728694
     10          7           0        0.815176    2.841885    0.060230
     11          6           0       -0.650753   -2.435581    1.425902
     12          6           0       -0.944193   -1.018787    0.963478
     13          6           0        0.683031   -2.597374    1.233802
     14          6           0        1.295793   -1.455459    0.723634
     15          6           0       -3.737111    1.578333    0.310634
     16          6           0       -2.498021    0.872376    0.546044
     17          6           0       -2.283546   -0.470915    0.872525
     18          6           0       -3.491740    2.870081   -0.075540
     19          6           0       -1.664263   -3.311168    2.066007
     20          6           0        5.423051   -2.865728   -1.347973
     21          6           0        3.596290   -1.822434   -0.181742
     22          6           0       -2.026528    3.017844   -0.069424
     23          6           0        5.005595   -1.603559   -0.609895
     24          6           0       -5.033932    0.834202    0.263647
     25          6           0        2.630481   -1.056633    0.332828
     26          6           0        1.474935   -3.785965    1.776886
     27          6           0        4.293276   -3.759134   -1.333268
     28          6           0       -2.186740   -4.431245    1.167294
     29          6           0       -5.400612   -0.077323   -0.792349
     30          6           0       -4.476309    3.921600   -0.587159
     31          6           0       -1.223367    4.086305   -0.325041
     32          6           0        6.735244   -3.594899   -0.956232
     33          6           0        5.701507   -0.553102   -0.346649
     34          6           0        0.189277    4.035662   -0.220726
     35          6           0        1.154737    5.065327   -0.533060
     36          6           0        2.367369    4.533163   -0.148379
     37          6           0       -3.050216   -3.982163    0.003263
     38          6           0        5.449335    0.601061    0.651832
     39          6           0       -6.779629   -0.604540   -0.818158
     40          6           0        3.744013    5.208378   -0.300803
     41          6           0        2.171280    3.107360    0.253430
     42          6           0        0.706714    6.497982   -0.811070
     43          6           0        4.373456    5.663654    1.054144
     44          1           0        0.553873    0.233379    0.076512
     45          1           0       -3.133877   -1.134176    1.092831
     46          1           0       -2.593461   -2.691261    2.480288
     47          1           0       -1.203638   -3.698537    3.262679
     48          1           0        5.571409   -2.739082   -2.363830
     49          1           0       -5.110094    0.373899    1.165631
     50          1           0       -5.879347    1.686113    0.387904
     51          1           0        2.864432    0.066923    0.434245
     52          1           0       -0.507011    1.657821    0.629469
     53          1           0        1.741226   -4.615376    0.980314
     54          1           0        2.418998   -3.290870    2.153489
     55          1           0        0.982008   -4.055331    2.729109
     56          1           0        2.427204   -3.715885   -0.615996
     57          1           0       -1.426481   -5.214376    0.761576
     58          1           0       -2.743463   -5.081995    1.617850
     59          1           0       -4.838267   -0.946123   -0.936592
     60          1           0       -5.470679    0.355779   -1.747997
     61          1           0       -4.247649    4.941131   -0.233522
     62          1           0       -5.421321    3.692444   -0.403880
     63          1           0       -4.232497    3.888229   -1.695940
     64          1           0       -2.005964    4.957219   -0.477939
     65          1           0        7.530357   -2.752432   -1.055517
     66          1           0        6.924363   -4.495293   -1.490094
     67          1           0        6.629683   -3.873227    0.249065
     68          1           0        6.522336   -0.612225   -0.837188
     69          1           0        4.917938    1.397151    0.052467
     70          1           0        6.397167    0.784687    1.141477
     71          1           0        4.830252    0.339129    1.484764
     72          1           0        3.669188    6.063309   -1.127258
     73          1           0        4.345059    4.618706   -0.890938
     74          1           0        0.163713    6.528863   -1.782094
     75          1           0        1.539857    7.201341   -0.759114
     76          1           0       -0.125122    6.896438    0.074509
     77          1           0        3.899637    6.660629    1.499840
     78          1           0        5.395551    5.978149    0.933123
     79          1           0        4.300722    4.705687    1.845940
     80          1           0       -3.462280   -4.400253   -1.892538
     81          1           0       -7.909005   -1.855092   -1.771969
 ---------------------------------------------------------------------

 SCF Done:  E(RB3LYP) =  -1949.09344962     A.U. after   17 cycles

 Excitation energies and oscillator strengths:

 Excited State   1:      Singlet-A      1.6856 eV  735.55 nm  f=0.3005  <S**2>=0.000
     156 ->157         0.71043
     156 <-157        -0.13494
 This state for optimization and/or second-order correction.
 Total Energy, E(TD-HF/TD-DFT) =  -1949.03150530
 Copying the excited state density for this state as the 1-particle RhoCI density.

 The electronic state is 1-A.
 Alpha  occ. eigenvalues --  -19.18798 -19.17631 -19.15294 -19.12527 -19.10630
 Alpha  occ. eigenvalues --  -19.09819 -14.38150 -14.35691 -14.35436 -14.28535
 Alpha  occ. eigenvalues --  -10.35054 -10.31763 -10.27545 -10.26592 -10.24681
 Alpha  occ. eigenvalues --  -10.24445 -10.24362 -10.24256 -10.23506 -10.23264
 Alpha  occ. eigenvalues --  -10.23248 -10.22675 -10.21972 -10.21040 -10.20984
 Alpha  occ. eigenvalues --  -10.20599 -10.20598 -10.20521 -10.20476 -10.20297
 Alpha  occ. eigenvalues --  -10.20021 -10.19812 -10.19764 -10.19751 -10.19527
 Alpha  occ. eigenvalues --  -10.19495 -10.19455 -10.19421 -10.19215 -10.19127
 Alpha  occ. eigenvalues --  -10.18998 -10.17993 -10.17469  -1.08060  -1.07959
 Alpha  occ. eigenvalues --   -1.03230  -1.00012  -0.99788  -0.99206  -0.99195
 Alpha  occ. eigenvalues --   -0.96619  -0.93304  -0.91174  -0.83468  -0.83196
 Alpha  occ. eigenvalues --   -0.82694  -0.81471  -0.79841  -0.79394  -0.78861
 Alpha  occ. eigenvalues --   -0.77931  -0.77037  -0.75287  -0.74015  -0.72894
 Alpha  occ. eigenvalues --   -0.71762  -0.69690  -0.69403  -0.68913  -0.67805
 Alpha  occ. eigenvalues --   -0.67383  -0.66104  -0.65398  -0.62324  -0.61537
 Alpha  occ. eigenvalues --   -0.61011  -0.59242  -0.58702  -0.57842  -0.56727
 Alpha  occ. eigenvalues --   -0.56404  -0.55297  -0.54634  -0.54406  -0.52964
 Alpha  occ. eigenvalues --   -0.52208  -0.51944  -0.51629  -0.50671  -0.49999
 Alpha  occ. eigenvalues --   -0.49489  -0.49127  -0.48399  -0.48246  -0.47694
 Alpha  occ. eigenvalues --   -0.47556  -0.47191  -0.46776  -0.45560  -0.44945
 Alpha  occ. eigenvalues --   -0.44640  -0.44246  -0.43991  -0.43783  -0.43630
 Alpha  occ. eigenvalues --   -0.43298  -0.42954  -0.42656  -0.42163  -0.41976
 Alpha  occ. eigenvalues --   -0.41955  -0.41698  -0.41596  -0.41187  -0.41054
 Alpha  occ. eigenvalues --   -0.40887  -0.40603  -0.40355  -0.39994  -0.39583
 Alpha  occ. eigenvalues --   -0.39445  -0.39384  -0.38710  -0.38565  -0.38520
 Alpha  occ. eigenvalues --   -0.37832  -0.37442  -0.37028  -0.36510  -0.36463
 Alpha  occ. eigenvalues --   -0.36276  -0.35923  -0.35665  -0.34615  -0.34478
 Alpha  occ. eigenvalues --   -0.34184  -0.34061  -0.33760  -0.33577  -0.33176
 Alpha  occ. eigenvalues --   -0.32942  -0.31894  -0.31829  -0.30043  -0.29679
 Alpha  occ. eigenvalues --   -0.27680  -0.27491  -0.26702  -0.26397  -0.25988
 Alpha  occ. eigenvalues --   -0.25790  -0.25312  -0.23944  -0.22952  -0.21860
 Alpha  occ. eigenvalues --   -0.17804
 Alpha virt. eigenvalues --   -0.11146  -0.06314  -0.03805  -0.03277   0.00300
 Alpha virt. eigenvalues --    0.01036   0.01130   0.02484   0.03243   0.03936
 Alpha virt. eigenvalues --    0.04532   0.04831   0.05181   0.05331   0.06123

 Mulliken charges:
               1
     1  O   -0.219832
     2  O   -0.244952
     3  O   -0.253087
     4  O   -0.247149
     5  O   -0.227376
     6  O   -0.260246
     7  N   -0.029880
     8  N   -0.103817
     9  N   -0.155775
    10  N   -0.344361
    11  C   -0.061365
    12  C    0.050241
    13  C   -0.182705
    14  C    0.064594
    15  C   -0.088412
    16  C    0.077757
    17  C   -0.046028
    18  C   -0.133737
    19  C   -0.054344
    20  C    0.067602
    21  C    0.148055
    22  C    0.047925
    23  C    0.028407
    24  C    0.122881
    25  C   -0.162285
    26  C    0.053860
    27  C    0.047360
    28  C    0.144573
    29  C    0.142351
    30  C    0.171147
    31  C   -0.113891
    32  C   -0.001203
    33  C   -0.126907
    34  C    0.132216
    35  C   -0.075220
    36  C   -0.167192
    37  C    0.162169
    38  C    0.114963
    39  C    0.097728
    40  C    0.080926
    41  C    0.199302
    42  C    0.042913
    43  C   -0.047391
    44  H    0.105022
    45  H    0.020401
    46  H    0.050616
    47  H    0.051490
    48  H    0.005323
    49  H   -0.021429
    50  H    0.015270
    51  H    0.047781
    52  H    0.113156
    53  H    0.055719
    54  H    0.028918
    55  H    0.010911
    56  H    0.106396
    57  H    0.045001
    58  H   -0.014283
    59  H    0.022970
    60  H   -0.007444
    61  H    0.028231
    62  H   -0.026865
    63  H    0.039086
    64  H   -0.006217
    65  H    0.027300
    66  H    0.041383
    67  H    0.029097
    68  H   -0.097964
    69  H    0.087439
    70  H    0.006473
    71  H    0.012307
    72  H   -0.006291
    73  H   -0.012719
    74  H    0.030094
    75  H    0.023977
    76  H    0.045475
    77  H    0.025637
    78  H    0.008762
    79  H    0.059562
    80  H    0.196977
    81  H    0.202623
 Sum of Mulliken charges =  -0.00000

 Dipole moment (field-independent basis, Debye):
    X=             -2.3331    Y=              1.1782    Z=             -0.8026  Tot=              2.7341
 Quadrupole moment (field-independent basis, Debye-Ang):
   XX=           -254.5472   YY=           -246.7765   ZZ=           -250.8481
   XY=             12.0342   XZ=              9.6610   YZ=            -14.3792

 Normal termination of Gaussian 16 at Fri Jun 28 09:18:29 2019.
