 Gaussian 16, Revision A.03,
 Gaussian 16:  ES64L-G16RevA.03 25-Dec-2016

 --------------------------
 # td=(NStates=1) B3LYP/SVP
 --------------------------

 --
 TD
 --
 Symbolic Z-matrix:
 Charge =  0 Multiplicity = 1

                         Standard orientation:
 ---------------------------------------------------------------------
 Center     Atomic      Atomic             Coordinates (Angstroms)
 Number     Number       Type             X           Y           Z
 ---------------------------------------------------------------------
      1          8           0        4.328449   -4.848059   -1.798759
      2          8           0       -2.697507   -4.838392   -1.321530
      3          8           0       -7.011446   -1.456957   -1.975063
      4          8           0       -3.687803   -3.205596   -0.172453
      5          8           0       -7.549884   -0.852177    0.134302
      6          8           0        2.965880    2.515774    0.466344
      7          7           0        0.253272   -0.501690    0.663930
      8          7           0       -1.524835    1.800973    0.401679
      9          7           0        3.432688   -3.157675   -0.496682
     10          7           0        0.732924    2.925005   -0.018484
     11          6           0       -0.611733   -2.349684    1.399096
     12          6           0       -0.920036   -1.005209    1.032526
     13          6           0        0.732008   -2.637649    1.290752
     14          6           0        1.311381   -1.448770    0.827995
     15          6           0       -3.807338    1.449043    0.375318
     16          6           0       -2.447117    0.896264    0.555038
     17          6           0       -2.276375   -0.401470    1.003137
     18          6           0       -3.561781    2.748508    0.000957
     19          6           0       -1.659087   -3.281380    1.935777
     20          6           0        5.554477   -2.684551   -1.343980
     21          6           0        3.618388   -1.872114   -0.159379
     22          6           0       -2.145055    2.946814   -0.040740
     23          6           0        4.944239   -1.504831   -0.510531
     24          6           0       -5.114704    0.738003    0.520481
     25          6           0        2.629850   -0.988446    0.424241
     26          6           0        1.545479   -3.732640    1.896977
     27          6           0        4.388592   -3.735822   -1.363778
     28          6           0       -1.924574   -4.427068    0.876121
     29          6           0       -5.300488   -0.140382   -0.761068
     30          6           0       -4.543334    3.698023   -0.360167
     31          6           0       -1.386067    4.065553   -0.285985
     32          6           0        6.828783   -3.372107   -0.773634
     33          6           0        5.800911   -0.497489   -0.069717
     34          6           0        0.008252    4.045050   -0.172394
     35          6           0        1.013857    5.108137   -0.534399
     36          6           0        2.202523    4.686244   -0.364202
     37          6           0       -2.843414   -4.069078   -0.270049
     38          6           0        5.360223    0.686145    0.651540
     39          6           0       -6.769263   -0.847944   -0.750568
     40          6           0        3.622301    5.340619   -0.361301
     41          6           0        2.085724    3.177323    0.021638
     42          6           0        0.555209    6.466793   -0.973565
     43          6           0        4.214736    5.478678    0.929619
     44          1           0        0.322656    0.190149    0.149446
     45          1           0       -3.166718   -0.956618    1.162359
     46          1           0       -2.645499   -2.624759    2.132805
     47          1           0       -1.399202   -3.936166    2.744601
     48          1           0        5.758119   -2.366806   -2.355942
     49          1           0       -5.162730   -0.018166    1.407109
     50          1           0       -5.964608    1.388774    0.515106
     51          1           0        2.675085    0.177898    0.721147
     52          1           0       -0.465293    1.887024    0.431258
     53          1           0        1.403476   -4.656129    1.165615
     54          1           0        2.441956   -3.396266    2.172299
     55          1           0        1.079634   -4.009857    3.007602
     56          1           0        2.504019   -3.598354   -0.626720
     57          1           0       -0.902173   -4.917750    0.731936
     58          1           0       -2.542189   -5.263789    1.401973
     59          1           0       -4.630140   -1.111630   -0.911645
     60          1           0       -5.416738    0.439789   -1.605204
     61          1           0       -4.440297    4.673397    0.156346
     62          1           0       -5.548354    3.413758   -0.151234
     63          1           0       -4.495273    3.966562   -1.249092
     64          1           0       -2.033271    5.013738   -0.814996
     65          1           0        7.665980   -2.692773   -1.236502
     66          1           0        7.028550   -4.240169   -1.118483
     67          1           0        6.717598   -3.504418    0.399539
     68          1           0        6.783310   -0.437720   -0.246082
     69          1           0        4.840754    1.367400    0.032109
     70          1           0        6.165127    1.304130    1.102820
     71          1           0        4.671292    0.572738    1.245718
     72          1           0        3.640432    6.398552   -0.875899
     73          1           0        4.291553    4.816401   -0.988759
     74          1           0       -0.250991    6.425477   -1.661246
     75          1           0        1.441835    7.346632   -1.439028
     76          1           0        0.166774    6.917101   -0.041636
     77          1           0        3.649610    6.119542    1.768715
     78          1           0        5.281376    5.956586    0.952968
     79          1           0        4.292868    4.537815    1.419022
     80          1           0       -3.391354   -4.517905   -2.052631
     81          1           0       -8.046428   -1.854578   -1.835771
 ---------------------------------------------------------------------

 SCF Done:  E(RB3LYP) =  -1949.00935784     A.U. after   16 cycles

 Excitation energies and oscillator strengths:

 Excited State   1:      Singlet-A      1.6629 eV  745.58 nm  f=0.3175  <S**2>=0.000
     156 ->157         0.71146
     156 <-157        -0.12635
 This state for optimization and/or second-order correction.
 Total Energy, E(TD-HF/TD-DFT) =  -1948.94824655
 Copying the excited state density for this state as the 1-particle RhoCI density.

 The electronic state is 1-A.
 Alpha  occ. eigenvalues --  -19.20344 -19.18351 -19.13432 -19.13390 -19.12470
 Alpha  occ. eigenvalues --  -19.11371 -14.37314 -14.35921 -14.35465 -14.29102
 Alpha  occ. eigenvalues --  -10.33054 -10.31753 -10.29687 -10.26919 -10.24956
 Alpha  occ. eigenvalues --  -10.23534 -10.23477 -10.22807 -10.22775 -10.22748
 Alpha  occ. eigenvalues --  -10.22153 -10.21452 -10.21209 -10.20976 -10.20776
 Alpha  occ. eigenvalues --  -10.20665 -10.20663 -10.20532 -10.20250 -10.20232
 Alpha  occ. eigenvalues --  -10.20074 -10.20023 -10.19421 -10.19402 -10.19230
 Alpha  occ. eigenvalues --  -10.18826 -10.18811 -10.18749 -10.18741 -10.17569
 Alpha  occ. eigenvalues --  -10.17556 -10.17455 -10.14653  -1.11295  -1.08657
 Alpha  occ. eigenvalues --   -1.05203  -1.03895  -1.01485  -1.00087  -0.99726
 Alpha  occ. eigenvalues --   -0.98922  -0.96685  -0.92772  -0.83253  -0.82598
 Alpha  occ. eigenvalues --   -0.81581  -0.81206  -0.79633  -0.79016  -0.77296
 Alpha  occ. eigenvalues --   -0.77140  -0.76451  -0.75671  -0.74544  -0.72797
 Alpha  occ. eigenvalues --   -0.72411  -0.70668  -0.69016  -0.68579  -0.67452
 Alpha  occ. eigenvalues --   -0.66951  -0.65341  -0.64604  -0.62530  -0.60945
 Alpha  occ. eigenvalues --   -0.60143  -0.59645  -0.58213  -0.57720  -0.57201
 Alpha  occ. eigenvalues --   -0.56375  -0.55661  -0.55308  -0.54738  -0.53581
 Alpha  occ. eigenvalues --   -0.52293  -0.51736  -0.51028  -0.49920  -0.49635
 Alpha  occ. eigenvalues --   -0.48950  -0.48690  -0.48567  -0.47872  -0.47784
 Alpha  occ. eigenvalues --   -0.47194  -0.47014  -0.46580  -0.46025  -0.45753
 Alpha  occ. eigenvalues --   -0.45560  -0.44901  -0.44484  -0.44282  -0.44167
 Alpha  occ. eigenvalues --   -0.43884  -0.43501  -0.43286  -0.43201  -0.42676
 Alpha  occ. eigenvalues --   -0.42436  -0.42143  -0.41661  -0.41508  -0.41323
 Alpha  occ. eigenvalues --   -0.41234  -0.40867  -0.40352  -0.39551  -0.39316
 Alpha  occ. eigenvalues --   -0.39172  -0.38746  -0.38512  -0.38278  -0.37890
 Alpha  occ. eigenvalues --   -0.37788  -0.37688  -0.37263  -0.36939  -0.36724
 Alpha  occ. eigenvalues --   -0.36532  -0.36290  -0.36151  -0.35900  -0.35168
 Alpha  occ. eigenvalues --   -0.35042  -0.34200  -0.34074  -0.33519  -0.33256
 Alpha  occ. eigenvalues --   -0.32790  -0.32447  -0.31177  -0.29831  -0.29239
 Alpha  occ. eigenvalues --   -0.28208  -0.27986  -0.27013  -0.26341  -0.25484
 Alpha  occ. eigenvalues --   -0.25367  -0.24968  -0.24081  -0.23654  -0.21384
 Alpha  occ. eigenvalues --   -0.16982
 Alpha virt. eigenvalues --   -0.10315  -0.05370  -0.03910  -0.00581  -0.00415
 Alpha virt. eigenvalues --    0.01373   0.01552   0.01937   0.02831   0.03268
 Alpha virt. eigenvalues --    0.03567   0.04569   0.04860   0.05280   0.05987

 Mulliken charges:
               1
     1  O   -0.178271
     2  O   -0.184358
     3  O   -0.286327
     4  O   -0.237261
     5  O   -0.195912
     6  O   -0.184071
     7  N    0.041100
     8  N   -0.038997
     9  N   -0.109821
    10  N   -0.318537
    11  C   -0.104300
    12  C    0.032205
    13  C   -0.172740
    14  C    0.025561
    15  C   -0.076669
    16  C    0.052365
    17  C   -0.041290
    18  C   -0.129335
    19  C    0.106260
    20  C   -0.099907
    21  C    0.100833
    22  C    0.064469
    23  C   -0.017387
    24  C    0.116831
    25  C   -0.149485
    26  C    0.085203
    27  C    0.117774
    28  C   -0.066986
    29  C   -0.049262
    30  C    0.246694
    31  C   -0.176889
    32  C    0.097906
    33  C   -0.077725
    34  C    0.099270
    35  C   -0.081553
    36  C   -0.185953
    37  C    0.139373
    38  C    0.204567
    39  C    0.130935
    40  C    0.141494
    41  C    0.155408
    42  C    0.052145
    43  C   -0.046270
    44  H    0.029021
    45  H   -0.015428
    46  H    0.037292
    47  H   -0.013633
    48  H    0.027244
    49  H    0.046188
    50  H   -0.001210
    51  H    0.085539
    52  H    0.151217
    53  H    0.047979
    54  H   -0.001116
    55  H    0.031901
    56  H    0.141280
    57  H    0.035380
    58  H    0.051167
    59  H    0.099648
    60  H    0.007859
    61  H   -0.001027
    62  H   -0.014135
    63  H   -0.058852
    64  H    0.029472
    65  H    0.027620
    66  H   -0.029431
    67  H    0.037885
    68  H   -0.052288
    69  H    0.027813
    70  H   -0.004010
    71  H   -0.071406
    72  H   -0.007490
    73  H   -0.011389
    74  H    0.011004
    75  H    0.042117
    76  H    0.024688
    77  H    0.008265
    78  H    0.014557
    79  H    0.013541
    80  H    0.224391
    81  H    0.227260
 Sum of Mulliken charges =  -0.00000

 Dipole moment (field-independent basis, Debye):
    X=             -2.4718    Y=              0.1164    Z=             -1.5957  Tot=              2.9445
 Quadrupole moment (field-independent basis, Debye-Ang):
   XX=           -243.3388   YY=           -247.1115   ZZ=           -254.0088
   XY=              7.0475   XZ=             12.8903   YZ=             -9.7788

 Normal termination of Gaussian 16 at Mon Jul  1 20:50:29 2019.
