 Gaussian 16, Revision A.03,
 Gaussian 16:  ES64L-G16RevA.03 25-Dec-2016

 --------------------------
 # td=(NStates=1) B3LYP/SVP
 --------------------------

 --
 TD
 --
 Symbolic Z-matrix:
 Charge =  0 Multiplicity = 1

                         Standard orientation:
 ---------------------------------------------------------------------
 Center     Atomic      Atomic             Coordinates (Angstroms)
 Number     Number       Type             X           Y           Z
 ---------------------------------------------------------------------
      1          8           0        4.381228   -4.900254   -1.857014
      2          8           0       -2.960044   -4.738786   -1.073229
      3          8           0       -7.052761   -1.414760   -1.904525
      4          8           0       -3.937575   -3.082295    0.145583
      5          8           0       -7.320100   -0.837301    0.342941
      6          8           0        3.049975    2.363995    0.479775
      7          7           0        0.146371   -0.575871    0.391584
      8          7           0       -1.531919    1.855434    0.279359
      9          7           0        3.203843   -3.197175   -0.762993
     10          7           0        0.835098    2.883811    0.105610
     11          6           0       -0.739128   -2.371142    1.330753
     12          6           0       -0.967589   -1.080031    0.818057
     13          6           0        0.672956   -2.589637    1.215021
     14          6           0        1.257451   -1.471098    0.566628
     15          6           0       -3.805989    1.620852    0.241429
     16          6           0       -2.549965    0.931968    0.533149
     17          6           0       -2.297686   -0.370578    0.847083
     18          6           0       -3.508919    2.868728   -0.189328
     19          6           0       -1.616787   -3.284718    2.057224
     20          6           0        5.488871   -2.860118   -1.422573
     21          6           0        3.530191   -1.916649   -0.329573
     22          6           0       -2.050493    3.015554   -0.140933
     23          6           0        4.919401   -1.692519   -0.495919
     24          6           0       -5.192465    0.970181    0.277083
     25          6           0        2.605290   -1.093489    0.203009
     26          6           0        1.446911   -3.737186    1.878222
     27          6           0        4.350754   -3.726337   -1.423452
     28          6           0       -2.202573   -4.413750    1.231585
     29          6           0       -5.363496    0.016676   -0.908510
     30          6           0       -4.421547    3.967003   -0.714384
     31          6           0       -1.201705    4.111792   -0.399093
     32          6           0        6.781727   -3.456027   -0.891922
     33          6           0        5.741186   -0.642824   -0.039627
     34          6           0        0.227315    4.039028   -0.301804
     35          6           0        1.135249    5.084701   -0.473965
     36          6           0        2.334904    4.602949   -0.147651
     37          6           0       -3.110210   -3.974683    0.097010
     38          6           0        5.508903    0.434560    0.832255
     39          6           0       -6.733186   -0.766042   -0.672029
     40          6           0        3.768283    5.234028   -0.196733
     41          6           0        2.169400    3.189054    0.178441
     42          6           0        0.782618    6.525189   -0.757012
     43          6           0        4.296755    5.479906    1.196463
     44          1           0        0.204804    0.217713   -0.160529
     45          1           0       -3.208000   -1.068427    1.048374
     46          1           0       -2.453448   -2.683476    2.743169
     47          1           0       -1.359444   -3.796008    3.013795
     48          1           0        5.693073   -2.340115   -2.410435
     49          1           0       -4.964572    0.165264    1.014262
     50          1           0       -5.942409    1.577512    0.348546
     51          1           0        2.539946   -0.079106    0.575051
     52          1           0       -0.449906    1.728535    0.322767
     53          1           0        1.346308   -4.695905    1.391371
     54          1           0        2.504630   -3.297011    1.956617
     55          1           0        1.231363   -4.183426    2.821802
     56          1           0        2.198312   -3.409113   -0.948930
     57          1           0       -1.231368   -5.003723    0.650555
     58          1           0       -2.849359   -5.146182    1.755915
     59          1           0       -4.566319   -0.690510   -1.133131
     60          1           0       -5.337055    0.548677   -1.756217
     61          1           0       -4.307492    4.850793   -0.127820
     62          1           0       -5.477985    3.820136   -0.511710
     63          1           0       -4.131537    4.368994   -1.787004
     64          1           0       -1.559316    5.140932   -0.811139
     65          1           0        7.609308   -2.728292   -0.940432
     66          1           0        6.982979   -4.426507   -1.568982
     67          1           0        6.558407   -3.702021    0.227637
     68          1           0        6.952839   -0.848405   -0.077617
     69          1           0        4.915859    1.183225    0.447090
     70          1           0        6.382963    0.958963    1.371637
     71          1           0        4.925851    0.251006    1.779398
     72          1           0        3.677511    6.236541   -0.840193
     73          1           0        4.781826    4.497758   -0.718249
     74          1           0       -0.088435    6.608691   -1.387395
     75          1           0        1.642727    7.136542   -0.685998
     76          1           0        0.400964    7.082582    0.176799
     77          1           0        3.686338    6.145909    1.817926
     78          1           0        5.325456    6.013610    1.078419
     79          1           0        4.366316    4.429979    1.732722
     80          1           0       -3.616573   -4.419724   -1.766370
     81          1           0       -7.782692   -2.205663   -1.798287
 ---------------------------------------------------------------------

 SCF Done:  E(RB3LYP) =  -1949.07221572     A.U. after   18 cycles

 Excitation energies and oscillator strengths:

 Excited State   1:      Singlet-A      1.7075 eV  726.13 nm  f=0.2291  <S**2>=0.000
     156 ->157         0.70516
 This state for optimization and/or second-order correction.
 Total Energy, E(TD-HF/TD-DFT) =  -1949.00946777
 Copying the excited state density for this state as the 1-particle RhoCI density.

 The electronic state is 1-A.
 Alpha  occ. eigenvalues --  -19.18567 -19.17714 -19.14511 -19.14353 -19.10257
 Alpha  occ. eigenvalues --  -19.10072 -14.37682 -14.36855 -14.36538 -14.28581
 Alpha  occ. eigenvalues --  -10.33413 -10.32720 -10.28970 -10.25790 -10.24956
 Alpha  occ. eigenvalues --  -10.23950 -10.23637 -10.23576 -10.23427 -10.23158
 Alpha  occ. eigenvalues --  -10.22816 -10.22494 -10.22035 -10.21927 -10.21280
 Alpha  occ. eigenvalues --  -10.21059 -10.20868 -10.20826 -10.20810 -10.20257
 Alpha  occ. eigenvalues --  -10.20198 -10.20101 -10.19950 -10.19879 -10.19730
 Alpha  occ. eigenvalues --  -10.19702 -10.19665 -10.19294 -10.18991 -10.18984
 Alpha  occ. eigenvalues --  -10.18852 -10.18177 -10.16710  -1.08618  -1.08432
 Alpha  occ. eigenvalues --   -1.01526  -1.00473  -1.00397  -0.99826  -0.99622
 Alpha  occ. eigenvalues --   -0.98519  -0.94502  -0.92646  -0.83071  -0.82333
 Alpha  occ. eigenvalues --   -0.81307  -0.81028  -0.79731  -0.79164  -0.77804
 Alpha  occ. eigenvalues --   -0.77444  -0.76501  -0.75503  -0.74119  -0.72321
 Alpha  occ. eigenvalues --   -0.71390  -0.70128  -0.69775  -0.68598  -0.68013
 Alpha  occ. eigenvalues --   -0.67251  -0.65956  -0.64429  -0.61908  -0.60590
 Alpha  occ. eigenvalues --   -0.59881  -0.58884  -0.58114  -0.57945  -0.57067
 Alpha  occ. eigenvalues --   -0.56528  -0.55996  -0.55416  -0.54327  -0.53065
 Alpha  occ. eigenvalues --   -0.52680  -0.52024  -0.50928  -0.50399  -0.50015
 Alpha  occ. eigenvalues --   -0.49664  -0.49429  -0.48324  -0.47767  -0.47662
 Alpha  occ. eigenvalues --   -0.47201  -0.46718  -0.46308  -0.45534  -0.45237
 Alpha  occ. eigenvalues --   -0.44983  -0.44510  -0.44246  -0.44132  -0.43691
 Alpha  occ. eigenvalues --   -0.43401  -0.43327  -0.42945  -0.42448  -0.42105
 Alpha  occ. eigenvalues --   -0.41790  -0.41455  -0.41243  -0.41008  -0.40594
 Alpha  occ. eigenvalues --   -0.40449  -0.40262  -0.40109  -0.39663  -0.39416
 Alpha  occ. eigenvalues --   -0.39282  -0.39107  -0.38758  -0.38441  -0.38134
 Alpha  occ. eigenvalues --   -0.38008  -0.37761  -0.37254  -0.37033  -0.36491
 Alpha  occ. eigenvalues --   -0.36431  -0.35791  -0.34948  -0.34622  -0.34435
 Alpha  occ. eigenvalues --   -0.33393  -0.33061  -0.32754  -0.32654  -0.32574
 Alpha  occ. eigenvalues --   -0.31952  -0.31510  -0.31312  -0.29786  -0.29302
 Alpha  occ. eigenvalues --   -0.29011  -0.27876  -0.26224  -0.25881  -0.25501
 Alpha  occ. eigenvalues --   -0.25130  -0.24607  -0.24259  -0.23514  -0.21444
 Alpha  occ. eigenvalues --   -0.18189
 Alpha virt. eigenvalues --   -0.10974  -0.06252  -0.04645  -0.01657  -0.01433
 Alpha virt. eigenvalues --   -0.00020   0.01839   0.02389   0.02953   0.03213
 Alpha virt. eigenvalues --    0.03853   0.04226   0.04409   0.04806   0.05294

 Mulliken charges:
               1
     1  O   -0.242905
     2  O   -0.242607
     3  O   -0.313414
     4  O   -0.228304
     5  O   -0.161580
     6  O   -0.227995
     7  N    0.009264
     8  N   -0.116443
     9  N   -0.125225
    10  N   -0.301190
    11  C   -0.043522
    12  C   -0.026654
    13  C   -0.138757
    14  C   -0.031948
    15  C   -0.115280
    16  C    0.115530
    17  C   -0.103220
    18  C   -0.121448
    19  C    0.018289
    20  C   -0.034193
    21  C    0.192245
    22  C    0.111991
    23  C   -0.064737
    24  C    0.235076
    25  C   -0.146410
    26  C    0.091484
    27  C    0.141933
    28  C   -0.028219
    29  C    0.004919
    30  C    0.118961
    31  C   -0.145922
    32  C    0.001316
    33  C   -0.129033
    34  C    0.070142
    35  C   -0.107129
    36  C   -0.127185
    37  C    0.149947
    38  C    0.057396
    39  C    0.189468
    40  C   -0.044747
    41  C    0.144279
    42  C    0.157284
    43  C   -0.033322
    44  H    0.097089
    45  H    0.059265
    46  H    0.024679
    47  H    0.010055
    48  H    0.065952
    49  H    0.021207
    50  H   -0.048363
    51  H    0.018961
    52  H    0.165315
    53  H    0.000833
    54  H    0.048053
    55  H   -0.007557
    56  H    0.156096
    57  H    0.067540
    58  H    0.051122
    59  H    0.039004
    60  H   -0.021282
    61  H    0.001210
    62  H    0.004100
    63  H    0.044044
    64  H   -0.010893
    65  H    0.030446
    66  H    0.058924
    67  H    0.034004
    68  H    0.026461
    69  H    0.029511
    70  H    0.006730
    71  H    0.019275
    72  H    0.022262
    73  H    0.050449
    74  H    0.020821
    75  H   -0.013523
    76  H    0.012725
    77  H    0.007052
    78  H    0.022869
    79  H    0.055051
    80  H    0.200723
    81  H    0.221654
 Sum of Mulliken charges =  -0.00000

 Dipole moment (field-independent basis, Debye):
    X=             -3.8722    Y=              2.2488    Z=             -0.5957  Tot=              4.5173
 Quadrupole moment (field-independent basis, Debye-Ang):
   XX=           -250.1705   YY=           -240.9592   ZZ=           -254.8396
   XY=             16.4338   XZ=             14.4446   YZ=            -12.2010

 Normal termination of Gaussian 16 at Sun Jun 30 00:21:40 2019.
