 Gaussian 16, Revision A.03,
 Gaussian 16:  ES64L-G16RevA.03 25-Dec-2016

 --------------------------
 # td=(NStates=1) B3LYP/SVP
 --------------------------

 --
 TD
 --
 Symbolic Z-matrix:
 Charge =  0 Multiplicity = 1

                         Standard orientation:
 ---------------------------------------------------------------------
 Center     Atomic      Atomic             Coordinates (Angstroms)
 Number     Number       Type             X           Y           Z
 ---------------------------------------------------------------------
      1          8           0        4.188237   -4.870445   -1.794323
      2          8           0       -3.166641   -4.895959   -1.166944
      3          8           0       -6.996582   -1.602047   -1.703279
      4          8           0       -3.760493   -3.200456    0.157157
      5          8           0       -7.727599   -0.255985   -0.024029
      6          8           0        3.065680    2.438440    0.458064
      7          7           0        0.343464   -0.468354    0.571788
      8          7           0       -1.533478    1.708910    0.177958
      9          7           0        3.306350   -3.220606   -0.501437
     10          7           0        0.806165    2.943423    0.114544
     11          6           0       -0.531693   -2.425700    1.377702
     12          6           0       -0.841347   -1.125476    0.971471
     13          6           0        0.865282   -2.600869    1.244632
     14          6           0        1.411147   -1.333067    0.846687
     15          6           0       -3.811589    1.518727    0.277617
     16          6           0       -2.438199    0.784500    0.469136
     17          6           0       -2.250835   -0.537024    0.962560
     18          6           0       -3.498693    2.763685   -0.098111
     19          6           0       -1.472574   -3.460027    1.911133
     20          6           0        5.445708   -2.897404   -1.362382
     21          6           0        3.634767   -1.890372   -0.220228
     22          6           0       -2.122415    2.988390   -0.193824
     23          6           0        4.999888   -1.622695   -0.662084
     24          6           0       -5.054602    0.752955    0.434163
     25          6           0        2.742321   -0.962050    0.421860
     26          6           0        1.539015   -3.686304    1.898816
     27          6           0        4.311299   -3.856224   -1.218405
     28          6           0       -1.931912   -4.606820    0.906973
     29          6           0       -5.427856   -0.070623   -0.778306
     30          6           0       -4.549733    3.837662   -0.438387
     31          6           0       -1.249096    4.014182   -0.480662
     32          6           0        6.730842   -3.557428   -0.813738
     33          6           0        5.753678   -0.552694   -0.405947
     34          6           0        0.195296    3.936703   -0.237089
     35          6           0        1.005793    5.159568   -0.398300
     36          6           0        2.247307    4.778818   -0.146715
     37          6           0       -3.046804   -4.160081   -0.029895
     38          6           0        5.477676    0.698042    0.459520
     39          6           0       -6.877260   -0.597553   -0.758243
     40          6           0        3.518850    5.599671   -0.182712
     41          6           0        2.195149    3.253363    0.223088
     42          6           0        0.637843    6.545436   -0.922794
     43          6           0        4.183583    5.578883    1.202003
     44          1           0        0.499725    0.336533    0.052840
     45          1           0       -2.931778   -1.295105    1.000291
     46          1           0       -2.356736   -2.968443    2.123851
     47          1           0       -1.026392   -3.869358    2.679857
     48          1           0        5.617655   -2.680090   -2.390776
     49          1           0       -5.076070   -0.172599    1.114236
     50          1           0       -5.883360    1.539763    0.525855
     51          1           0        2.936249    0.173132    0.198080
     52          1           0       -0.523487    1.676915    0.631220
     53          1           0        1.426474   -4.467297    1.189586
     54          1           0        2.551839   -3.548785    2.265134
     55          1           0        0.879293   -4.138240    2.729086
     56          1           0        2.396501   -3.349367   -0.546349
     57          1           0       -0.975171   -4.949572    0.455122
     58          1           0       -2.254081   -5.368243    1.637486
     59          1           0       -4.835181   -0.964605   -0.693926
     60          1           0       -5.055537    0.279375   -1.807915
     61          1           0       -4.335881    4.805024    0.137939
     62          1           0       -5.702587    3.466342   -0.297299
     63          1           0       -4.394488    4.011510   -1.590327
     64          1           0       -1.770339    5.096837   -0.919180
     65          1           0        7.454586   -2.619340   -0.796207
     66          1           0        7.181223   -4.213621   -1.489719
     67          1           0        6.433311   -3.807621    0.044054
     68          1           0        6.710642   -0.676092   -1.042612
     69          1           0        4.963512    1.626393    0.019706
     70          1           0        6.528441    1.238791    0.575128
     71          1           0        4.880450    0.487404    1.237990
     72          1           0        3.375811    6.603416   -0.425944
     73          1           0        4.181899    5.065361   -0.837230
     74          1           0        0.053375    6.517992   -1.845801
     75          1           0        1.530968    7.140846   -0.944726
     76          1           0        0.165894    7.236962   -0.041500
     77          1           0        3.546747    6.306298    1.879745
     78          1           0        5.294350    6.091616    1.117153
     79          1           0        4.460755    4.425530    1.471162
     80          1           0       -3.999673   -4.449726   -1.448618
     81          1           0       -7.972284   -1.848958   -1.477751
 ---------------------------------------------------------------------

 SCF Done:  E(RB3LYP) =  -1949.06047108     A.U. after   16 cycles

 Excitation energies and oscillator strengths:

 Excited State   1:      Singlet-A      1.5006 eV  826.22 nm  f=0.2341  <S**2>=0.000
     156 ->157         0.71067
     156 <-157        -0.12413
 This state for optimization and/or second-order correction.
 Total Energy, E(TD-HF/TD-DFT) =  -1949.00532431
 Copying the excited state density for this state as the 1-particle RhoCI density.

 The electronic state is 1-A.
 Alpha  occ. eigenvalues --  -19.20011 -19.18665 -19.15348 -19.14268 -19.13407
 Alpha  occ. eigenvalues --  -19.10908 -14.36634 -14.35820 -14.35509 -14.29808
 Alpha  occ. eigenvalues --  -10.34363 -10.32445 -10.29213 -10.28464 -10.24423
 Alpha  occ. eigenvalues --  -10.23701 -10.23443 -10.23434 -10.22793 -10.22485
 Alpha  occ. eigenvalues --  -10.22308 -10.22105 -10.20919 -10.20888 -10.20847
 Alpha  occ. eigenvalues --  -10.20822 -10.20806 -10.20416 -10.20379 -10.20278
 Alpha  occ. eigenvalues --  -10.19945 -10.19720 -10.19444 -10.19323 -10.19143
 Alpha  occ. eigenvalues --  -10.19007 -10.18941 -10.18876 -10.18677 -10.18403
 Alpha  occ. eigenvalues --  -10.18231 -10.18145 -10.17734  -1.12234  -1.10384
 Alpha  occ. eigenvalues --   -1.05626  -1.04146  -1.02550  -1.01846  -0.97400
 Alpha  occ. eigenvalues --   -0.96369  -0.95817  -0.95532  -0.82836  -0.82386
 Alpha  occ. eigenvalues --   -0.82230  -0.81263  -0.80387  -0.78660  -0.77458
 Alpha  occ. eigenvalues --   -0.76931  -0.75942  -0.75309  -0.73039  -0.71787
 Alpha  occ. eigenvalues --   -0.70136  -0.69937  -0.69252  -0.68932  -0.67288
 Alpha  occ. eigenvalues --   -0.66787  -0.65466  -0.64924  -0.61213  -0.60825
 Alpha  occ. eigenvalues --   -0.60139  -0.59685  -0.58495  -0.57865  -0.56682
 Alpha  occ. eigenvalues --   -0.55399  -0.54802  -0.54475  -0.53445  -0.52846
 Alpha  occ. eigenvalues --   -0.52727  -0.52144  -0.51357  -0.50630  -0.50401
 Alpha  occ. eigenvalues --   -0.49803  -0.49542  -0.49196  -0.48986  -0.48828
 Alpha  occ. eigenvalues --   -0.47911  -0.47259  -0.46719  -0.46248  -0.45716
 Alpha  occ. eigenvalues --   -0.45163  -0.44985  -0.44730  -0.44472  -0.44191
 Alpha  occ. eigenvalues --   -0.43979  -0.43879  -0.43638  -0.43223  -0.43095
 Alpha  occ. eigenvalues --   -0.42803  -0.41911  -0.41862  -0.41294  -0.40973
 Alpha  occ. eigenvalues --   -0.40643  -0.40384  -0.40104  -0.39650  -0.39343
 Alpha  occ. eigenvalues --   -0.39318  -0.38888  -0.38795  -0.38474  -0.37686
 Alpha  occ. eigenvalues --   -0.37591  -0.37438  -0.37146  -0.36854  -0.36656
 Alpha  occ. eigenvalues --   -0.36438  -0.35539  -0.35439  -0.35333  -0.34950
 Alpha  occ. eigenvalues --   -0.34839  -0.34502  -0.34186  -0.33499  -0.33398
 Alpha  occ. eigenvalues --   -0.33347  -0.32775  -0.32411  -0.30962  -0.29811
 Alpha  occ. eigenvalues --   -0.29551  -0.29064  -0.26632  -0.26041  -0.25858
 Alpha  occ. eigenvalues --   -0.25508  -0.25332  -0.24425  -0.24154  -0.21224
 Alpha  occ. eigenvalues --   -0.16655
 Alpha virt. eigenvalues --   -0.10506  -0.05668  -0.04079  -0.02380   0.00305
 Alpha virt. eigenvalues --    0.00335   0.02494   0.03205   0.03638   0.04103
 Alpha virt. eigenvalues --    0.04246   0.04728   0.05145   0.05653   0.06126

 Mulliken charges:
               1
     1  O   -0.157231
     2  O   -0.170725
     3  O   -0.233964
     4  O   -0.230428
     5  O   -0.179467
     6  O   -0.175944
     7  N   -0.099620
     8  N   -0.174620
     9  N   -0.045123
    10  N   -0.182202
    11  C   -0.137320
    12  C    0.019385
    13  C   -0.204372
    14  C    0.043018
    15  C   -0.065522
    16  C    0.046513
    17  C    0.015966
    18  C   -0.093336
    19  C    0.216840
    20  C   -0.073974
    21  C   -0.004435
    22  C    0.145913
    23  C    0.000088
    24  C    0.083807
    25  C   -0.108341
    26  C    0.141949
    27  C    0.100508
    28  C   -0.000644
    29  C   -0.041496
    30  C   -0.002907
    31  C   -0.189824
    32  C    0.162359
    33  C   -0.171145
    34  C    0.014174
    35  C   -0.130393
    36  C   -0.203681
    37  C    0.166445
    38  C    0.077978
    39  C    0.138938
    40  C    0.170862
    41  C    0.180342
    42  C    0.107886
    43  C   -0.133383
    44  H    0.109649
    45  H   -0.032212
    46  H   -0.022485
    47  H   -0.063904
    48  H    0.021899
    49  H    0.039831
    50  H    0.026972
    51  H    0.055847
    52  H    0.191488
    53  H   -0.014876
    54  H    0.032994
    55  H    0.005049
    56  H    0.082850
    57  H    0.040585
    58  H    0.048273
    59  H    0.025012
    60  H    0.043247
    61  H    0.046821
    62  H    0.048419
    63  H    0.042738
    64  H    0.029194
    65  H    0.008043
    66  H    0.016815
    67  H   -0.037653
    68  H    0.004429
    69  H    0.060579
    70  H    0.015291
    71  H    0.007652
    72  H   -0.018138
    73  H    0.003538
    74  H    0.045606
    75  H   -0.014210
    76  H    0.026658
    77  H    0.038117
    78  H    0.020862
    79  H    0.071399
    80  H    0.180262
    81  H    0.190485
 Sum of Mulliken charges =  -0.00000

 Dipole moment (field-independent basis, Debye):
    X=             -2.1624    Y=              1.8380    Z=             -0.7948  Tot=              2.9472
 Quadrupole moment (field-independent basis, Debye-Ang):
   XX=           -251.3316   YY=           -235.6727   ZZ=           -258.2436
   XY=             19.9750   XZ=              6.5652   YZ=            -16.8285

 Normal termination of Gaussian 16 at Sun Jun 30 06:03:45 2019.
