 Gaussian 16, Revision A.03,
 Gaussian 16:  ES64L-G16RevA.03 25-Dec-2016

 --------------------------
 # td=(NStates=1) B3LYP/SVP
 --------------------------

 --
 TD
 --
 Symbolic Z-matrix:
 Charge =  0 Multiplicity = 1

                         Standard orientation:
 ---------------------------------------------------------------------
 Center     Atomic      Atomic             Coordinates (Angstroms)
 Number     Number       Type             X           Y           Z
 ---------------------------------------------------------------------
      1          8           0        4.379754   -4.954697   -1.618029
      2          8           0       -2.947256   -4.985207   -1.142234
      3          8           0       -6.963624   -1.490521   -1.866696
      4          8           0       -3.631539   -3.139046   -0.088256
      5          8           0       -7.400294   -0.733365    0.250249
      6          8           0        3.014237    2.453603    0.418870
      7          7           0        0.198580   -0.552593    0.525937
      8          7           0       -1.552705    1.846505    0.369953
      9          7           0        3.382859   -3.176647   -0.569596
     10          7           0        0.708332    2.917540    0.100318
     11          6           0       -0.691552   -2.471508    1.311260
     12          6           0       -0.957984   -1.198101    0.878398
     13          6           0        0.723387   -2.599880    1.199617
     14          6           0        1.244206   -1.491516    0.610321
     15          6           0       -3.773876    1.550779    0.244087
     16          6           0       -2.507825    0.912315    0.605856
     17          6           0       -2.284184   -0.486537    0.930067
     18          6           0       -3.549905    2.870129   -0.053138
     19          6           0       -1.629196   -3.374142    1.948433
     20          6           0        5.658363   -2.822936   -1.277925
     21          6           0        3.688211   -1.866537   -0.150165
     22          6           0       -2.068527    3.060546   -0.004217
     23          6           0        5.006556   -1.572489   -0.460013
     24          6           0       -5.012496    0.730016    0.403492
     25          6           0        2.610808   -0.985427    0.223604
     26          6           0        1.350684   -3.894078    1.559942
     27          6           0        4.499281   -3.825575   -1.220694
     28          6           0       -2.025446   -4.544590    1.023754
     29          6           0       -5.251087   -0.153404   -0.899546
     30          6           0       -4.607677    3.897351   -0.365899
     31          6           0       -1.344660    4.136975   -0.390779
     32          6           0        6.793558   -3.428610   -0.587755
     33          6           0        5.791234   -0.510319   -0.261755
     34          6           0        0.103895    4.075191   -0.274422
     35          6           0        1.048342    5.169756   -0.481358
     36          6           0        2.276458    4.679441   -0.191934
     37          6           0       -2.879167   -4.102816   -0.133123
     38          6           0        5.433782    0.749535    0.491147
     39          6           0       -6.636683   -0.883838   -0.710207
     40          6           0        3.577336    5.499112   -0.217410
     41          6           0        2.039471    3.269682    0.150887
     42          6           0        0.663082    6.568250   -1.058746
     43          6           0        4.067223    5.843936    1.206236
     44          1           0        0.263656    0.392820    0.062708
     45          1           0       -3.187035   -1.158611    0.895329
     46          1           0       -2.786009   -3.035425    2.179724
     47          1           0       -1.361593   -3.738239    2.913469
     48          1           0        5.962480   -2.560753   -2.232502
     49          1           0       -5.159001    0.203302    1.422204
     50          1           0       -5.871814    1.402555    0.518944
     51          1           0        2.763013   -0.040611    0.518437
     52          1           0       -0.498854    1.832853    0.194201
     53          1           0        1.293425   -4.684573    0.734923
     54          1           0        2.534911   -3.703020    1.618197
     55          1           0        0.900206   -4.182967    2.783498
     56          1           0        2.515542   -3.741696   -0.532803
     57          1           0       -1.184918   -5.082636    0.495795
     58          1           0       -2.710963   -5.164794    1.676193
     59          1           0       -4.537141   -0.906589   -0.914261
     60          1           0       -5.173092    0.342432   -1.954398
     61          1           0       -4.678358    4.623226    0.482899
     62          1           0       -5.679334    3.501177   -0.205135
     63          1           0       -4.439595    4.244753   -1.475289
     64          1           0       -2.014620    5.019349   -0.609374
     65          1           0        7.679092   -2.709639   -0.368087
     66          1           0        7.004350   -4.365865   -1.060278
     67          1           0        6.568061   -3.640243    0.544542
     68          1           0        6.880434   -0.597897   -0.665497
     69          1           0        4.648567    1.568400    0.014706
     70          1           0        6.160918    1.441059    0.964706
     71          1           0        4.821687    0.406135    1.304170
     72          1           0        3.520598    6.267210   -0.900357
     73          1           0        4.248917    4.734339   -0.678226
     74          1           0        0.292617    6.550798   -2.220871
     75          1           0        1.419490    7.261317   -0.891007
     76          1           0       -0.084723    7.054185   -0.276106
     77          1           0        3.513129    6.725519    1.518697
     78          1           0        5.103314    6.039205    1.020938
     79          1           0        3.920557    4.986674    1.994503
     80          1           0       -3.666327   -4.692263   -1.826844
     81          1           0       -7.884949   -1.845511   -1.953351
 ---------------------------------------------------------------------

 SCF Done:  E(RB3LYP) =  -1949.12393115     A.U. after   16 cycles

 Excitation energies and oscillator strengths:

 Excited State   1:      Singlet-A      1.5191 eV  816.18 nm  f=0.1925  <S**2>=0.000
     155 ->157         0.11045
     156 ->157         0.70307
     156 <-157        -0.10482
 This state for optimization and/or second-order correction.
 Total Energy, E(TD-HF/TD-DFT) =  -1949.06810571
 Copying the excited state density for this state as the 1-particle RhoCI density.

 The electronic state is 1-A.
 Alpha  occ. eigenvalues --  -19.19914 -19.18642 -19.13575 -19.12661 -19.11411
 Alpha  occ. eigenvalues --  -19.10196 -14.36843 -14.36032 -14.35395 -14.30250
 Alpha  occ. eigenvalues --  -10.33101 -10.32529 -10.29135 -10.27167 -10.24213
 Alpha  occ. eigenvalues --  -10.23966 -10.23776 -10.23364 -10.22667 -10.22518
 Alpha  occ. eigenvalues --  -10.22150 -10.21985 -10.21944 -10.21349 -10.21309
 Alpha  occ. eigenvalues --  -10.21032 -10.20951 -10.20326 -10.20322 -10.20247
 Alpha  occ. eigenvalues --  -10.20245 -10.20066 -10.20038 -10.19702 -10.19290
 Alpha  occ. eigenvalues --  -10.19162 -10.19084 -10.18965 -10.18601 -10.18470
 Alpha  occ. eigenvalues --  -10.18443 -10.18239 -10.16915  -1.10316  -1.08583
 Alpha  occ. eigenvalues --   -1.03882  -1.00813  -0.99602  -0.98883  -0.97874
 Alpha  occ. eigenvalues --   -0.97036  -0.93440  -0.92138  -0.82532  -0.81563
 Alpha  occ. eigenvalues --   -0.81416  -0.80315  -0.79764  -0.78368  -0.77457
 Alpha  occ. eigenvalues --   -0.76215  -0.76123  -0.74949  -0.72958  -0.71730
 Alpha  occ. eigenvalues --   -0.70276  -0.69442  -0.68843  -0.68231  -0.67336
 Alpha  occ. eigenvalues --   -0.66592  -0.64991  -0.63561  -0.62479  -0.61864
 Alpha  occ. eigenvalues --   -0.60770  -0.60678  -0.58922  -0.57040  -0.56498
 Alpha  occ. eigenvalues --   -0.55397  -0.55305  -0.54339  -0.53216  -0.52885
 Alpha  occ. eigenvalues --   -0.52235  -0.50900  -0.50011  -0.49686  -0.49360
 Alpha  occ. eigenvalues --   -0.49094  -0.48347  -0.47932  -0.47293  -0.47260
 Alpha  occ. eigenvalues --   -0.46869  -0.46173  -0.45427  -0.45282  -0.45068
 Alpha  occ. eigenvalues --   -0.44649  -0.44424  -0.44001  -0.43680  -0.43665
 Alpha  occ. eigenvalues --   -0.43408  -0.42829  -0.42659  -0.42441  -0.42263
 Alpha  occ. eigenvalues --   -0.41972  -0.41244  -0.41156  -0.40989  -0.40607
 Alpha  occ. eigenvalues --   -0.40301  -0.39821  -0.39654  -0.39353  -0.39171
 Alpha  occ. eigenvalues --   -0.38915  -0.38501  -0.38126  -0.38036  -0.37978
 Alpha  occ. eigenvalues --   -0.37728  -0.37356  -0.37064  -0.36612  -0.35841
 Alpha  occ. eigenvalues --   -0.35341  -0.35311  -0.35002  -0.34845  -0.34189
 Alpha  occ. eigenvalues --   -0.33869  -0.33241  -0.33126  -0.32921  -0.32604
 Alpha  occ. eigenvalues --   -0.32272  -0.32077  -0.31415  -0.29042  -0.28879
 Alpha  occ. eigenvalues --   -0.28775  -0.28010  -0.26025  -0.25838  -0.25430
 Alpha  occ. eigenvalues --   -0.25182  -0.24564  -0.24497  -0.23902  -0.21103
 Alpha  occ. eigenvalues --   -0.17458
 Alpha virt. eigenvalues --   -0.10986  -0.05927  -0.04431  -0.01653  -0.00409
 Alpha virt. eigenvalues --    0.00508   0.02366   0.02541   0.03115   0.03927
 Alpha virt. eigenvalues --    0.04101   0.04604   0.04881   0.05185   0.05970

 Mulliken charges:
               1
     1  O   -0.195444
     2  O   -0.204105
     3  O   -0.204576
     4  O   -0.244886
     5  O   -0.249222
     6  O   -0.294271
     7  N   -0.111555
     8  N   -0.092582
     9  N   -0.199221
    10  N   -0.292716
    11  C   -0.032900
    12  C    0.025396
    13  C   -0.153146
    14  C    0.077794
    15  C   -0.065072
    16  C    0.057354
    17  C   -0.037948
    18  C   -0.127305
    19  C    0.049730
    20  C   -0.010657
    21  C    0.137961
    22  C    0.054856
    23  C   -0.016577
    24  C    0.053158
    25  C   -0.017767
    26  C   -0.062797
    27  C    0.130641
    28  C   -0.006452
    29  C   -0.007934
    30  C    0.045597
    31  C   -0.118641
    32  C    0.010588
    33  C   -0.129210
    34  C    0.099777
    35  C   -0.113627
    36  C   -0.174957
    37  C    0.125267
    38  C   -0.015581
    39  C    0.173450
    40  C    0.105626
    41  C    0.182101
    42  C    0.083197
    43  C    0.016325
    44  H    0.146386
    45  H    0.054750
    46  H    0.032182
    47  H   -0.001570
    48  H    0.017526
    49  H    0.049695
    50  H   -0.008550
    51  H   -0.044445
    52  H    0.158712
    53  H    0.055803
    54  H    0.048118
    55  H    0.056021
    56  H    0.137477
    57  H    0.041641
    58  H    0.055373
    59  H    0.020036
    60  H    0.055512
    61  H    0.034214
    62  H    0.018682
    63  H    0.057280
    64  H   -0.004572
    65  H    0.026868
    66  H    0.032002
    67  H    0.012919
    68  H    0.011632
    69  H    0.105066
    70  H    0.006390
    71  H    0.013803
    72  H   -0.019461
    73  H    0.009153
    74  H    0.068042
    75  H   -0.012738
    76  H    0.025885
    77  H    0.009740
    78  H    0.015254
    79  H    0.050196
    80  H    0.220818
    81  H    0.194490
 Sum of Mulliken charges =  -0.00000

 Dipole moment (field-independent basis, Debye):
    X=             -3.5722    Y=              1.8461    Z=             -2.0380  Tot=              4.5080
 Quadrupole moment (field-independent basis, Debye-Ang):
   XX=           -245.9201   YY=           -234.8632   ZZ=           -251.4792
   XY=             19.8063   XZ=             16.4805   YZ=             -9.4347

 Normal termination of Gaussian 16 at Thu Jun 27 16:30:01 2019.
