 Gaussian 16, Revision A.03,
 Gaussian 16:  ES64L-G16RevA.03 25-Dec-2016

 --------------------------
 # td=(NStates=1) B3LYP/SVP
 --------------------------

 --
 TD
 --
 Symbolic Z-matrix:
 Charge =  0 Multiplicity = 1

                         Standard orientation:
 ---------------------------------------------------------------------
 Center     Atomic      Atomic             Coordinates (Angstroms)
 Number     Number       Type             X           Y           Z
 ---------------------------------------------------------------------
      1          8           0        4.532366   -4.669970   -1.778883
      2          8           0       -2.536177   -5.058630   -1.020005
      3          8           0       -6.982878   -1.897414   -1.906092
      4          8           0       -3.661722   -3.356543    0.020102
      5          8           0       -7.714255   -0.833577   -0.079427
      6          8           0        2.876963    2.551447    0.228119
      7          7           0        0.302699   -0.425998    0.531052
      8          7           0       -1.622294    1.641726    0.409269
      9          7           0        3.454890   -2.981258   -0.723067
     10          7           0        0.614423    3.002837    0.140116
     11          6           0       -0.406394   -2.472011    1.367974
     12          6           0       -0.854768   -1.145947    0.904342
     13          6           0        1.000865   -2.521504    1.228483
     14          6           0        1.402213   -1.275817    0.658246
     15          6           0       -3.876976    1.296217    0.337744
     16          6           0       -2.565776    0.673727    0.635921
     17          6           0       -2.155712   -0.627970    0.835367
     18          6           0       -3.753490    2.519876   -0.052260
     19          6           0       -1.277595   -3.459494    1.993307
     20          6           0        5.763160   -2.578481   -1.286136
     21          6           0        3.689117   -1.660908   -0.166744
     22          6           0       -2.295367    2.796141    0.072800
     23          6           0        5.133336   -1.407177   -0.516004
     24          6           0       -5.191471    0.567699    0.450795
     25          6           0        2.755189   -0.893423    0.365104
     26          6           0        1.882287   -3.522096    1.824777
     27          6           0        4.631574   -3.530274   -1.292201
     28          6           0       -1.640179   -4.611499    1.135877
     29          6           0       -5.513422   -0.293671   -0.852429
     30          6           0       -4.722154    3.619847   -0.550920
     31          6           0       -1.578169    3.981876   -0.175645
     32          6           0        7.043868   -3.102018   -0.837553
     33          6           0        5.795926   -0.313643   -0.282651
     34          6           0       -0.228011    4.050267   -0.163278
     35          6           0        0.666014    5.224452   -0.390973
     36          6           0        1.886116    4.799309   -0.234316
     37          6           0       -2.716511   -4.221359    0.035851
     38          6           0        5.385901    0.970998    0.545627
     39          6           0       -6.839705   -1.063508   -0.816711
     40          6           0        3.236749    5.554278   -0.367249
     41          6           0        1.922600    3.428975    0.051731
     42          6           0        0.342374    6.615965   -0.734225
     43          6           0        3.971083    5.565383    1.085675
     44          1           0        0.331944    0.530014   -0.246145
     45          1           0       -2.923905   -1.386509    1.278691
     46          1           0       -2.105795   -3.025004    2.602105
     47          1           0       -0.436444   -3.837627    2.870308
     48          1           0        5.876974   -2.076145   -2.390809
     49          1           0       -5.180970   -0.044380    1.395123
     50          1           0       -6.066214    1.263169    0.441719
     51          1           0        2.867357    0.198327    0.477145
     52          1           0       -0.596606    1.883390    0.510227
     53          1           0        2.122249   -4.440844    1.202048
     54          1           0        2.774223   -3.009543    2.082210
     55          1           0        1.294551   -3.877922    2.911958
     56          1           0        2.529352   -3.623088   -0.761139
     57          1           0       -0.884670   -5.168359    0.622093
     58          1           0       -2.250896   -5.394287    1.712141
     59          1           0       -4.827326   -1.210103   -1.068474
     60          1           0       -5.395854    0.266995   -1.874690
     61          1           0       -4.889674    4.396962    0.246852
     62          1           0       -5.761735    3.039287   -0.815992
     63          1           0       -4.428583    4.017604   -1.461377
     64          1           0       -2.340677    4.748255   -0.648908
     65          1           0        7.846185   -2.365045   -0.914661
     66          1           0        7.313085   -3.860341   -1.466916
     67          1           0        6.915933   -3.381402    0.329221
     68          1           0        6.854221   -0.493550   -0.442331
     69          1           0        4.805922    1.636967   -0.095073
     70          1           0        6.344348    1.385102    0.837552
     71          1           0        4.627048    0.832105    1.338614
     72          1           0        3.109518    6.525089   -0.734698
     73          1           0        3.978365    5.042998   -1.033670
     74          1           0       -0.194575    7.000605   -1.608954
     75          1           0        1.217509    7.325667   -0.692260
     76          1           0       -0.420553    7.120767   -0.043494
     77          1           0        3.251122    6.070557    1.961161
     78          1           0        4.767597    6.221726    0.865062
     79          1           0        4.161069    4.443622    1.237441
     80          1           0       -3.167366   -4.895263   -1.818266
     81          1           0       -7.835159   -2.188717   -1.877877
 ---------------------------------------------------------------------

 SCF Done:  E(RB3LYP) =  -1949.10052420     A.U. after   19 cycles

 Excitation energies and oscillator strengths:

 Excited State   1:      Singlet-A      1.8340 eV  676.04 nm  f=0.3254  <S**2>=0.000
     156 ->157         0.70745
     156 <-157        -0.11836
 This state for optimization and/or second-order correction.
 Total Energy, E(TD-HF/TD-DFT) =  -1949.03312714
 Copying the excited state density for this state as the 1-particle RhoCI density.

 The electronic state is 1-A.
 Alpha  occ. eigenvalues --  -19.19965 -19.16963 -19.14201 -19.12971 -19.10308
 Alpha  occ. eigenvalues --  -19.09224 -14.38718 -14.37160 -14.36128 -14.28488
 Alpha  occ. eigenvalues --  -10.34481 -10.31688 -10.28935 -10.25529 -10.24476
 Alpha  occ. eigenvalues --  -10.23864 -10.23795 -10.23614 -10.23413 -10.23273
 Alpha  occ. eigenvalues --  -10.22565 -10.22509 -10.21694 -10.21687 -10.21661
 Alpha  occ. eigenvalues --  -10.21637 -10.21248 -10.21148 -10.20776 -10.20591
 Alpha  occ. eigenvalues --  -10.20222 -10.19694 -10.19652 -10.19559 -10.19451
 Alpha  occ. eigenvalues --  -10.19383 -10.19300 -10.18678 -10.18533 -10.18468
 Alpha  occ. eigenvalues --  -10.18197 -10.17588 -10.17087  -1.10678  -1.08675
 Alpha  occ. eigenvalues --   -1.02371  -1.01686  -0.98693  -0.98596  -0.97366
 Alpha  occ. eigenvalues --   -0.96013  -0.92335  -0.90914  -0.83211  -0.82792
 Alpha  occ. eigenvalues --   -0.82323  -0.81538  -0.79798  -0.78798  -0.77929
 Alpha  occ. eigenvalues --   -0.76703  -0.76457  -0.74904  -0.73635  -0.72178
 Alpha  occ. eigenvalues --   -0.71525  -0.69138  -0.69046  -0.68030  -0.67917
 Alpha  occ. eigenvalues --   -0.67620  -0.65553  -0.64886  -0.62488  -0.61326
 Alpha  occ. eigenvalues --   -0.60550  -0.59256  -0.58528  -0.56894  -0.56588
 Alpha  occ. eigenvalues --   -0.56008  -0.55324  -0.53983  -0.53135  -0.52344
 Alpha  occ. eigenvalues --   -0.51574  -0.51170  -0.50687  -0.49569  -0.49268
 Alpha  occ. eigenvalues --   -0.49133  -0.48705  -0.48136  -0.48029  -0.47897
 Alpha  occ. eigenvalues --   -0.47352  -0.46738  -0.46625  -0.45766  -0.45333
 Alpha  occ. eigenvalues --   -0.44993  -0.44850  -0.44068  -0.43540  -0.43236
 Alpha  occ. eigenvalues --   -0.43098  -0.42980  -0.42447  -0.42393  -0.41984
 Alpha  occ. eigenvalues --   -0.41441  -0.41298  -0.41092  -0.40874  -0.40659
 Alpha  occ. eigenvalues --   -0.40406  -0.40379  -0.39625  -0.39604  -0.39228
 Alpha  occ. eigenvalues --   -0.38881  -0.38815  -0.38592  -0.38318  -0.38283
 Alpha  occ. eigenvalues --   -0.37938  -0.37331  -0.37292  -0.37055  -0.36150
 Alpha  occ. eigenvalues --   -0.35342  -0.35201  -0.34955  -0.34460  -0.34380
 Alpha  occ. eigenvalues --   -0.34107  -0.33821  -0.33564  -0.33036  -0.32616
 Alpha  occ. eigenvalues --   -0.32485  -0.32350  -0.31988  -0.29508  -0.28767
 Alpha  occ. eigenvalues --   -0.28337  -0.27086  -0.26649  -0.25838  -0.25662
 Alpha  occ. eigenvalues --   -0.25491  -0.25280  -0.23879  -0.23501  -0.21808
 Alpha  occ. eigenvalues --   -0.17948
 Alpha virt. eigenvalues --   -0.10587  -0.05780  -0.03134  -0.02445  -0.01253
 Alpha virt. eigenvalues --    0.00613   0.01200   0.01813   0.02415   0.02902
 Alpha virt. eigenvalues --    0.03755   0.04237   0.04688   0.05036   0.05613

 Mulliken charges:
               1
     1  O   -0.243049
     2  O   -0.222235
     3  O   -0.171471
     4  O   -0.279108
     5  O   -0.178945
     6  O   -0.304676
     7  N   -0.186433
     8  N   -0.108509
     9  N   -0.232487
    10  N   -0.327842
    11  C   -0.066549
    12  C    0.044018
    13  C   -0.160703
    14  C    0.065528
    15  C   -0.074684
    16  C    0.102072
    17  C   -0.067399
    18  C   -0.103634
    19  C    0.015175
    20  C   -0.055608
    21  C    0.243756
    22  C   -0.037259
    23  C   -0.041464
    24  C    0.107562
    25  C   -0.179327
    26  C    0.046139
    27  C    0.125216
    28  C    0.069055
    29  C   -0.100370
    30  C    0.092386
    31  C   -0.121689
    32  C    0.099572
    33  C   -0.179965
    34  C    0.142882
    35  C   -0.010977
    36  C   -0.130547
    37  C    0.154266
    38  C    0.077136
    39  C    0.130871
    40  C    0.090605
    41  C    0.165965
    42  C    0.031837
    43  C   -0.073131
    44  H    0.232642
    45  H    0.034471
    46  H    0.037644
    47  H    0.026052
    48  H    0.074177
    49  H    0.031923
    50  H    0.021133
    51  H    0.027460
    52  H    0.158899
    53  H    0.038143
    54  H    0.026058
    55  H    0.036813
    56  H    0.183570
    57  H    0.028556
    58  H    0.055544
    59  H    0.058070
    60  H    0.053860
    61  H    0.052208
    62  H    0.030641
    63  H    0.019471
    64  H    0.003131
    65  H    0.014025
    66  H    0.006653
    67  H    0.036387
    68  H   -0.022059
    69  H    0.057219
    70  H    0.007108
    71  H    0.037938
    72  H   -0.032940
    73  H    0.019382
    74  H    0.009644
    75  H    0.015281
    76  H    0.005225
    77  H    0.030348
    78  H    0.010157
    79  H    0.073095
    80  H    0.222313
    81  H    0.133777
 Sum of Mulliken charges =  -0.00000

 Dipole moment (field-independent basis, Debye):
    X=             -2.7973    Y=              0.1334    Z=             -1.2226  Tot=              3.0558
 Quadrupole moment (field-independent basis, Debye-Ang):
   XX=           -253.6042   YY=           -238.4196   ZZ=           -252.8481
   XY=              8.5720   XZ=             12.1409   YZ=            -14.2044

 Normal termination of Gaussian 16 at Fri Jun 28 11:08:21 2019.
