 Gaussian 16, Revision A.03,
 Gaussian 16:  ES64L-G16RevA.03 25-Dec-2016

 --------------------------
 # td=(NStates=1) B3LYP/SVP
 --------------------------

 --
 TD
 --
 Symbolic Z-matrix:
 Charge =  0 Multiplicity = 1

                         Standard orientation:
 ---------------------------------------------------------------------
 Center     Atomic      Atomic             Coordinates (Angstroms)
 Number     Number       Type             X           Y           Z
 ---------------------------------------------------------------------
      1          8           0        4.099382   -4.956770   -1.913238
      2          8           0       -3.073290   -5.006914   -0.852544
      3          8           0       -6.901035   -1.310994   -2.091806
      4          8           0       -3.873888   -3.200492    0.181274
      5          8           0       -7.526898   -0.521925   -0.106438
      6          8           0        3.074668    2.335243    0.534791
      7          7           0        0.280118   -0.447194    0.657679
      8          7           0       -1.515037    1.844790    0.400041
      9          7           0        3.171186   -3.170999   -0.845250
     10          7           0        0.833205    2.879855    0.223957
     11          6           0       -0.625025   -2.340473    1.456575
     12          6           0       -0.926890   -0.969732    1.026527
     13          6           0        0.753632   -2.599173    1.308390
     14          6           0        1.297254   -1.376352    0.751905
     15          6           0       -3.694759    1.529073    0.208081
     16          6           0       -2.474966    0.952987    0.520830
     17          6           0       -2.292573   -0.334316    0.980123
     18          6           0       -3.508197    2.860952   -0.236501
     19          6           0       -1.659840   -3.280384    2.162061
     20          6           0        5.341175   -2.793260   -1.557530
     21          6           0        3.485813   -1.923706   -0.268197
     22          6           0       -2.022154    3.133505   -0.031269
     23          6           0        4.965371   -1.716233   -0.584027
     24          6           0       -5.059415    0.829081    0.238206
     25          6           0        2.665054   -1.028740    0.446436
     26          6           0        1.600202   -3.686926    1.868630
     27          6           0        4.147857   -3.836658   -1.424736
     28          6           0       -2.167520   -4.490286    1.272119
     29          6           0       -5.347086   -0.029551   -0.967298
     30          6           0       -4.432240    3.925046   -0.597459
     31          6           0       -1.258943    4.192545   -0.190080
     32          6           0        6.693280   -3.524516   -0.995600
     33          6           0        5.700485   -0.639615   -0.341543
     34          6           0        0.129354    4.115210   -0.113202
     35          6           0        1.111779    5.106443   -0.396178
     36          6           0        2.337011    4.639514   -0.125788
     37          6           0       -3.078170   -4.173689    0.167574
     38          6           0        5.364893    0.451570    0.550650
     39          6           0       -6.732664   -0.603414   -0.986252
     40          6           0        3.719572    5.376303   -0.320783
     41          6           0        2.204347    3.155700    0.212576
     42          6           0        0.789084    6.555099   -0.831707
     43          6           0        4.470685    5.301853    1.106963
     44          1           0        0.614220    0.572496    0.196725
     45          1           0       -3.035403   -1.132407    0.983265
     46          1           0       -2.498033   -2.665188    2.621702
     47          1           0       -0.965003   -3.688200    3.085872
     48          1           0        5.435942   -2.796310   -2.825986
     49          1           0       -5.146697    0.262764    1.104833
     50          1           0       -5.929469    1.545224    0.551639
     51          1           0        2.904281    0.011407    0.482060
     52          1           0       -0.539444    2.049094    0.547130
     53          1           0        1.608052   -4.604854    1.140928
     54          1           0        2.528907   -3.365496    1.955363
     55          1           0        1.267590   -4.168934    2.738138
     56          1           0        2.224720   -3.551740   -0.681502
     57          1           0       -1.147737   -5.197634    0.858366
     58          1           0       -2.743134   -5.075689    1.933949
     59          1           0       -4.605283   -0.824840   -0.815574
     60          1           0       -5.186035    0.457234   -1.988929
     61          1           0       -4.560208    4.764590    0.214525
     62          1           0       -5.487971    3.454230   -0.793258
     63          1           0       -4.250796    4.393256   -1.521558
     64          1           0       -1.730961    5.102303   -0.708412
     65          1           0        7.662649   -2.797397   -0.995594
     66          1           0        6.813080   -4.446245   -1.540578
     67          1           0        6.450295   -3.878233    0.170376
     68          1           0        6.762655   -0.694472   -0.619889
     69          1           0        4.892148    1.221493    0.050421
     70          1           0        6.039857    1.170581    0.798875
     71          1           0        4.918292    0.102056    1.601694
     72          1           0        3.684048    6.363264   -0.740010
     73          1           0        4.205725    4.696572   -1.019158
     74          1           0        0.066633    6.335908   -1.725188
     75          1           0        1.773183    7.104007   -0.916084
     76          1           0        0.209287    7.187757    0.067632
     77          1           0        4.041994    5.864904    2.063470
     78          1           0        5.507705    5.882262    0.864743
     79          1           0        4.834392    4.029301    1.187646
     80          1           0       -3.779308   -4.640602   -1.410202
     81          1           0       -7.596408   -2.159929   -1.845728
 ---------------------------------------------------------------------

 SCF Done:  E(RB3LYP) =  -1949.04377771     A.U. after   17 cycles

 Excitation energies and oscillator strengths:

 Excited State   1:      Singlet-A      1.6603 eV  746.76 nm  f=0.3032  <S**2>=0.000
     156 ->157         0.71102
     156 <-157        -0.13729
 This state for optimization and/or second-order correction.
 Total Energy, E(TD-HF/TD-DFT) =  -1948.98276339
 Copying the excited state density for this state as the 1-particle RhoCI density.

 The electronic state is 1-A.
 Alpha  occ. eigenvalues --  -19.21020 -19.18631 -19.14058 -19.12316 -19.10669
 Alpha  occ. eigenvalues --  -19.10344 -14.38370 -14.38126 -14.34845 -14.29281
 Alpha  occ. eigenvalues --  -10.34197 -10.31208 -10.28648 -10.27053 -10.25429
 Alpha  occ. eigenvalues --  -10.23920 -10.23860 -10.23803 -10.23487 -10.23428
 Alpha  occ. eigenvalues --  -10.23422 -10.23093 -10.21991 -10.21866 -10.21836
 Alpha  occ. eigenvalues --  -10.21687 -10.20747 -10.20690 -10.20588 -10.20351
 Alpha  occ. eigenvalues --  -10.20294 -10.20245 -10.20184 -10.19887 -10.19847
 Alpha  occ. eigenvalues --  -10.19844 -10.19573 -10.19411 -10.19399 -10.19317
 Alpha  occ. eigenvalues --  -10.19235 -10.19230 -10.16185  -1.12997  -1.09520
 Alpha  occ. eigenvalues --   -1.03253  -1.00652  -1.00631  -1.00543  -0.98121
 Alpha  occ. eigenvalues --   -0.96982  -0.95680  -0.90229  -0.82366  -0.81659
 Alpha  occ. eigenvalues --   -0.81353  -0.81130  -0.79547  -0.78419  -0.77825
 Alpha  occ. eigenvalues --   -0.77279  -0.76075  -0.74951  -0.73754  -0.72671
 Alpha  occ. eigenvalues --   -0.71597  -0.69363  -0.68245  -0.67726  -0.67070
 Alpha  occ. eigenvalues --   -0.66514  -0.65719  -0.65142  -0.62851  -0.61439
 Alpha  occ. eigenvalues --   -0.60245  -0.59997  -0.58310  -0.57357  -0.56223
 Alpha  occ. eigenvalues --   -0.55894  -0.55136  -0.54644  -0.53367  -0.52660
 Alpha  occ. eigenvalues --   -0.51657  -0.51425  -0.50914  -0.50807  -0.49852
 Alpha  occ. eigenvalues --   -0.49643  -0.49216  -0.49049  -0.47658  -0.47396
 Alpha  occ. eigenvalues --   -0.46823  -0.46465  -0.46346  -0.45572  -0.45091
 Alpha  occ. eigenvalues --   -0.44793  -0.44440  -0.43880  -0.43637  -0.43477
 Alpha  occ. eigenvalues --   -0.42957  -0.42793  -0.42585  -0.42142  -0.41858
 Alpha  occ. eigenvalues --   -0.41697  -0.41581  -0.41448  -0.41153  -0.41041
 Alpha  occ. eigenvalues --   -0.40770  -0.40439  -0.40096  -0.39817  -0.39532
 Alpha  occ. eigenvalues --   -0.39451  -0.39253  -0.38942  -0.38308  -0.38003
 Alpha  occ. eigenvalues --   -0.37861  -0.37317  -0.37119  -0.36875  -0.36644
 Alpha  occ. eigenvalues --   -0.35430  -0.35382  -0.35193  -0.34293  -0.34157
 Alpha  occ. eigenvalues --   -0.33742  -0.33505  -0.33238  -0.33121  -0.32934
 Alpha  occ. eigenvalues --   -0.32270  -0.31974  -0.30820  -0.29670  -0.29437
 Alpha  occ. eigenvalues --   -0.28072  -0.27702  -0.26659  -0.25941  -0.25242
 Alpha  occ. eigenvalues --   -0.24989  -0.24797  -0.24489  -0.22990  -0.22083
 Alpha  occ. eigenvalues --   -0.17805
 Alpha virt. eigenvalues --   -0.11281  -0.06225  -0.04226  -0.02567  -0.01070
 Alpha virt. eigenvalues --   -0.00359   0.01595   0.02471   0.02837   0.03530
 Alpha virt. eigenvalues --    0.03740   0.04159   0.04596   0.04853   0.05623

 Mulliken charges:
               1
     1  O   -0.228200
     2  O   -0.126310
     3  O   -0.248918
     4  O   -0.289884
     5  O   -0.200315
     6  O   -0.231771
     7  N   -0.136128
     8  N   -0.071588
     9  N   -0.058303
    10  N   -0.402608
    11  C   -0.131859
    12  C    0.020712
    13  C   -0.163324
    14  C    0.029080
    15  C   -0.107244
    16  C    0.165210
    17  C   -0.067130
    18  C   -0.091378
    19  C    0.010287
    20  C   -0.173621
    21  C    0.078218
    22  C    0.070169
    23  C    0.039060
    24  C    0.102254
    25  C   -0.071629
    26  C    0.170924
    27  C    0.110779
    28  C    0.017181
    29  C   -0.002042
    30  C    0.058424
    31  C   -0.124995
    32  C   -0.031064
    33  C   -0.143792
    34  C    0.110343
    35  C   -0.103958
    36  C   -0.170530
    37  C    0.137574
    38  C    0.147650
    39  C    0.128092
    40  C    0.102451
    41  C    0.194958
    42  C    0.025140
    43  C   -0.150680
    44  H    0.218637
    45  H    0.030221
    46  H    0.041188
    47  H    0.040215
    48  H    0.082279
    49  H   -0.017955
    50  H    0.017595
    51  H    0.018364
    52  H    0.113194
    53  H    0.012040
    54  H   -0.010262
    55  H   -0.007668
    56  H    0.137488
    57  H    0.071088
    58  H    0.041753
    59  H    0.045912
    60  H    0.040501
    61  H    0.049393
    62  H    0.021659
    63  H    0.006604
    64  H    0.005839
    65  H    0.050406
    66  H    0.031047
    67  H    0.029346
    68  H   -0.004877
    69  H    0.009103
    70  H   -0.053386
    71  H    0.054944
    72  H    0.001948
    73  H    0.020913
    74  H    0.051039
    75  H    0.028312
    76  H    0.046576
    77  H    0.058819
    78  H    0.018698
    79  H    0.081856
    80  H    0.182448
    81  H    0.243483
 Sum of Mulliken charges =  -0.00000

 Dipole moment (field-independent basis, Debye):
    X=             -2.4736    Y=              0.6405    Z=             -0.5434  Tot=              2.6123
 Quadrupole moment (field-independent basis, Debye-Ang):
   XX=           -260.6720   YY=           -237.0489   ZZ=           -255.7140
   XY=             25.6343   XZ=             11.4501   YZ=            -16.5851

 Normal termination of Gaussian 16 at Wed Jul  3 14:38:54 2019.
