 Gaussian 16, Revision A.03,
 Gaussian 16:  ES64L-G16RevA.03 25-Dec-2016

 --------------------------
 # td=(NStates=1) B3LYP/SVP
 --------------------------

 --
 TD
 --
 Symbolic Z-matrix:
 Charge =  0 Multiplicity = 1

                         Standard orientation:
 ---------------------------------------------------------------------
 Center     Atomic      Atomic             Coordinates (Angstroms)
 Number     Number       Type             X           Y           Z
 ---------------------------------------------------------------------
      1          8           0        4.235815   -4.886991   -1.893887
      2          8           0       -3.149647   -4.990517   -1.069818
      3          8           0       -7.084470   -1.484514   -1.699435
      4          8           0       -3.771625   -3.110600   -0.040942
      5          8           0       -7.650885   -0.492168    0.130965
      6          8           0        3.100707    2.427067    0.387492
      7          7           0        0.286325   -0.492300    0.554283
      8          7           0       -1.523255    1.803284    0.171086
      9          7           0        3.390690   -3.168389   -0.703509
     10          7           0        0.785862    2.953368    0.146454
     11          6           0       -0.622035   -2.418427    1.379928
     12          6           0       -0.973742   -1.044931    0.957564
     13          6           0        0.825644   -2.592042    1.170554
     14          6           0        1.311992   -1.407633    0.604935
     15          6           0       -3.790760    1.483774    0.314578
     16          6           0       -2.474969    0.894072    0.451278
     17          6           0       -2.158198   -0.440720    0.860149
     18          6           0       -3.558054    2.859113   -0.069619
     19          6           0       -1.591509   -3.448206    1.935564
     20          6           0        5.578678   -2.862203   -1.247071
     21          6           0        3.746027   -1.858169   -0.235201
     22          6           0       -2.143870    3.048445   -0.141266
     23          6           0        5.065917   -1.628294   -0.558528
     24          6           0       -5.109353    0.783100    0.385853
     25          6           0        2.640506   -0.989281    0.252727
     26          6           0        1.392864   -3.837729    1.837404
     27          6           0        4.352723   -3.803007   -1.385260
     28          6           0       -2.105391   -4.498883    1.018234
     29          6           0       -5.330055   -0.110008   -0.792739
     30          6           0       -4.419965    3.927104   -0.583241
     31          6           0       -1.295689    4.086136   -0.337870
     32          6           0        6.848186   -3.572348   -0.656906
     33          6           0        5.797764   -0.562155   -0.119473
     34          6           0        0.060760    4.076506   -0.286666
     35          6           0        1.023911    5.219890   -0.523476
     36          6           0        2.298202    4.634388   -0.212878
     37          6           0       -3.146806   -4.142717   -0.063231
     38          6           0        5.411914    0.540712    0.697127
     39          6           0       -6.791471   -0.779267   -0.669204
     40          6           0        3.651081    5.363492   -0.261149
     41          6           0        2.132384    3.171569    0.116849
     42          6           0        0.660544    6.617361   -0.803949
     43          6           0        4.297240    5.734649    1.157475
     44          1           0        0.452703    0.369596    0.045602
     45          1           0       -2.897260   -1.222130    1.032906
     46          1           0       -2.292922   -3.022620    2.538050
     47          1           0       -1.094785   -3.813803    2.859480
     48          1           0        5.980198   -2.678601   -2.388097
     49          1           0       -5.018886    0.124191    1.477788
     50          1           0       -5.945308    1.549995    0.494022
     51          1           0        2.813822    0.058105    0.422316
     52          1           0       -0.454793    1.577131    0.378022
     53          1           0        1.283890   -4.847545    1.235064
     54          1           0        2.323593   -3.866811    2.102722
     55          1           0        0.901964   -3.761131    2.815927
     56          1           0        2.405793   -3.507509   -0.824673
     57          1           0       -1.215093   -5.007138    0.510625
     58          1           0       -2.414419   -5.274695    1.759015
     59          1           0       -4.499083   -0.952774   -0.882840
     60          1           0       -5.171450    0.460919   -1.680820
     61          1           0       -4.324857    4.632744    0.244276
     62          1           0       -5.326217    3.520828   -0.616273
     63          1           0       -4.299448    4.158783   -1.675599
     64          1           0       -1.861165    4.972102   -0.571401
     65          1           0        7.596874   -2.850533   -0.622711
     66          1           0        7.269138   -4.274482   -1.457025
     67          1           0        6.648401   -3.948740    0.374982
     68          1           0        6.985567   -0.604679   -0.357079
     69          1           0        4.741350    1.264654    0.241549
     70          1           0        6.262121    1.285697    0.978295
     71          1           0        4.979613    0.406968    1.693465
     72          1           0        3.517982    6.268106   -0.845047
     73          1           0        4.312088    4.632136   -0.783640
     74          1           0       -0.152600    6.653597   -1.783942
     75          1           0        1.389453    7.366879   -0.867072
     76          1           0        0.135441    7.122948    0.050991
     77          1           0        3.638096    6.575060    1.537445
     78          1           0        5.252280    6.273955    1.181289
     79          1           0        4.221073    4.820375    1.765317
     80          1           0       -3.781054   -4.549595   -1.615583
     81          1           0       -7.885438   -1.947676   -1.615489
 ---------------------------------------------------------------------

 SCF Done:  E(RB3LYP) =  -1949.11516073     A.U. after   19 cycles

 Excitation energies and oscillator strengths:

 Excited State   1:      Singlet-A      1.5934 eV  778.11 nm  f=0.3295  <S**2>=0.000
     156 ->157         0.70812
     156 <-157        -0.15162
 This state for optimization and/or second-order correction.
 Total Energy, E(TD-HF/TD-DFT) =  -1949.05660398
 Copying the excited state density for this state as the 1-particle RhoCI density.

 The electronic state is 1-A.
 Alpha  occ. eigenvalues --  -19.21431 -19.18617 -19.15357 -19.11984 -19.10685
 Alpha  occ. eigenvalues --  -19.08924 -14.37674 -14.37388 -14.35246 -14.27411
 Alpha  occ. eigenvalues --  -10.34730 -10.32088 -10.28690 -10.25921 -10.25107
 Alpha  occ. eigenvalues --  -10.24735 -10.23734 -10.22964 -10.22854 -10.22699
 Alpha  occ. eigenvalues --  -10.22104 -10.22012 -10.21888 -10.21652 -10.21381
 Alpha  occ. eigenvalues --  -10.21082 -10.20930 -10.20900 -10.20753 -10.20612
 Alpha  occ. eigenvalues --  -10.20397 -10.20088 -10.19891 -10.19888 -10.19833
 Alpha  occ. eigenvalues --  -10.19547 -10.19342 -10.18649 -10.18115 -10.18062
 Alpha  occ. eigenvalues --  -10.17709 -10.17566 -10.17383  -1.14703  -1.12728
 Alpha  occ. eigenvalues --   -1.04208  -1.04071  -1.00616  -0.98479  -0.97731
 Alpha  occ. eigenvalues --   -0.96197  -0.95660  -0.88981  -0.83205  -0.82547
 Alpha  occ. eigenvalues --   -0.82001  -0.81339  -0.79336  -0.78457  -0.77163
 Alpha  occ. eigenvalues --   -0.76927  -0.76703  -0.74776  -0.73327  -0.72208
 Alpha  occ. eigenvalues --   -0.71954  -0.71243  -0.70224  -0.68440  -0.67758
 Alpha  occ. eigenvalues --   -0.66605  -0.66067  -0.64700  -0.62930  -0.62240
 Alpha  occ. eigenvalues --   -0.61672  -0.59703  -0.58883  -0.57829  -0.57750
 Alpha  occ. eigenvalues --   -0.56579  -0.54721  -0.54392  -0.53747  -0.52716
 Alpha  occ. eigenvalues --   -0.52269  -0.52201  -0.51880  -0.50758  -0.50229
 Alpha  occ. eigenvalues --   -0.49944  -0.49296  -0.48744  -0.48207  -0.47459
 Alpha  occ. eigenvalues --   -0.47174  -0.46748  -0.46320  -0.46029  -0.45548
 Alpha  occ. eigenvalues --   -0.45105  -0.44729  -0.44460  -0.44349  -0.44091
 Alpha  occ. eigenvalues --   -0.43856  -0.43434  -0.42847  -0.42724  -0.42476
 Alpha  occ. eigenvalues --   -0.42166  -0.41847  -0.41557  -0.41338  -0.40955
 Alpha  occ. eigenvalues --   -0.40515  -0.40341  -0.40299  -0.39761  -0.39325
 Alpha  occ. eigenvalues --   -0.39146  -0.38788  -0.38715  -0.38006  -0.37863
 Alpha  occ. eigenvalues --   -0.37623  -0.37214  -0.36981  -0.36706  -0.36396
 Alpha  occ. eigenvalues --   -0.35895  -0.35445  -0.35365  -0.35160  -0.34821
 Alpha  occ. eigenvalues --   -0.34611  -0.34260  -0.33904  -0.33300  -0.32529
 Alpha  occ. eigenvalues --   -0.32337  -0.32247  -0.31263  -0.30715  -0.29981
 Alpha  occ. eigenvalues --   -0.27955  -0.26615  -0.26026  -0.25954  -0.25574
 Alpha  occ. eigenvalues --   -0.25366  -0.24082  -0.22371  -0.21794  -0.20541
 Alpha  occ. eigenvalues --   -0.17285
 Alpha virt. eigenvalues --   -0.11104  -0.06624  -0.04943  -0.02333  -0.00035
 Alpha virt. eigenvalues --    0.00399   0.02020   0.02482   0.03710   0.04078
 Alpha virt. eigenvalues --    0.04325   0.04856   0.05164   0.05537   0.06011

 Mulliken charges:
               1
     1  O   -0.198924
     2  O   -0.105784
     3  O   -0.095628
     4  O   -0.219475
     5  O   -0.233384
     6  O   -0.274235
     7  N   -0.129630
     8  N   -0.146184
     9  N   -0.131270
    10  N   -0.343722
    11  C   -0.140716
    12  C    0.064338
    13  C   -0.147711
    14  C    0.071384
    15  C   -0.079573
    16  C    0.080138
    17  C   -0.035934
    18  C   -0.170081
    19  C    0.147405
    20  C   -0.177402
    21  C    0.081494
    22  C    0.101505
    23  C    0.051329
    24  C    0.024841
    25  C   -0.075015
    26  C    0.140294
    27  C    0.120937
    28  C    0.018653
    29  C   -0.040819
    30  C    0.196076
    31  C   -0.125956
    32  C    0.088189
    33  C   -0.142004
    34  C    0.155964
    35  C   -0.049608
    36  C   -0.202369
    37  C    0.141765
    38  C    0.042429
    39  C    0.123861
    40  C    0.069047
    41  C    0.191899
    42  C    0.056028
    43  C   -0.011756
    44  H    0.128124
    45  H   -0.006843
    46  H   -0.028287
    47  H   -0.017449
    48  H    0.054448
    49  H    0.043756
    50  H    0.035681
    51  H    0.003141
    52  H    0.178280
    53  H    0.040336
    54  H   -0.046662
    55  H    0.023385
    56  H    0.145806
    57  H    0.039703
    58  H    0.044962
    59  H    0.066449
    60  H    0.021522
    61  H    0.038044
    62  H   -0.056477
    63  H    0.038327
    64  H   -0.048837
    65  H   -0.012544
    66  H    0.034779
    67  H    0.029746
    68  H    0.031523
    69  H    0.072268
    70  H    0.003701
    71  H    0.031448
    72  H   -0.010547
    73  H    0.016499
    74  H    0.036789
    75  H   -0.010210
    76  H    0.021781
    77  H   -0.001436
    78  H    0.012723
    79  H    0.038059
    80  H    0.160543
    81  H    0.157071
 Sum of Mulliken charges =  -0.00000

 Dipole moment (field-independent basis, Debye):
    X=             -2.7747    Y=             -2.3463    Z=             -0.2527  Tot=              3.6425
 Quadrupole moment (field-independent basis, Debye-Ang):
   XX=           -247.0063   YY=           -243.5831   ZZ=           -252.7714
   XY=             16.6164   XZ=             17.7972   YZ=            -14.3264

 Normal termination of Gaussian 16 at Sat Jun 29 10:23:41 2019.
