 Gaussian 16, Revision A.03,
 Gaussian 16:  ES64L-G16RevA.03 25-Dec-2016

 --------------------------
 # td=(NStates=1) B3LYP/SVP
 --------------------------

 --
 TD
 --
 Symbolic Z-matrix:
 Charge =  0 Multiplicity = 1

                         Standard orientation:
 ---------------------------------------------------------------------
 Center     Atomic      Atomic             Coordinates (Angstroms)
 Number     Number       Type             X           Y           Z
 ---------------------------------------------------------------------
      1          8           0        4.255384   -4.756510   -1.785536
      2          8           0       -2.807091   -4.930304   -1.032711
      3          8           0       -6.858278   -1.658716   -1.927872
      4          8           0       -3.650657   -3.210238    0.102738
      5          8           0       -7.438688   -0.683355   -0.019762
      6          8           0        3.014434    2.454206    0.509580
      7          7           0        0.329018   -0.486284    0.597897
      8          7           0       -1.659277    1.817444    0.465338
      9          7           0        3.295881   -3.057570   -0.639254
     10          7           0        0.701924    2.897705    0.174915
     11          6           0       -0.570227   -2.373818    1.351650
     12          6           0       -0.895691   -1.009877    0.829990
     13          6           0        0.846424   -2.565348    1.231802
     14          6           0        1.377975   -1.318726    0.749319
     15          6           0       -3.898800    1.443294    0.239546
     16          6           0       -2.561790    0.780671    0.517079
     17          6           0       -2.297787   -0.533711    0.695897
     18          6           0       -3.598188    2.773396   -0.017478
     19          6           0       -1.641852   -3.282750    1.926922
     20          6           0        5.525165   -2.698512   -1.305334
     21          6           0        3.657870   -1.807847   -0.239081
     22          6           0       -2.188429    3.037206    0.108972
     23          6           0        5.038730   -1.507999   -0.566138
     24          6           0       -5.233731    0.640352    0.326495
     25          6           0        2.722025   -0.924283    0.410322
     26          6           0        1.573654   -3.664216    1.863317
     27          6           0        4.381257   -3.701235   -1.325160
     28          6           0       -1.886253   -4.573615    1.162793
     29          6           0       -5.273031   -0.247611   -0.938978
     30          6           0       -4.635741    3.683551   -0.482882
     31          6           0       -1.343002    4.104558   -0.246702
     32          6           0        6.888059   -3.498106   -0.980475
     33          6           0        5.782015   -0.402433   -0.213418
     34          6           0        0.027809    4.120292   -0.060247
     35          6           0        0.989581    5.139983   -0.512322
     36          6           0        2.219339    4.614497   -0.267589
     37          6           0       -2.843117   -4.116198    0.019983
     38          6           0        5.430517    0.728499    0.659902
     39          6           0       -6.640914   -0.857627   -0.909366
     40          6           0        3.554424    5.294243   -0.404551
     41          6           0        2.046129    3.233469    0.222835
     42          6           0        0.581029    6.527015   -0.897515
     43          6           0        4.069868    5.618350    1.053432
     44          1           0        0.462956    0.497438    0.275078
     45          1           0       -3.102626   -1.256697    1.011791
     46          1           0       -2.649320   -2.875425    2.256351
     47          1           0       -1.151729   -3.537109    2.825592
     48          1           0        5.565541   -2.427407   -2.283887
     49          1           0       -5.054992   -0.127798    1.226141
     50          1           0       -6.130577    1.201129    0.207227
     51          1           0        3.080578    0.122406    0.406936
     52          1           0       -0.600725    2.000741    0.514135
     53          1           0        1.456186   -4.684423    1.389991
     54          1           0        2.718107   -3.302895    1.751314
     55          1           0        1.229673   -3.812727    2.942717
     56          1           0        2.340662   -3.537373   -0.621095
     57          1           0       -0.985649   -4.859641    0.874660
     58          1           0       -2.381980   -5.301200    1.873814
     59          1           0       -4.601057   -1.065101   -0.973235
     60          1           0       -5.238300    0.447714   -1.713388
     61          1           0       -4.745820    4.786568    0.028992
     62          1           0       -5.639000    3.329746   -0.344408
     63          1           0       -4.620297    3.793366   -1.648510
     64          1           0       -1.817608    5.166874   -0.506409
     65          1           0        7.802267   -2.797883   -1.036467
     66          1           0        6.934849   -4.399020   -1.529287
     67          1           0        6.968921   -3.615685    0.115394
     68          1           0        6.775086   -0.541108   -0.510696
     69          1           0        4.431357    1.156247    0.270509
     70          1           0        6.312503    1.600305    0.822418
     71          1           0        4.705262    0.487267    1.726345
     72          1           0        3.363917    6.011950   -1.257228
     73          1           0        4.313806    4.636661   -0.824155
     74          1           0        0.222232    6.603683   -1.893560
     75          1           0        1.387464    7.169915   -0.839078
     76          1           0       -0.433775    6.799695   -0.359225
     77          1           0        3.272798    6.241343    1.584685
     78          1           0        5.011591    6.254877    0.865241
     79          1           0        4.067463    4.532287    1.548969
     80          1           0       -3.585380   -4.601972   -1.469785
     81          1           0       -7.697943   -1.949279   -1.689787
 ---------------------------------------------------------------------

 SCF Done:  E(RB3LYP) =  -1949.11552051     A.U. after   17 cycles

 Excitation energies and oscillator strengths:

 Excited State   1:      Singlet-A      1.5495 eV  800.18 nm  f=0.2575  <S**2>=0.000
     156 ->157         0.71042
     156 <-157        -0.12316
 This state for optimization and/or second-order correction.
 Total Energy, E(TD-HF/TD-DFT) =  -1949.05857897
 Copying the excited state density for this state as the 1-particle RhoCI density.

 The electronic state is 1-A.
 Alpha  occ. eigenvalues --  -19.20466 -19.19162 -19.15281 -19.12873 -19.12323
 Alpha  occ. eigenvalues --  -19.09313 -14.37909 -14.36678 -14.35241 -14.28860
 Alpha  occ. eigenvalues --  -10.34267 -10.31777 -10.29398 -10.25916 -10.24451
 Alpha  occ. eigenvalues --  -10.24077 -10.23673 -10.23327 -10.23204 -10.22539
 Alpha  occ. eigenvalues --  -10.21976 -10.21363 -10.21153 -10.20829 -10.20787
 Alpha  occ. eigenvalues --  -10.20394 -10.20311 -10.20225 -10.20193 -10.20182
 Alpha  occ. eigenvalues --  -10.20070 -10.20062 -10.20019 -10.20013 -10.19730
 Alpha  occ. eigenvalues --  -10.19532 -10.19422 -10.19402 -10.19324 -10.19105
 Alpha  occ. eigenvalues --  -10.18629 -10.18571 -10.18145  -1.13415  -1.13226
 Alpha  occ. eigenvalues --   -1.07234  -1.03076  -1.01991  -0.98731  -0.98233
 Alpha  occ. eigenvalues --   -0.97099  -0.95502  -0.90279  -0.82587  -0.82074
 Alpha  occ. eigenvalues --   -0.81907  -0.80938  -0.79369  -0.78800  -0.78053
 Alpha  occ. eigenvalues --   -0.77358  -0.76312  -0.74874  -0.73572  -0.71618
 Alpha  occ. eigenvalues --   -0.70261  -0.69505  -0.68638  -0.67943  -0.67641
 Alpha  occ. eigenvalues --   -0.67249  -0.65757  -0.64042  -0.61792  -0.61324
 Alpha  occ. eigenvalues --   -0.60754  -0.59753  -0.58851  -0.57891  -0.56465
 Alpha  occ. eigenvalues --   -0.55639  -0.55314  -0.54896  -0.54222  -0.52791
 Alpha  occ. eigenvalues --   -0.52783  -0.52061  -0.51723  -0.51316  -0.50987
 Alpha  occ. eigenvalues --   -0.50373  -0.49861  -0.49780  -0.49405  -0.48236
 Alpha  occ. eigenvalues --   -0.47138  -0.46751  -0.46310  -0.45625  -0.44966
 Alpha  occ. eigenvalues --   -0.44617  -0.44579  -0.44404  -0.44084  -0.43835
 Alpha  occ. eigenvalues --   -0.43481  -0.43283  -0.42629  -0.42491  -0.42376
 Alpha  occ. eigenvalues --   -0.42197  -0.41982  -0.41858  -0.41367  -0.40793
 Alpha  occ. eigenvalues --   -0.40698  -0.40192  -0.39760  -0.39607  -0.39140
 Alpha  occ. eigenvalues --   -0.39047  -0.38619  -0.38537  -0.37969  -0.37722
 Alpha  occ. eigenvalues --   -0.37563  -0.37497  -0.37206  -0.36914  -0.36471
 Alpha  occ. eigenvalues --   -0.36404  -0.35873  -0.35667  -0.35179  -0.34957
 Alpha  occ. eigenvalues --   -0.34692  -0.34083  -0.33545  -0.33339  -0.33289
 Alpha  occ. eigenvalues --   -0.32960  -0.32772  -0.32048  -0.30969  -0.29370
 Alpha  occ. eigenvalues --   -0.28868  -0.27808  -0.27288  -0.25572  -0.24617
 Alpha  occ. eigenvalues --   -0.24418  -0.24198  -0.23751  -0.22571  -0.21258
 Alpha  occ. eigenvalues --   -0.17168
 Alpha virt. eigenvalues --   -0.10756  -0.05492  -0.04297  -0.02306   0.00611
 Alpha virt. eigenvalues --    0.00776   0.02372   0.03263   0.03494   0.03886
 Alpha virt. eigenvalues --    0.04575   0.05076   0.05328   0.05690   0.06091

 Mulliken charges:
               1
     1  O   -0.132117
     2  O   -0.122530
     3  O   -0.104627
     4  O   -0.245770
     5  O   -0.242157
     6  O   -0.295332
     7  N   -0.023034
     8  N   -0.125616
     9  N   -0.165693
    10  N   -0.373428
    11  C   -0.135838
    12  C    0.010713
    13  C   -0.169385
    14  C    0.082473
    15  C   -0.087132
    16  C    0.119253
    17  C   -0.069896
    18  C   -0.103118
    19  C    0.067485
    20  C    0.017447
    21  C    0.050151
    22  C    0.080422
    23  C   -0.047728
    24  C    0.122687
    25  C   -0.093399
    26  C   -0.004636
    27  C    0.073966
    28  C    0.104681
    29  C    0.039058
    30  C    0.018291
    31  C   -0.104326
    32  C    0.043672
    33  C   -0.045393
    34  C    0.077629
    35  C   -0.092281
    36  C   -0.195289
    37  C    0.127006
    38  C   -0.074145
    39  C    0.085135
    40  C    0.075734
    41  C    0.205497
    42  C    0.143570
    43  C   -0.055700
    44  H    0.149456
    45  H    0.048586
    46  H    0.027944
    47  H   -0.023694
    48  H    0.011091
    49  H    0.047021
    50  H    0.005790
    51  H   -0.018572
    52  H    0.157488
    53  H    0.028856
    54  H    0.058946
    55  H    0.041610
    56  H    0.162707
    57  H   -0.028616
    58  H    0.056565
    59  H    0.043893
    60  H    0.013296
    61  H    0.034451
    62  H   -0.009090
    63  H    0.032631
    64  H    0.009495
    65  H    0.021011
    66  H    0.041983
    67  H    0.013821
    68  H   -0.039350
    69  H    0.113177
    70  H    0.050478
    71  H    0.054570
    72  H    0.000779
    73  H    0.001070
    74  H   -0.001291
    75  H    0.001665
    76  H    0.028664
    77  H    0.022014
    78  H    0.036444
    79  H    0.071858
    80  H    0.160829
    81  H    0.136123
 Sum of Mulliken charges =  -0.00000

 Dipole moment (field-independent basis, Debye):
    X=             -2.5764    Y=             -0.9962    Z=             -1.5112  Tot=              3.1486
 Quadrupole moment (field-independent basis, Debye-Ang):
   XX=           -245.2662   YY=           -238.3453   ZZ=           -256.5115
   XY=             11.2661   XZ=              9.1319   YZ=            -14.9723

 Normal termination of Gaussian 16 at Sat Jun 29 11:40:02 2019.
