 Gaussian 16, Revision A.03,
 Gaussian 16:  ES64L-G16RevA.03 25-Dec-2016

 --------------------------
 # td=(NStates=1) B3LYP/SVP
 --------------------------

 --
 TD
 --
 Symbolic Z-matrix:
 Charge =  0 Multiplicity = 1

                         Standard orientation:
 ---------------------------------------------------------------------
 Center     Atomic      Atomic             Coordinates (Angstroms)
 Number     Number       Type             X           Y           Z
 ---------------------------------------------------------------------
      1          8           0        4.152989   -4.822945   -1.973356
      2          8           0       -3.053836   -4.860181   -0.995561
      3          8           0       -6.821973   -1.463473   -1.944379
      4          8           0       -3.772635   -3.128080    0.114790
      5          8           0       -7.581212   -0.393855   -0.176001
      6          8           0        2.892106    2.142887    0.421125
      7          7           0        0.247748   -0.504100    0.658024
      8          7           0       -1.558443    1.846430    0.422372
      9          7           0        3.196955   -3.088511   -0.669520
     10          7           0        0.894613    2.868064    0.075000
     11          6           0       -0.772564   -2.410063    1.401646
     12          6           0       -0.992980   -1.025559    1.049517
     13          6           0        0.641950   -2.634871    1.091065
     14          6           0        1.191186   -1.421268    0.589677
     15          6           0       -3.765712    1.684181    0.301364
     16          6           0       -2.481297    0.921701    0.511707
     17          6           0       -2.238521   -0.363983    0.971637
     18          6           0       -3.442008    2.969783   -0.059186
     19          6           0       -1.639126   -3.401547    2.089985
     20          6           0        5.407251   -2.794934   -1.310181
     21          6           0        3.485289   -1.823602   -0.248552
     22          6           0       -2.059421    3.063376    0.092321
     23          6           0        4.892615   -1.635617   -0.436910
     24          6           0       -5.111856    0.944984    0.224998
     25          6           0        2.564446   -1.104948    0.334187
     26          6           0        1.365696   -3.814433    1.663952
     27          6           0        4.194902   -3.721004   -1.330417
     28          6           0       -2.098425   -4.602172    1.120462
     29          6           0       -5.249042    0.037390   -0.873482
     30          6           0       -4.385725    4.097386   -0.309283
     31          6           0       -1.157831    4.169161   -0.193145
     32          6           0        6.678883   -3.524843   -0.745247
     33          6           0        5.653491   -0.617653   -0.080396
     34          6           0        0.207199    3.960425   -0.234119
     35          6           0        1.187975    5.084663   -0.461922
     36          6           0        2.420413    4.473274   -0.261661
     37          6           0       -3.027444   -4.117014    0.067217
     38          6           0        5.353293    0.652985    0.651557
     39          6           0       -6.660139   -0.621572   -0.936189
     40          6           0        3.803330    5.014771   -0.429493
     41          6           0        2.147264    3.093873    0.084173
     42          6           0        0.955911    6.513126   -0.639490
     43          6           0        4.465425    5.400198    0.914683
     44          1           0        0.351357    0.327289   -0.175640
     45          1           0       -3.231945   -0.936159    0.954787
     46          1           0       -2.735348   -2.918457    2.580366
     47          1           0       -0.977886   -3.994974    2.854165
     48          1           0        5.473942   -2.440759   -2.333464
     49          1           0       -5.196301    0.465564    1.202454
     50          1           0       -5.854878    1.768344    0.135877
     51          1           0        2.757563   -0.005723    0.496204
     52          1           0       -0.473642    1.834687    0.471486
     53          1           0        1.461432   -4.588654    1.009079
     54          1           0        2.237478   -3.645521    2.023825
     55          1           0        1.070496   -4.285864    2.500433
     56          1           0        2.214444   -3.454398   -0.736803
     57          1           0       -1.103820   -4.937773    0.600034
     58          1           0       -2.682166   -5.188859    1.691151
     59          1           0       -4.525322   -0.870985   -0.933296
     60          1           0       -5.237087    0.567953   -1.969057
     61          1           0       -4.460322    4.875357    0.566181
     62          1           0       -5.549394    3.803172   -0.443814
     63          1           0       -4.285393    4.559442   -1.328352
     64          1           0       -1.629498    4.963548   -0.751656
     65          1           0        7.722204   -2.755505   -0.713484
     66          1           0        6.953727   -4.482404   -1.330807
     67          1           0        6.512165   -3.885320    0.327168
     68          1           0        6.916518   -0.795703   -0.313273
     69          1           0        5.000136    1.342086   -0.088388
     70          1           0        6.418545    0.879150    1.185263
     71          1           0        4.462927    0.449630    1.333435
     72          1           0        3.889923    5.829019   -1.072996
     73          1           0        4.429568    4.102143   -0.841223
     74          1           0        0.185274    6.674664   -1.340053
     75          1           0        1.845576    7.074277   -1.074159
     76          1           0        0.521940    7.184261    0.231329
     77          1           0        3.748704    5.912370    1.846323
     78          1           0        5.498192    5.974927    0.833071
     79          1           0        4.688837    4.510096    1.370049
     80          1           0       -3.929363   -4.366629   -1.472325
     81          1           0       -7.684773   -1.869454   -1.930806
 ---------------------------------------------------------------------

 SCF Done:  E(RB3LYP) =  -1949.06279698     A.U. after   24 cycles

 Excitation energies and oscillator strengths:

 Excited State   1:      Singlet-A      1.7885 eV  693.23 nm  f=0.3001  <S**2>=0.000
     156 ->157         0.70559
     156 <-157        -0.11437
 This state for optimization and/or second-order correction.
 Total Energy, E(TD-HF/TD-DFT) =  -1948.99707128
 Copying the excited state density for this state as the 1-particle RhoCI density.

 The electronic state is 1-A.
 Alpha  occ. eigenvalues --  -19.20972 -19.18525 -19.14002 -19.12083 -19.10084
 Alpha  occ. eigenvalues --  -19.08057 -14.39101 -14.37720 -14.36207 -14.27664
 Alpha  occ. eigenvalues --  -10.33444 -10.32037 -10.28799 -10.24301 -10.24289
 Alpha  occ. eigenvalues --  -10.24015 -10.23944 -10.23907 -10.23585 -10.23239
 Alpha  occ. eigenvalues --  -10.22724 -10.22371 -10.22327 -10.22244 -10.21979
 Alpha  occ. eigenvalues --  -10.21593 -10.21351 -10.21339 -10.20652 -10.20627
 Alpha  occ. eigenvalues --  -10.20411 -10.20281 -10.20253 -10.19559 -10.19532
 Alpha  occ. eigenvalues --  -10.19043 -10.18982 -10.18875 -10.18651 -10.18339
 Alpha  occ. eigenvalues --  -10.18172 -10.17905 -10.17052  -1.12567  -1.10811
 Alpha  occ. eigenvalues --   -1.01561  -1.00637  -1.00483  -1.00179  -1.00004
 Alpha  occ. eigenvalues --   -0.99065  -0.95245  -0.92277  -0.82784  -0.82706
 Alpha  occ. eigenvalues --   -0.82124  -0.81553  -0.80021  -0.79500  -0.78640
 Alpha  occ. eigenvalues --   -0.78039  -0.77072  -0.74941  -0.74132  -0.73565
 Alpha  occ. eigenvalues --   -0.71530  -0.70140  -0.68997  -0.68187  -0.68105
 Alpha  occ. eigenvalues --   -0.67890  -0.65899  -0.64294  -0.62606  -0.61594
 Alpha  occ. eigenvalues --   -0.60474  -0.60080  -0.59666  -0.58530  -0.57474
 Alpha  occ. eigenvalues --   -0.56417  -0.55731  -0.54612  -0.53950  -0.53712
 Alpha  occ. eigenvalues --   -0.52325  -0.51733  -0.51439  -0.50552  -0.50308
 Alpha  occ. eigenvalues --   -0.49596  -0.49192  -0.49031  -0.47966  -0.47519
 Alpha  occ. eigenvalues --   -0.47008  -0.46800  -0.46088  -0.45708  -0.45537
 Alpha  occ. eigenvalues --   -0.45276  -0.44937  -0.44601  -0.44290  -0.44244
 Alpha  occ. eigenvalues --   -0.43564  -0.43515  -0.42882  -0.42422  -0.42086
 Alpha  occ. eigenvalues --   -0.41835  -0.41685  -0.41445  -0.41160  -0.40976
 Alpha  occ. eigenvalues --   -0.40523  -0.40428  -0.40142  -0.39855  -0.39489
 Alpha  occ. eigenvalues --   -0.39226  -0.39151  -0.38575  -0.38348  -0.38158
 Alpha  occ. eigenvalues --   -0.37914  -0.37572  -0.37116  -0.36539  -0.36374
 Alpha  occ. eigenvalues --   -0.35766  -0.35534  -0.35043  -0.34813  -0.34642
 Alpha  occ. eigenvalues --   -0.34095  -0.34002  -0.33570  -0.33365  -0.32427
 Alpha  occ. eigenvalues --   -0.32356  -0.31430  -0.31367  -0.30213  -0.29773
 Alpha  occ. eigenvalues --   -0.27733  -0.26805  -0.26309  -0.26167  -0.25810
 Alpha  occ. eigenvalues --   -0.25253  -0.24617  -0.23563  -0.22993  -0.21947
 Alpha  occ. eigenvalues --   -0.18345
 Alpha virt. eigenvalues --   -0.11064  -0.05886  -0.03746  -0.01386  -0.00027
 Alpha virt. eigenvalues --    0.00175   0.00871   0.01090   0.02852   0.03218
 Alpha virt. eigenvalues --    0.03621   0.03830   0.04019   0.04964   0.05291

 Mulliken charges:
               1
     1  O   -0.282424
     2  O   -0.187889
     3  O   -0.155145
     4  O   -0.283487
     5  O   -0.238225
     6  O   -0.260474
     7  N   -0.097819
     8  N   -0.051975
     9  N   -0.078120
    10  N   -0.181748
    11  C   -0.052208
    12  C    0.064083
    13  C   -0.197434
    14  C    0.023018
    15  C   -0.109284
    16  C   -0.027777
    17  C   -0.039879
    18  C   -0.076059
    19  C   -0.014173
    20  C   -0.009594
    21  C    0.154166
    22  C    0.014028
    23  C    0.032553
    24  C    0.161910
    25  C   -0.191160
    26  C    0.249292
    27  C    0.111067
    28  C    0.073914
    29  C   -0.072192
    30  C   -0.001704
    31  C   -0.085964
    32  C   -0.038380
    33  C   -0.264647
    34  C    0.084318
    35  C   -0.097670
    36  C   -0.170346
    37  C    0.108008
    38  C    0.080057
    39  C    0.110273
    40  C    0.103905
    41  C    0.076763
    42  C    0.078636
    43  C   -0.054871
    44  H    0.212413
    45  H    0.045955
    46  H    0.060221
    47  H    0.038696
    48  H    0.044032
    49  H    0.023407
    50  H    0.006238
    51  H    0.042707
    52  H    0.164188
    53  H   -0.021541
    54  H   -0.042799
    55  H   -0.042272
    56  H    0.148106
    57  H    0.068112
    58  H    0.015948
    59  H    0.069318
    60  H    0.051516
    61  H    0.059841
    62  H    0.023085
    63  H    0.030764
    64  H   -0.017554
    65  H    0.042169
    66  H    0.052641
    67  H    0.029527
    68  H    0.020429
    69  H    0.053498
    70  H    0.034597
    71  H    0.056277
    72  H   -0.018071
    73  H    0.029864
    74  H   -0.013539
    75  H    0.020162
    76  H    0.040690
    77  H    0.026182
    78  H    0.024795
    79  H    0.003869
    80  H    0.236853
    81  H    0.174332
 Sum of Mulliken charges =  -0.00000

 Dipole moment (field-independent basis, Debye):
    X=             -3.9272    Y=             -0.0338    Z=             -0.5946  Tot=              3.9721
 Quadrupole moment (field-independent basis, Debye-Ang):
   XX=           -257.2331   YY=           -244.5097   ZZ=           -255.2251
   XY=             17.2860   XZ=             16.6268   YZ=            -20.9365

 Normal termination of Gaussian 16 at Wed Jul  3 15:24:03 2019.
