 Gaussian 16, Revision A.03,
 Gaussian 16:  ES64L-G16RevA.03 25-Dec-2016

 --------------------------
 # td=(NStates=1) B3LYP/SVP
 --------------------------

 --
 TD
 --
 Symbolic Z-matrix:
 Charge =  0 Multiplicity = 1

                         Standard orientation:
 ---------------------------------------------------------------------
 Center     Atomic      Atomic             Coordinates (Angstroms)
 Number     Number       Type             X           Y           Z
 ---------------------------------------------------------------------
      1          8           0        4.378940   -4.741385   -1.821310
      2          8           0       -2.469197   -4.838329   -1.301790
      3          8           0       -6.919447   -1.600550   -2.027103
      4          8           0       -3.588960   -3.221064   -0.314357
      5          8           0       -7.529060   -0.946642    0.152851
      6          8           0        2.976532    2.614555    0.354293
      7          7           0        0.264066   -0.480922    0.648880
      8          7           0       -1.642335    1.758781    0.337159
      9          7           0        3.414662   -3.171424   -0.434811
     10          7           0        0.642462    2.914270    0.032356
     11          6           0       -0.548777   -2.357753    1.540172
     12          6           0       -0.900526   -1.123122    0.952950
     13          6           0        0.846337   -2.589684    1.390486
     14          6           0        1.348648   -1.440990    0.782667
     15          6           0       -3.829640    1.396033    0.283464
     16          6           0       -2.531302    0.737629    0.554876
     17          6           0       -2.207038   -0.513503    0.961197
     18          6           0       -3.646114    2.716141    0.004049
     19          6           0       -1.519333   -3.462482    2.089230
     20          6           0        5.567867   -2.554611   -1.368584
     21          6           0        3.661419   -1.800445   -0.021904
     22          6           0       -2.240588    2.958046   -0.011378
     23          6           0        5.071368   -1.437524   -0.488925
     24          6           0       -5.175582    0.642530    0.441796
     25          6           0        2.685026   -0.998758    0.430806
     26          6           0        1.645796   -3.745602    1.854770
     27          6           0        4.406234   -3.616018   -1.287846
     28          6           0       -1.925638   -4.513020    1.035181
     29          6           0       -5.390885   -0.274163   -0.701636
     30          6           0       -4.696677    3.688661   -0.436450
     31          6           0       -1.525418    4.065401   -0.377230
     32          6           0        6.939307   -3.243186   -1.168471
     33          6           0        5.719347   -0.335033   -0.167019
     34          6           0       -0.052437    3.999467   -0.273189
     35          6           0        0.834522    5.155596   -0.526872
     36          6           0        2.162198    4.752386   -0.289937
     37          6           0       -2.767590   -4.078480   -0.165827
     38          6           0        5.364862    0.619872    0.943110
     39          6           0       -6.734939   -0.962880   -0.827181
     40          6           0        3.509069    5.502319   -0.335941
     41          6           0        2.025578    3.318265    0.134960
     42          6           0        0.366336    6.541101   -0.935147
     43          6           0        4.154093    5.655430    1.070489
     44          1           0        0.209702    0.276945   -0.006396
     45          1           0       -3.204364   -1.142077    1.196424
     46          1           0       -2.528946   -3.039065    2.347441
     47          1           0       -1.125236   -3.934935    2.947616
     48          1           0        5.609997   -2.328970   -2.466356
     49          1           0       -5.255566    0.234646    1.322153
     50          1           0       -6.015621    1.436824    0.562960
     51          1           0        2.776387    0.129767    0.171014
     52          1           0       -0.804452    1.616995    0.613174
     53          1           0        1.670095   -4.487111    1.010518
     54          1           0        2.745647   -3.428507    2.080132
     55          1           0        1.026372   -4.221206    2.916426
     56          1           0        2.586477   -3.783601   -0.613964
     57          1           0       -0.997081   -4.973685    0.568451
     58          1           0       -2.578278   -5.230616    1.466425
     59          1           0       -4.600160   -1.003914   -0.643862
     60          1           0       -5.311038    0.139016   -1.638474
     61          1           0       -4.561579    4.602454    0.157862
     62          1           0       -5.642889    3.425327   -0.134464
     63          1           0       -4.371037    3.856364   -1.561736
     64          1           0       -1.888065    5.034841   -0.373053
     65          1           0        7.751593   -2.334076   -1.438636
     66          1           0        7.210470   -4.094429   -1.829367
     67          1           0        7.118366   -3.477733   -0.138320
     68          1           0        6.743554   -0.404770   -0.615712
     69          1           0        5.165897    1.742829    0.458942
     70          1           0        6.329834    0.843999    1.679842
     71          1           0        4.441412    0.231436    1.606967
     72          1           0        3.507021    6.447120   -0.928916
     73          1           0        4.284582    4.937939   -1.015225
     74          1           0       -0.248759    6.516591   -1.913567
     75          1           0        1.197812    7.290139   -1.065662
     76          1           0       -0.256941    7.094172   -0.156566
     77          1           0        3.422002    6.361421    1.469265
     78          1           0        5.225362    6.090840    1.196313
     79          1           0        4.138856    4.679050    1.456652
     80          1           0       -3.220874   -4.707139   -1.800447
     81          1           0       -7.786145   -1.884248   -1.833617
 ---------------------------------------------------------------------

 SCF Done:  E(RB3LYP) =  -1949.12786473     A.U. after   16 cycles

 Excitation energies and oscillator strengths:

 Excited State   1:      Singlet-A      1.7795 eV  696.72 nm  f=0.2810  <S**2>=0.000
     156 ->157         0.70617
     156 <-157        -0.10497
 This state for optimization and/or second-order correction.
 Total Energy, E(TD-HF/TD-DFT) =  -1949.06246816
 Copying the excited state density for this state as the 1-particle RhoCI density.

 The electronic state is 1-A.
 Alpha  occ. eigenvalues --  -19.19744 -19.17348 -19.14712 -19.13155 -19.12124
 Alpha  occ. eigenvalues --  -19.10268 -14.37307 -14.36953 -14.35356 -14.29419
 Alpha  occ. eigenvalues --  -10.33462 -10.32756 -10.28510 -10.27533 -10.24780
 Alpha  occ. eigenvalues --  -10.24533 -10.23759 -10.23526 -10.23311 -10.23192
 Alpha  occ. eigenvalues --  -10.22472 -10.22301 -10.21953 -10.21498 -10.21150
 Alpha  occ. eigenvalues --  -10.21082 -10.20957 -10.20830 -10.20808 -10.20408
 Alpha  occ. eigenvalues --  -10.20350 -10.20328 -10.20191 -10.20138 -10.20113
 Alpha  occ. eigenvalues --  -10.20068 -10.19779 -10.19744 -10.19528 -10.19495
 Alpha  occ. eigenvalues --  -10.19185 -10.19014 -10.18060  -1.11078  -1.10475
 Alpha  occ. eigenvalues --   -1.03493  -1.01706  -1.01551  -0.99692  -0.99433
 Alpha  occ. eigenvalues --   -0.97233  -0.93142  -0.91938  -0.83194  -0.82225
 Alpha  occ. eigenvalues --   -0.81864  -0.81680  -0.79907  -0.79007  -0.78165
 Alpha  occ. eigenvalues --   -0.77713  -0.76195  -0.74919  -0.74288  -0.72522
 Alpha  occ. eigenvalues --   -0.71920  -0.69732  -0.68954  -0.68433  -0.68356
 Alpha  occ. eigenvalues --   -0.67294  -0.65057  -0.63377  -0.62050  -0.61049
 Alpha  occ. eigenvalues --   -0.59947  -0.59547  -0.58635  -0.58382  -0.56590
 Alpha  occ. eigenvalues --   -0.56295  -0.56051  -0.54550  -0.54218  -0.53009
 Alpha  occ. eigenvalues --   -0.52690  -0.51643  -0.51022  -0.50313  -0.49893
 Alpha  occ. eigenvalues --   -0.49622  -0.49298  -0.48575  -0.48091  -0.47537
 Alpha  occ. eigenvalues --   -0.46790  -0.46699  -0.46053  -0.45946  -0.45394
 Alpha  occ. eigenvalues --   -0.44760  -0.44518  -0.44361  -0.43855  -0.43752
 Alpha  occ. eigenvalues --   -0.43281  -0.43107  -0.42944  -0.42575  -0.42390
 Alpha  occ. eigenvalues --   -0.42234  -0.41869  -0.41119  -0.41036  -0.40904
 Alpha  occ. eigenvalues --   -0.40594  -0.40483  -0.40307  -0.40281  -0.40117
 Alpha  occ. eigenvalues --   -0.39865  -0.39815  -0.39375  -0.38865  -0.38474
 Alpha  occ. eigenvalues --   -0.37919  -0.37730  -0.37466  -0.36722  -0.36637
 Alpha  occ. eigenvalues --   -0.36360  -0.35564  -0.35379  -0.35023  -0.34802
 Alpha  occ. eigenvalues --   -0.34555  -0.34338  -0.33882  -0.33744  -0.33301
 Alpha  occ. eigenvalues --   -0.32572  -0.32534  -0.32439  -0.30341  -0.29489
 Alpha  occ. eigenvalues --   -0.28422  -0.28055  -0.26666  -0.26190  -0.25898
 Alpha  occ. eigenvalues --   -0.25570  -0.25091  -0.24511  -0.23629  -0.22052
 Alpha  occ. eigenvalues --   -0.17999
 Alpha virt. eigenvalues --   -0.10796  -0.06587  -0.03991  -0.01551  -0.00825
 Alpha virt. eigenvalues --    0.00060   0.02013   0.02338   0.03657   0.04001
 Alpha virt. eigenvalues --    0.04841   0.04983   0.05178   0.05754   0.06065

 Mulliken charges:
               1
     1  O   -0.257026
     2  O   -0.182560
     3  O   -0.149255
     4  O   -0.196215
     5  O   -0.278532
     6  O   -0.176226
     7  N   -0.099331
     8  N    0.001358
     9  N   -0.171026
    10  N   -0.295216
    11  C   -0.132949
    12  C    0.046529
    13  C   -0.139210
    14  C    0.073050
    15  C   -0.109458
    16  C   -0.001058
    17  C   -0.055439
    18  C   -0.164284
    19  C    0.131687
    20  C   -0.040806
    21  C    0.135139
    22  C    0.160939
    23  C    0.005126
    24  C    0.175536
    25  C   -0.138981
    26  C    0.016942
    27  C    0.091213
    28  C    0.026646
    29  C    0.069311
    30  C    0.163945
    31  C   -0.087235
    32  C    0.007140
    33  C   -0.101259
    34  C    0.030945
    35  C   -0.099513
    36  C   -0.145719
    37  C    0.103914
    38  C   -0.063054
    39  C    0.150912
    40  C    0.027410
    41  C    0.160603
    42  C    0.035956
    43  C   -0.005099
    44  H    0.136488
    45  H    0.049769
    46  H    0.010192
    47  H   -0.005245
    48  H    0.044934
    49  H   -0.036808
    50  H   -0.000100
    51  H    0.069173
    52  H    0.041942
    53  H    0.033460
    54  H    0.059185
    55  H    0.046912
    56  H    0.155124
    57  H    0.046502
    58  H    0.034163
    59  H    0.045836
    60  H   -0.009719
    61  H    0.008070
    62  H   -0.015051
    63  H    0.061162
    64  H   -0.041069
    65  H    0.019625
    66  H    0.050410
    67  H    0.014250
    68  H   -0.003547
    69  H    0.082735
    70  H    0.032142
    71  H    0.072097
    72  H   -0.000159
    73  H    0.016611
    74  H    0.039727
    75  H    0.018506
    76  H    0.034465
    77  H    0.014126
    78  H    0.028652
    79  H    0.028861
    80  H    0.141366
    81  H    0.150361
 Sum of Mulliken charges =  -0.00000

 Dipole moment (field-independent basis, Debye):
    X=             -2.7163    Y=              2.1196    Z=              0.0435  Tot=              3.4457
 Quadrupole moment (field-independent basis, Debye-Ang):
   XX=           -253.5173   YY=           -239.2140   ZZ=           -256.4144
   XY=             13.7358   XZ=             11.2093   YZ=            -14.3392

 Normal termination of Gaussian 16 at Mon Jul  1 12:45:07 2019.
