 Gaussian 16, Revision A.03,
 Gaussian 16:  ES64L-G16RevA.03 25-Dec-2016

 --------------------------
 # td=(NStates=1) B3LYP/SVP
 --------------------------

 --
 TD
 --
 Symbolic Z-matrix:
 Charge =  0 Multiplicity = 1

                         Standard orientation:
 ---------------------------------------------------------------------
 Center     Atomic      Atomic             Coordinates (Angstroms)
 Number     Number       Type             X           Y           Z
 ---------------------------------------------------------------------
      1          8           0        4.086465   -4.993428   -1.918208
      2          8           0       -3.088655   -4.767924   -0.980866
      3          8           0       -6.702543   -1.621802   -1.971811
      4          8           0       -3.822831   -3.083588    0.217514
      5          8           0       -7.508098   -0.523779   -0.186437
      6          8           0        3.097303    2.523533    0.436691
      7          7           0        0.293425   -0.490781    0.687911
      8          7           0       -1.498729    1.797091    0.354155
      9          7           0        3.157213   -3.222688   -0.684753
     10          7           0        0.829996    2.933765    0.192306
     11          6           0       -0.674606   -2.382687    1.485918
     12          6           0       -0.960885   -1.056957    1.129097
     13          6           0        0.692176   -2.604580    1.342275
     14          6           0        1.335315   -1.407632    0.821534
     15          6           0       -3.739744    1.557184    0.288328
     16          6           0       -2.510698    0.877019    0.525608
     17          6           0       -2.221304   -0.381573    1.015893
     18          6           0       -3.493817    2.797774   -0.054496
     19          6           0       -1.687264   -3.290761    2.111883
     20          6           0        5.387871   -2.950885   -1.343236
     21          6           0        3.556750   -1.907191   -0.202679
     22          6           0       -2.061554    3.022900   -0.030053
     23          6           0        4.902503   -1.761844   -0.566741
     24          6           0       -5.097562    0.873725    0.214160
     25          6           0        2.584186   -0.991008    0.347003
     26          6           0        1.453313   -3.808449    1.848351
     27          6           0        4.237708   -3.852065   -1.402521
     28          6           0       -2.093318   -4.506580    1.250732
     29          6           0       -5.294667   -0.048530   -1.047628
     30          6           0       -4.398480    3.836090   -0.513233
     31          6           0       -1.303550    4.152021   -0.203891
     32          6           0        6.786273   -3.673129   -0.988909
     33          6           0        5.689787   -0.579737   -0.371101
     34          6           0        0.166110    4.052120   -0.229791
     35          6           0        1.080550    5.173016   -0.461717
     36          6           0        2.400397    4.730835   -0.244558
     37          6           0       -2.973612   -3.945628    0.129424
     38          6           0        5.532749    0.589569    0.667510
     39          6           0       -6.607949   -0.732291   -0.938075
     40          6           0        3.734515    5.346956   -0.206698
     41          6           0        2.160202    3.265711    0.147772
     42          6           0        0.642126    6.611891   -0.956867
     43          6           0        4.242040    5.594168    1.120057
     44          1           0        0.480184    0.498566    0.322954
     45          1           0       -3.095942   -1.137313    1.023083
     46          1           0       -2.572203   -2.701602    2.294882
     47          1           0       -1.186645   -3.900907    3.030913
     48          1           0        5.232564   -2.668229   -2.411945
     49          1           0       -5.117839    0.276390    1.142037
     50          1           0       -5.884692    1.572716    0.073363
     51          1           0        2.905375    0.032058    0.349728
     52          1           0       -0.510682    1.914784    0.449155
     53          1           0        1.363420   -4.489189    0.906613
     54          1           0        2.463543   -3.479963    1.847030
     55          1           0        0.990307   -4.385235    2.829156
     56          1           0        2.154263   -3.295283   -1.020372
     57          1           0       -1.283446   -5.127933    0.799882
     58          1           0       -2.772225   -5.216049    1.767186
     59          1           0       -4.611544   -0.937286   -1.126031
     60          1           0       -5.244457    0.551487   -2.035661
     61          1           0       -4.748131    4.577555    0.361227
     62          1           0       -5.379802    3.435232   -0.804627
     63          1           0       -4.003953    4.328779   -1.591652
     64          1           0       -1.629191    5.010891   -0.606037
     65          1           0        7.653307   -3.058763   -1.135954
     66          1           0        6.960422   -4.523521   -1.777644
     67          1           0        6.645528   -4.151724   -0.014044
     68          1           0        6.651237   -0.595006   -0.714101
     69          1           0        4.855974    1.416495    0.087152
     70          1           0        6.499151    0.874222    1.061586
     71          1           0        4.768246    0.203947    1.420284
     72          1           0        3.865147    6.341589   -0.928028
     73          1           0        4.287092    4.591203   -0.505123
     74          1           0        0.207961    6.265813   -1.998875
     75          1           0        1.407593    7.279857   -1.044715
     76          1           0       -0.154952    7.286155   -0.224485
     77          1           0        3.465546    6.075976    1.865365
     78          1           0        5.161268    6.051012    1.294592
     79          1           0        4.591294    4.604311    1.517472
     80          1           0       -3.694684   -4.355149   -1.507051
     81          1           0       -7.478870   -2.148407   -1.719815
 ---------------------------------------------------------------------

 SCF Done:  E(RB3LYP) =  -1949.11250332     A.U. after   17 cycles

 Excitation energies and oscillator strengths:

 Excited State   1:      Singlet-A      1.6153 eV  767.57 nm  f=0.2998  <S**2>=0.000
     156 ->157         0.71283
     156 <-157        -0.13105
 This state for optimization and/or second-order correction.
 Total Energy, E(TD-HF/TD-DFT) =  -1949.05314292
 Copying the excited state density for this state as the 1-particle RhoCI density.

 The electronic state is 1-A.
 Alpha  occ. eigenvalues --  -19.17969 -19.17648 -19.14852 -19.13198 -19.11110
 Alpha  occ. eigenvalues --  -19.10609 -14.37245 -14.36846 -14.35199 -14.29714
 Alpha  occ. eigenvalues --  -10.33759 -10.31684 -10.29865 -10.26830 -10.24724
 Alpha  occ. eigenvalues --  -10.23816 -10.23722 -10.23558 -10.23393 -10.23301
 Alpha  occ. eigenvalues --  -10.22839 -10.22094 -10.21949 -10.21463 -10.21442
 Alpha  occ. eigenvalues --  -10.21354 -10.21232 -10.21038 -10.20906 -10.20885
 Alpha  occ. eigenvalues --  -10.20819 -10.20473 -10.20305 -10.19828 -10.19732
 Alpha  occ. eigenvalues --  -10.19649 -10.19639 -10.19631 -10.19472 -10.19095
 Alpha  occ. eigenvalues --  -10.18760 -10.18592 -10.17442  -1.11370  -1.10023
 Alpha  occ. eigenvalues --   -1.01754  -1.01500  -1.01273  -1.01163  -0.98048
 Alpha  occ. eigenvalues --   -0.95888  -0.93396  -0.91831  -0.83047  -0.82683
 Alpha  occ. eigenvalues --   -0.81427  -0.81073  -0.80597  -0.78712  -0.78005
 Alpha  occ. eigenvalues --   -0.77801  -0.76436  -0.75551  -0.73859  -0.72237
 Alpha  occ. eigenvalues --   -0.71080  -0.69920  -0.68976  -0.68168  -0.67845
 Alpha  occ. eigenvalues --   -0.67407  -0.65859  -0.64248  -0.62516  -0.61764
 Alpha  occ. eigenvalues --   -0.60861  -0.59309  -0.58562  -0.57270  -0.56787
 Alpha  occ. eigenvalues --   -0.55819  -0.55373  -0.54121  -0.53248  -0.52670
 Alpha  occ. eigenvalues --   -0.52226  -0.51774  -0.51186  -0.50332  -0.50143
 Alpha  occ. eigenvalues --   -0.49583  -0.49005  -0.48782  -0.48321  -0.48034
 Alpha  occ. eigenvalues --   -0.47625  -0.47228  -0.46331  -0.45615  -0.45143
 Alpha  occ. eigenvalues --   -0.44875  -0.44712  -0.44293  -0.44068  -0.43737
 Alpha  occ. eigenvalues --   -0.43546  -0.43222  -0.42881  -0.42664  -0.42092
 Alpha  occ. eigenvalues --   -0.41845  -0.41095  -0.40985  -0.40790  -0.40649
 Alpha  occ. eigenvalues --   -0.40479  -0.40403  -0.40093  -0.39853  -0.39387
 Alpha  occ. eigenvalues --   -0.39326  -0.38930  -0.38819  -0.38553  -0.38273
 Alpha  occ. eigenvalues --   -0.38007  -0.37581  -0.37251  -0.36970  -0.36532
 Alpha  occ. eigenvalues --   -0.36417  -0.36239  -0.36106  -0.35767  -0.35639
 Alpha  occ. eigenvalues --   -0.35020  -0.34236  -0.33818  -0.33682  -0.33397
 Alpha  occ. eigenvalues --   -0.33054  -0.32702  -0.32090  -0.30077  -0.29812
 Alpha  occ. eigenvalues --   -0.28847  -0.28717  -0.26557  -0.26123  -0.26073
 Alpha  occ. eigenvalues --   -0.25155  -0.24525  -0.24256  -0.23269  -0.21727
 Alpha  occ. eigenvalues --   -0.17317
 Alpha virt. eigenvalues --   -0.10860  -0.07148  -0.04992  -0.02962  -0.01008
 Alpha virt. eigenvalues --    0.00108   0.01878   0.03010   0.03426   0.04042
 Alpha virt. eigenvalues --    0.04568   0.04857   0.05186   0.05869   0.06060

 Mulliken charges:
               1
     1  O   -0.248236
     2  O   -0.159519
     3  O   -0.202782
     4  O   -0.239924
     5  O   -0.203242
     6  O   -0.231421
     7  N   -0.182296
     8  N   -0.095741
     9  N   -0.213957
    10  N   -0.305750
    11  C   -0.081067
    12  C    0.079511
    13  C   -0.217971
    14  C    0.134401
    15  C   -0.052259
    16  C    0.090469
    17  C   -0.099949
    18  C   -0.082662
    19  C    0.088022
    20  C    0.030574
    21  C    0.065671
    22  C    0.091133
    23  C   -0.078575
    24  C    0.133882
    25  C   -0.083864
    26  C    0.101681
    27  C    0.088278
    28  C    0.032404
    29  C   -0.044970
    30  C    0.016079
    31  C   -0.020988
    32  C    0.064258
    33  C   -0.091518
    34  C    0.037674
    35  C   -0.116445
    36  C   -0.177868
    37  C    0.119131
    38  C   -0.015056
    39  C    0.129156
    40  C    0.189325
    41  C    0.146536
    42  C    0.039460
    43  C   -0.022860
    44  H    0.160071
    45  H    0.048159
    46  H    0.016258
    47  H    0.031745
    48  H    0.053535
    49  H    0.026715
    50  H   -0.000389
    51  H   -0.006388
    52  H    0.109940
    53  H    0.027083
    54  H    0.015993
    55  H    0.049792
    56  H    0.165587
    57  H    0.042611
    58  H    0.057578
    59  H    0.049652
    60  H    0.058783
    61  H    0.050916
    62  H   -0.000737
    63  H    0.050143
    64  H   -0.072898
    65  H    0.021927
    66  H    0.041978
    67  H    0.039881
    68  H   -0.033349
    69  H    0.109408
    70  H    0.029186
    71  H    0.043037
    72  H    0.020567
    73  H   -0.046251
    74  H    0.053244
    75  H   -0.006133
    76  H    0.049653
    77  H    0.023050
    78  H   -0.012926
    79  H    0.014647
    80  H    0.140069
    81  H    0.169142
 Sum of Mulliken charges =  -0.00000

 Dipole moment (field-independent basis, Debye):
    X=             -0.5303    Y=              1.0450    Z=             -1.1024  Tot=              1.6089
 Quadrupole moment (field-independent basis, Debye-Ang):
   XX=           -244.9347   YY=           -248.9519   ZZ=           -256.0246
   XY=             14.2261   XZ=              7.6495   YZ=            -16.3873

 Normal termination of Gaussian 16 at Thu Jun 27 14:37:41 2019.
