 Gaussian 16, Revision A.03,
 Gaussian 16:  ES64L-G16RevA.03 25-Dec-2016

 --------------------------
 # td=(NStates=1) B3LYP/SVP
 --------------------------

 --
 TD
 --
 Symbolic Z-matrix:
 Charge =  0 Multiplicity = 1

                         Standard orientation:
 ---------------------------------------------------------------------
 Center     Atomic      Atomic             Coordinates (Angstroms)
 Number     Number       Type             X           Y           Z
 ---------------------------------------------------------------------
      1          8           0        4.442224   -4.810367   -1.800143
      2          8           0       -2.921365   -5.081880   -0.994672
      3          8           0       -6.936538   -1.767118   -1.789368
      4          8           0       -3.549747   -3.271336    0.207849
      5          8           0       -7.666440   -0.588328   -0.093526
      6          8           0        2.912322    2.498482    0.354505
      7          7           0        0.277143   -0.520261    0.620686
      8          7           0       -1.633874    1.823200    0.221598
      9          7           0        3.427830   -3.057709   -0.685343
     10          7           0        0.666264    2.981884    0.178774
     11          6           0       -0.476336   -2.462579    1.394361
     12          6           0       -0.901595   -1.012832    1.064566
     13          6           0        0.810951   -2.659726    1.151050
     14          6           0        1.302494   -1.375943    0.591662
     15          6           0       -3.817163    1.413611    0.234757
     16          6           0       -2.578026    0.798832    0.362140
     17          6           0       -2.179987   -0.448704    0.868648
     18          6           0       -3.594943    2.775568   -0.065025
     19          6           0       -1.403195   -3.504298    2.074903
     20          6           0        5.629331   -2.681836   -1.396664
     21          6           0        3.679134   -1.767956   -0.186722
     22          6           0       -2.238023    3.033246   -0.073288
     23          6           0        5.074280   -1.474385   -0.571623
     24          6           0       -5.099681    0.753507    0.309136
     25          6           0        2.627791   -0.926687    0.232273
     26          6           0        1.645375   -3.734350    1.727354
     27          6           0        4.405636   -3.670055   -1.365428
     28          6           0       -1.783683   -4.656356    1.050663
     29          6           0       -5.477043   -0.234611   -0.845647
     30          6           0       -4.727584    3.628665   -0.315571
     31          6           0       -1.440036    4.154655   -0.360282
     32          6           0        6.935300   -3.211809   -0.750652
     33          6           0        5.808317   -0.334342   -0.280451
     34          6           0       -0.090253    4.032105   -0.209224
     35          6           0        0.915034    5.159422   -0.422552
     36          6           0        2.185397    4.707496   -0.220578
     37          6           0       -2.819707   -4.223147    0.051295
     38          6           0        5.576474    0.782619    0.629292
     39          6           0       -6.791757   -0.866519   -0.809212
     40          6           0        3.402402    5.453532   -0.241686
     41          6           0        1.994131    3.268688    0.177934
     42          6           0        0.439977    6.545132   -0.883293
     43          6           0        4.064296    5.623059    1.091099
     44          1           0        0.431002    0.527328    0.330043
     45          1           0       -2.877821   -1.188526    1.045229
     46          1           0       -2.376957   -3.229597    2.494025
     47          1           0       -0.695732   -3.978700    2.749998
     48          1           0        5.628263   -2.364450   -2.502576
     49          1           0       -5.064927    0.320565    1.313829
     50          1           0       -5.924839    1.419256    0.314083
     51          1           0        2.894719    0.125557    0.265373
     52          1           0       -0.737647    1.970732    0.138422
     53          1           0        1.750589   -4.661091    1.095242
     54          1           0        2.707221   -3.485127    1.996812
     55          1           0        1.021679   -4.108368    2.554487
     56          1           0        2.519617   -3.434778   -0.600303
     57          1           0       -0.793104   -4.879925    0.554403
     58          1           0       -2.311776   -5.357727    1.421868
     59          1           0       -4.702644   -1.048112   -0.619345
     60          1           0       -5.255123    0.033513   -1.888163
     61          1           0       -4.813649    4.505324    0.386696
     62          1           0       -5.726379    3.169460   -0.140117
     63          1           0       -4.538590    4.227605   -1.386640
     64          1           0       -1.890825    5.193811   -0.665305
     65          1           0        7.789459   -2.646056   -0.728317
     66          1           0        7.009850   -4.252966   -1.186800
     67          1           0        6.700621   -3.274154    0.463167
     68          1           0        6.873784   -0.428031   -0.611928
     69          1           0        4.825885    1.454337    0.151645
     70          1           0        6.473371    1.276529    0.843681
     71          1           0        5.211012    0.564210    1.622176
     72          1           0        3.413083    6.527313   -0.801388
     73          1           0        4.133229    4.827254   -0.586393
     74          1           0       -0.054408    6.305855   -1.693831
     75          1           0        1.435756    7.222553   -0.930893
     76          1           0        0.022434    7.001984   -0.179405
     77          1           0        3.306376    6.101736    1.946269
     78          1           0        5.017916    6.429780    0.991370
     79          1           0        4.494336    4.638209    1.676111
     80          1           0       -3.800844   -5.104887   -1.548042
     81          1           0       -7.963964   -2.129825   -1.792045
 ---------------------------------------------------------------------

 SCF Done:  E(RB3LYP) =  -1949.06955893     A.U. after   19 cycles

 Excitation energies and oscillator strengths:

 Excited State   1:      Singlet-A      1.8346 eV  675.82 nm  f=0.4208  <S**2>=0.000
     156 ->157         0.71034
     156 <-157        -0.12789
 This state for optimization and/or second-order correction.
 Total Energy, E(TD-HF/TD-DFT) =  -1949.00213959
 Copying the excited state density for this state as the 1-particle RhoCI density.

 The electronic state is 1-A.
 Alpha  occ. eigenvalues --  -19.19604 -19.17889 -19.14359 -19.11918 -19.11192
 Alpha  occ. eigenvalues --  -19.09368 -14.39422 -14.38076 -14.33896 -14.27496
 Alpha  occ. eigenvalues --  -10.33731 -10.30812 -10.29571 -10.25822 -10.25475
 Alpha  occ. eigenvalues --  -10.25443 -10.24286 -10.23069 -10.22722 -10.21876
 Alpha  occ. eigenvalues --  -10.21759 -10.21748 -10.21709 -10.21510 -10.21501
 Alpha  occ. eigenvalues --  -10.21377 -10.20906 -10.20834 -10.20722 -10.20398
 Alpha  occ. eigenvalues --  -10.20277 -10.20272 -10.20195 -10.19950 -10.19349
 Alpha  occ. eigenvalues --  -10.19293 -10.18981 -10.18460 -10.18329 -10.18084
 Alpha  occ. eigenvalues --  -10.17151 -10.16823 -10.16788  -1.10010  -1.09889
 Alpha  occ. eigenvalues --   -1.03818  -1.01624  -1.01225  -1.00519  -1.00125
 Alpha  occ. eigenvalues --   -0.98069  -0.96552  -0.90912  -0.83893  -0.83209
 Alpha  occ. eigenvalues --   -0.81714  -0.81408  -0.79828  -0.79544  -0.78801
 Alpha  occ. eigenvalues --   -0.77654  -0.76714  -0.75618  -0.74854  -0.72905
 Alpha  occ. eigenvalues --   -0.71880  -0.70527  -0.69741  -0.69340  -0.68471
 Alpha  occ. eigenvalues --   -0.67898  -0.66149  -0.65060  -0.62499  -0.61958
 Alpha  occ. eigenvalues --   -0.60061  -0.59682  -0.59301  -0.58201  -0.57969
 Alpha  occ. eigenvalues --   -0.56045  -0.55452  -0.55301  -0.53784  -0.53027
 Alpha  occ. eigenvalues --   -0.52278  -0.51847  -0.51630  -0.50988  -0.50548
 Alpha  occ. eigenvalues --   -0.49721  -0.49580  -0.48545  -0.48273  -0.47592
 Alpha  occ. eigenvalues --   -0.47430  -0.46982  -0.46774  -0.46350  -0.46154
 Alpha  occ. eigenvalues --   -0.45727  -0.45178  -0.44654  -0.44357  -0.43868
 Alpha  occ. eigenvalues --   -0.43774  -0.43508  -0.43238  -0.42997  -0.42360
 Alpha  occ. eigenvalues --   -0.42301  -0.41976  -0.41790  -0.41461  -0.41227
 Alpha  occ. eigenvalues --   -0.41158  -0.40984  -0.40382  -0.39945  -0.39682
 Alpha  occ. eigenvalues --   -0.39543  -0.39427  -0.39300  -0.38786  -0.38259
 Alpha  occ. eigenvalues --   -0.38145  -0.37200  -0.37058  -0.36895  -0.36639
 Alpha  occ. eigenvalues --   -0.36143  -0.35779  -0.35692  -0.35410  -0.35263
 Alpha  occ. eigenvalues --   -0.34778  -0.33986  -0.33336  -0.32776  -0.32711
 Alpha  occ. eigenvalues --   -0.32360  -0.32327  -0.30867  -0.30118  -0.29542
 Alpha  occ. eigenvalues --   -0.27892  -0.27237  -0.26693  -0.26084  -0.25701
 Alpha  occ. eigenvalues --   -0.25339  -0.24002  -0.23389  -0.22611  -0.21455
 Alpha  occ. eigenvalues --   -0.17753
 Alpha virt. eigenvalues --   -0.10606  -0.05849  -0.04085  -0.01188   0.00215
 Alpha virt. eigenvalues --    0.01227   0.01687   0.02520   0.02616   0.03299
 Alpha virt. eigenvalues --    0.03796   0.04413   0.05264   0.05686   0.05945

 Mulliken charges:
               1
     1  O   -0.221160
     2  O   -0.243306
     3  O   -0.253315
     4  O   -0.215679
     5  O   -0.182507
     6  O   -0.219279
     7  N   -0.062299
     8  N   -0.012168
     9  N   -0.068008
    10  N   -0.309884
    11  C   -0.128430
    12  C    0.024007
    13  C   -0.146344
    14  C    0.050815
    15  C   -0.081737
    16  C    0.107228
    17  C    0.023949
    18  C   -0.088749
    19  C    0.123950
    20  C   -0.058427
    21  C    0.078299
    22  C    0.069982
    23  C   -0.087595
    24  C    0.144877
    25  C   -0.057162
    26  C    0.076998
    27  C    0.101918
    28  C    0.065817
    29  C   -0.033861
    30  C    0.033164
    31  C   -0.160050
    32  C    0.040176
    33  C   -0.140900
    34  C    0.094720
    35  C   -0.198461
    36  C   -0.151262
    37  C    0.133194
    38  C    0.097396
    39  C    0.112075
    40  C    0.165376
    41  C    0.137332
    42  C    0.264236
    43  C   -0.164144
    44  H    0.192659
    45  H   -0.037705
    46  H    0.022586
    47  H   -0.000696
    48  H    0.057557
    49  H    0.017799
    50  H   -0.020525
    51  H    0.004089
    52  H    0.018561
    53  H    0.026874
    54  H    0.052647
    55  H    0.008067
    56  H    0.112610
    57  H    0.049085
    58  H   -0.020507
    59  H    0.057736
    60  H    0.039589
    61  H    0.014510
    62  H    0.018669
    63  H    0.031448
    64  H    0.010490
    65  H    0.013313
    66  H    0.048985
    67  H    0.022950
    68  H    0.001330
    69  H    0.086499
    70  H   -0.012540
    71  H    0.019563
    72  H    0.030880
    73  H   -0.031825
    74  H    0.000638
    75  H    0.003189
    76  H   -0.051760
    77  H    0.013782
    78  H    0.025353
    79  H    0.055378
    80  H    0.230593
    81  H    0.227346
 Sum of Mulliken charges =  -0.00000

 Dipole moment (field-independent basis, Debye):
    X=             -2.4529    Y=             -2.6480    Z=             -0.0419  Tot=              3.6098
 Quadrupole moment (field-independent basis, Debye-Ang):
   XX=           -245.6035   YY=           -245.2199   ZZ=           -254.6883
   XY=             21.8126   XZ=             16.1617   YZ=            -13.2365

 Normal termination of Gaussian 16 at Wed Jul  3 04:34:47 2019.
