 Gaussian 16, Revision A.03,
 Gaussian 16:  ES64L-G16RevA.03 25-Dec-2016

 --------------------------
 # td=(NStates=1) B3LYP/SVP
 --------------------------

 --
 TD
 --
 Symbolic Z-matrix:
 Charge =  0 Multiplicity = 1

                         Standard orientation:
 ---------------------------------------------------------------------
 Center     Atomic      Atomic             Coordinates (Angstroms)
 Number     Number       Type             X           Y           Z
 ---------------------------------------------------------------------
      1          8           0        4.199524   -5.001877   -1.617731
      2          8           0       -2.934002   -4.938900   -1.063593
      3          8           0       -7.181844   -1.427272   -1.871144
      4          8           0       -3.744397   -3.053829   -0.085301
      5          8           0       -7.545886   -0.557235    0.150393
      6          8           0        3.088203    2.461760    0.453224
      7          7           0        0.256870   -0.469797    0.518000
      8          7           0       -1.491474    1.851945    0.324070
      9          7           0        3.224302   -3.091200   -0.596847
     10          7           0        0.840307    2.927447    0.034749
     11          6           0       -0.651946   -2.339074    1.385348
     12          6           0       -0.902864   -1.040547    0.973334
     13          6           0        0.791268   -2.490533    1.328960
     14          6           0        1.277010   -1.346105    0.658442
     15          6           0       -3.777721    1.509214    0.273755
     16          6           0       -2.472199    0.902014    0.555330
     17          6           0       -2.266435   -0.386461    0.841311
     18          6           0       -3.590680    2.724014   -0.193036
     19          6           0       -1.650129   -3.377047    1.986270
     20          6           0        5.451358   -2.889554   -1.348312
     21          6           0        3.611238   -1.867097   -0.200815
     22          6           0       -2.086733    2.980515   -0.111597
     23          6           0        5.055190   -1.663799   -0.528292
     24          6           0       -5.111466    0.792868    0.451675
     25          6           0        2.637476   -1.032551    0.308894
     26          6           0        1.548505   -3.767484    1.767394
     27          6           0        4.246540   -3.885207   -1.254920
     28          6           0       -2.100787   -4.493728    1.057653
     29          6           0       -5.398271   -0.082330   -0.837249
     30          6           0       -4.488836    3.785921   -0.545573
     31          6           0       -1.193819    4.168492   -0.229584
     32          6           0        6.701882   -3.614491   -0.841061
     33          6           0        5.807761   -0.603340   -0.173924
     34          6           0        0.227210    4.068531   -0.134564
     35          6           0        1.119437    5.173530   -0.322504
     36          6           0        2.313095    4.641113   -0.295336
     37          6           0       -2.997043   -4.083047   -0.043459
     38          6           0        5.467588    0.633185    0.443773
     39          6           0       -6.802197   -0.649495   -0.749134
     40          6           0        3.660511    5.421823   -0.268297
     41          6           0        2.219597    3.235125    0.061653
     42          6           0        0.733342    6.512098   -0.845111
     43          6           0        4.403995    5.449917    1.085889
     44          1           0        0.358111    0.251364   -0.170452
     45          1           0       -3.092978   -1.033287    0.965964
     46          1           0       -2.509034   -2.807256    2.319936
     47          1           0       -1.241678   -3.881004    2.938017
     48          1           0        5.540165   -2.582665   -2.387787
     49          1           0       -5.267392    0.335466    1.430833
     50          1           0       -5.916414    1.448441    0.617025
     51          1           0        2.983029    0.005612    0.393340
     52          1           0       -0.454010    1.849850    0.467909
     53          1           0        1.531389   -4.891316    0.978981
     54          1           0        2.572065   -3.366640    1.764032
     55          1           0        1.315467   -4.101855    2.629896
     56          1           0        2.159968   -3.234337   -0.571033
     57          1           0       -1.075757   -5.009863    0.825190
     58          1           0       -2.632826   -5.159452    1.642237
     59          1           0       -4.755979   -1.028286   -0.890566
     60          1           0       -5.285784    0.304648   -1.924929
     61          1           0       -4.745076    4.549295    0.274299
     62          1           0       -5.501533    3.333932   -0.642064
     63          1           0       -4.014498    4.098073   -1.512421
     64          1           0       -1.785231    5.252964   -0.163230
     65          1           0        7.621404   -3.054159   -1.136894
     66          1           0        6.532274   -4.587322   -1.282669
     67          1           0        6.801563   -3.605610    0.286079
     68          1           0        6.836112   -0.534265   -0.575448
     69          1           0        4.824717    1.347335   -0.186380
     70          1           0        6.295741    1.219894    0.826339
     71          1           0        4.734892    0.383324    1.228004
     72          1           0        3.163309    6.313162   -0.762971
     73          1           0        4.258329    4.859004   -0.816551
     74          1           0        0.132725    6.414485   -1.696232
     75          1           0        1.660665    7.261236   -0.901284
     76          1           0       -0.179355    7.036863   -0.229248
     77          1           0        3.538988    5.938337    1.841659
     78          1           0        5.318252    5.875579    1.002717
     79          1           0        4.570013    4.467216    1.495936
     80          1           0       -3.574698   -4.698484   -1.702808
     81          1           0       -8.271002   -1.679036   -1.603483
 ---------------------------------------------------------------------

 SCF Done:  E(RB3LYP) =  -1949.08971419     A.U. after   16 cycles

 Excitation energies and oscillator strengths:

 Excited State   1:      Singlet-A      1.7634 eV  703.10 nm  f=0.1979  <S**2>=0.000
     156 ->157         0.70530
 This state for optimization and/or second-order correction.
 Total Energy, E(TD-HF/TD-DFT) =  -1949.02491114
 Copying the excited state density for this state as the 1-particle RhoCI density.

 The electronic state is 1-A.
 Alpha  occ. eigenvalues --  -19.20271 -19.17293 -19.14330 -19.13239 -19.12704
 Alpha  occ. eigenvalues --  -19.10767 -14.37253 -14.36551 -14.36003 -14.28337
 Alpha  occ. eigenvalues --  -10.34398 -10.31534 -10.29813 -10.26307 -10.25507
 Alpha  occ. eigenvalues --  -10.23091 -10.23025 -10.22765 -10.22630 -10.22411
 Alpha  occ. eigenvalues --  -10.22264 -10.21685 -10.21171 -10.21068 -10.21002
 Alpha  occ. eigenvalues --  -10.20840 -10.20728 -10.20565 -10.20475 -10.20458
 Alpha  occ. eigenvalues --  -10.20297 -10.19929 -10.19515 -10.19333 -10.19047
 Alpha  occ. eigenvalues --  -10.19016 -10.18967 -10.18489 -10.18029 -10.17933
 Alpha  occ. eigenvalues --  -10.17787 -10.17262 -10.16699  -1.11830  -1.08835
 Alpha  occ. eigenvalues --   -1.05878  -1.01554  -1.00126  -0.99186  -0.98276
 Alpha  occ. eigenvalues --   -0.98127  -0.95246  -0.93439  -0.83488  -0.82000
 Alpha  occ. eigenvalues --   -0.81130  -0.80829  -0.80268  -0.78515  -0.77963
 Alpha  occ. eigenvalues --   -0.77296  -0.76063  -0.75390  -0.73482  -0.72230
 Alpha  occ. eigenvalues --   -0.71529  -0.69511  -0.69153  -0.69011  -0.68025
 Alpha  occ. eigenvalues --   -0.67487  -0.64991  -0.63674  -0.62472  -0.62248
 Alpha  occ. eigenvalues --   -0.60787  -0.58641  -0.57811  -0.57584  -0.56173
 Alpha  occ. eigenvalues --   -0.55924  -0.55355  -0.54998  -0.53714  -0.52787
 Alpha  occ. eigenvalues --   -0.52407  -0.52141  -0.51647  -0.50180  -0.49998
 Alpha  occ. eigenvalues --   -0.49753  -0.49082  -0.48700  -0.47835  -0.47705
 Alpha  occ. eigenvalues --   -0.46840  -0.46659  -0.46057  -0.45685  -0.45137
 Alpha  occ. eigenvalues --   -0.44896  -0.44669  -0.44089  -0.43949  -0.43679
 Alpha  occ. eigenvalues --   -0.43546  -0.43324  -0.43099  -0.42785  -0.42150
 Alpha  occ. eigenvalues --   -0.41969  -0.41625  -0.41342  -0.41278  -0.40929
 Alpha  occ. eigenvalues --   -0.40849  -0.40552  -0.40235  -0.39910  -0.39643
 Alpha  occ. eigenvalues --   -0.38952  -0.38900  -0.38569  -0.38429  -0.38130
 Alpha  occ. eigenvalues --   -0.37955  -0.37772  -0.37474  -0.37161  -0.36986
 Alpha  occ. eigenvalues --   -0.36686  -0.36418  -0.35989  -0.35384  -0.34518
 Alpha  occ. eigenvalues --   -0.34391  -0.33422  -0.33331  -0.33177  -0.32376
 Alpha  occ. eigenvalues --   -0.31894  -0.31631  -0.31575  -0.29899  -0.29624
 Alpha  occ. eigenvalues --   -0.28590  -0.28277  -0.27167  -0.26775  -0.25501
 Alpha  occ. eigenvalues --   -0.24925  -0.24607  -0.24106  -0.23662  -0.20832
 Alpha  occ. eigenvalues --   -0.17658
 Alpha virt. eigenvalues --   -0.09934  -0.05418  -0.03643  -0.02771   0.00443
 Alpha virt. eigenvalues --    0.00815   0.01418   0.01555   0.02402   0.03748
 Alpha virt. eigenvalues --    0.04053   0.05096   0.05222   0.05996   0.06583

 Mulliken charges:
               1
     1  O   -0.150234
     2  O   -0.126459
     3  O   -0.325544
     4  O   -0.278547
     5  O   -0.193183
     6  O   -0.210516
     7  N   -0.022734
     8  N   -0.079346
     9  N   -0.169350
    10  N   -0.288260
    11  C   -0.099331
    12  C    0.029302
    13  C   -0.182110
    14  C    0.029893
    15  C   -0.072107
    16  C    0.129117
    17  C   -0.052033
    18  C   -0.112681
    19  C    0.069818
    20  C   -0.082559
    21  C    0.024218
    22  C    0.039384
    23  C    0.042364
    24  C    0.143386
    25  C   -0.139267
    26  C    0.095308
    27  C    0.166408
    28  C    0.046940
    29  C   -0.040853
    30  C    0.068238
    31  C   -0.182946
    32  C    0.045227
    33  C   -0.177720
    34  C    0.088971
    35  C   -0.079928
    36  C   -0.229963
    37  C    0.155410
    38  C    0.067481
    39  C    0.142608
    40  C    0.156358
    41  C    0.159605
    42  C    0.070861
    43  C    0.019806
    44  H    0.135065
    45  H   -0.014975
    46  H    0.000153
    47  H    0.017283
    48  H    0.039224
    49  H    0.018643
    50  H   -0.018274
    51  H   -0.002656
    52  H    0.149504
    53  H    0.034047
    54  H    0.035269
    55  H   -0.042229
    56  H    0.161889
    57  H    0.061788
    58  H    0.021760
    59  H    0.076677
    60  H    0.054792
    61  H    0.049563
    62  H    0.006438
    63  H    0.046624
    64  H    0.024939
    65  H    0.017186
    66  H    0.035666
    67  H    0.022213
    68  H   -0.017390
    69  H    0.072171
    70  H    0.001908
    71  H    0.031491
    72  H   -0.001380
    73  H   -0.043959
    74  H    0.009748
    75  H    0.058840
    76  H    0.014237
    77  H    0.020104
    78  H   -0.002342
    79  H    0.024775
    80  H    0.168973
    81  H    0.237205
 Sum of Mulliken charges =  -0.00000

 Dipole moment (field-independent basis, Debye):
    X=             -3.6768    Y=              0.8887    Z=             -1.1808  Tot=              3.9626
 Quadrupole moment (field-independent basis, Debye-Ang):
   XX=           -245.9470   YY=           -244.3303   ZZ=           -253.9183
   XY=             12.7537   XZ=              5.2207   YZ=            -11.5636

 Normal termination of Gaussian 16 at Wed Jul  3 10:29:10 2019.
