 Gaussian 16, Revision A.03,
 Gaussian 16:  ES64L-G16RevA.03 25-Dec-2016

 --------------------------
 # td=(NStates=1) B3LYP/SVP
 --------------------------

 --
 TD
 --
 Symbolic Z-matrix:
 Charge =  0 Multiplicity = 1

                         Standard orientation:
 ---------------------------------------------------------------------
 Center     Atomic      Atomic             Coordinates (Angstroms)
 Number     Number       Type             X           Y           Z
 ---------------------------------------------------------------------
      1          8           0       -4.344810   -4.680149    2.119635
      2          8           0        2.718299   -4.820425    1.112484
      3          8           0        7.153943   -1.325006    1.985026
      4          8           0        3.742587   -3.216090   -0.030846
      5          8           0        7.637366   -0.494505    0.122256
      6          8           0       -3.058745    2.461345   -0.466002
      7          7           0       -0.246668   -0.518412   -0.626662
      8          7           0        1.514701    1.865260   -0.480476
      9          7           0       -3.238503   -3.059096    0.768632
     10          7           0       -0.839175    2.793925   -0.173150
     11          6           0        0.679827   -2.452591   -1.446176
     12          6           0        0.954552   -1.037434   -1.110633
     13          6           0       -0.675049   -2.594416   -1.346238
     14          6           0       -1.263090   -1.391642   -0.739999
     15          6           0        3.850062    1.388341   -0.349299
     16          6           0        2.480813    0.867566   -0.713776
     17          6           0        2.246492   -0.477287   -1.106905
     18          6           0        3.519771    2.740160   -0.033388
     19          6           0        1.713757   -3.402322   -2.043532
     20          6           0       -5.527528   -2.758069    1.284935
     21          6           0       -3.619959   -1.787966    0.141755
     22          6           0        2.158731    3.006588   -0.060377
     23          6           0       -5.080321   -1.657274    0.470481
     24          6           0        5.106295    0.675258   -0.437922
     25          6           0       -2.576426   -1.003006   -0.317861
     26          6           0       -1.485243   -3.779997   -1.760889
     27          6           0       -4.322064   -3.650838    1.456320
     28          6           0        2.050847   -4.546871   -1.175847
     29          6           0        5.398304   -0.062060    0.958322
     30          6           0        4.464231    3.741783    0.594723
     31          6           0        1.265221    4.099458    0.466496
     32          6           0       -6.831655   -3.441906    1.026070
     33          6           0       -5.818976   -0.576073   -0.026824
     34          6           0       -0.078389    3.959253    0.242259
     35          6           0       -1.049742    5.025851    0.531035
     36          6           0       -2.295895    4.583507    0.251915
     37          6           0        2.909937   -4.064046   -0.004409
     38          6           0       -5.637823    0.605187   -0.754814
     39          6           0        6.826693   -0.633724    1.020158
     40          6           0       -3.596600    5.322782    0.346282
     41          6           0       -2.074006    3.115101   -0.192509
     42          6           0       -0.698455    6.483285    0.817114
     43          6           0       -4.159386    5.611081   -1.030893
     44          1           0       -0.241736    0.320083   -0.151006
     45          1           0        2.966875   -1.198010   -1.337461
     46          1           0        2.526003   -2.673606   -2.458055
     47          1           0        0.884086   -3.679669   -3.012306
     48          1           0       -5.542525   -2.122093    2.303885
     49          1           0        5.218046   -0.249686   -1.244771
     50          1           0        5.754699    1.441784   -0.647174
     51          1           0       -2.792472   -0.051015   -0.496727
     52          1           0        0.470515    1.876131   -0.542002
     53          1           0       -1.325187   -4.438767   -0.969582
     54          1           0       -2.569733   -3.549733   -1.830907
     55          1           0       -0.949079   -4.104460   -2.709070
     56          1           0       -2.150720   -3.296683    0.819892
     57          1           0        1.156470   -5.263605   -0.595075
     58          1           0        2.565385   -5.467612   -1.881291
     59          1           0        4.881294   -1.148789    0.864083
     60          1           0        5.292372    0.390933    1.788598
     61          1           0        4.136503    4.775789    0.274786
     62          1           0        5.460160    3.500170    0.380440
     63          1           0        4.367872    3.677231    1.707350
     64          1           0        1.656807    5.259502    0.766435
     65          1           0       -7.619272   -2.602435    1.106511
     66          1           0       -7.167790   -4.205358    1.721616
     67          1           0       -6.746051   -3.793592   -0.046223
     68          1           0       -7.002999   -0.667886    0.356060
     69          1           0       -5.090718    1.373643   -0.215937
     70          1           0       -6.446604    1.042549   -1.238563
     71          1           0       -4.903338    0.578371   -1.606621
     72          1           0       -3.401165    6.186727    1.155667
     73          1           0       -4.388730    4.646282    0.823596
     74          1           0       -0.206661    6.598320    1.633094
     75          1           0       -1.658834    7.115362    0.977072
     76          1           0        0.047175    6.941943    0.105903
     77          1           0       -3.398164    6.302494   -1.642339
     78          1           0       -5.171406    5.853326   -0.962834
     79          1           0       -4.335495    4.503928   -1.516951
     80          1           0        3.470888   -4.580345    1.703304
     81          1           0        8.122379   -1.710382    1.724321
 ---------------------------------------------------------------------

 SCF Done:  E(RB3LYP) =  -1949.02166637     A.U. after   20 cycles

 Excitation energies and oscillator strengths:

 Excited State   1:      Singlet-A      1.8113 eV  684.49 nm  f=0.3621  <S**2>=0.000
     154 ->157         0.10245
     156 ->157         0.70215
     156 <-157        -0.11635
 This state for optimization and/or second-order correction.
 Total Energy, E(TD-HF/TD-DFT) =  -1948.95510106
 Copying the excited state density for this state as the 1-particle RhoCI density.

 The electronic state is 1-A.
 Alpha  occ. eigenvalues --  -19.20188 -19.19717 -19.15832 -19.11172 -19.10161
 Alpha  occ. eigenvalues --  -19.06990 -14.38588 -14.38076 -14.35858 -14.27590
 Alpha  occ. eigenvalues --  -10.34720 -10.30769 -10.29759 -10.26086 -10.25992
 Alpha  occ. eigenvalues --  -10.25335 -10.24735 -10.23954 -10.23878 -10.23787
 Alpha  occ. eigenvalues --  -10.23513 -10.22200 -10.22064 -10.22051 -10.21668
 Alpha  occ. eigenvalues --  -10.21628 -10.21536 -10.21239 -10.21181 -10.21166
 Alpha  occ. eigenvalues --  -10.20619 -10.20539 -10.20233 -10.20103 -10.19496
 Alpha  occ. eigenvalues --  -10.19089 -10.18982 -10.18845 -10.18141 -10.17570
 Alpha  occ. eigenvalues --  -10.17525 -10.17356 -10.16518  -1.13946  -1.12547
 Alpha  occ. eigenvalues --   -1.03511  -1.02668  -0.99902  -0.99605  -0.98785
 Alpha  occ. eigenvalues --   -0.96774  -0.93920  -0.90012  -0.84220  -0.82714
 Alpha  occ. eigenvalues --   -0.82142  -0.81580  -0.79333  -0.78795  -0.78452
 Alpha  occ. eigenvalues --   -0.77537  -0.76876  -0.75723  -0.73940  -0.72464
 Alpha  occ. eigenvalues --   -0.71838  -0.71117  -0.69542  -0.68492  -0.68151
 Alpha  occ. eigenvalues --   -0.67587  -0.65956  -0.64702  -0.61881  -0.61191
 Alpha  occ. eigenvalues --   -0.61085  -0.59535  -0.58588  -0.58063  -0.57872
 Alpha  occ. eigenvalues --   -0.55223  -0.54964  -0.54313  -0.53520  -0.52738
 Alpha  occ. eigenvalues --   -0.52203  -0.51682  -0.51503  -0.50960  -0.50746
 Alpha  occ. eigenvalues --   -0.49774  -0.49500  -0.49212  -0.48595  -0.48301
 Alpha  occ. eigenvalues --   -0.47888  -0.47196  -0.46623  -0.45869  -0.45653
 Alpha  occ. eigenvalues --   -0.45239  -0.44588  -0.44310  -0.44022  -0.43744
 Alpha  occ. eigenvalues --   -0.43718  -0.43224  -0.43173  -0.42826  -0.42563
 Alpha  occ. eigenvalues --   -0.42333  -0.42097  -0.41966  -0.41505  -0.41314
 Alpha  occ. eigenvalues --   -0.40906  -0.40612  -0.40063  -0.39757  -0.39524
 Alpha  occ. eigenvalues --   -0.39472  -0.39081  -0.38875  -0.38646  -0.38343
 Alpha  occ. eigenvalues --   -0.38047  -0.37907  -0.37334  -0.37167  -0.36492
 Alpha  occ. eigenvalues --   -0.36208  -0.36053  -0.35394  -0.35279  -0.35152
 Alpha  occ. eigenvalues --   -0.34874  -0.34356  -0.33508  -0.32976  -0.32164
 Alpha  occ. eigenvalues --   -0.31999  -0.31207  -0.31080  -0.30717  -0.29662
 Alpha  occ. eigenvalues --   -0.26622  -0.26502  -0.26378  -0.26237  -0.25831
 Alpha  occ. eigenvalues --   -0.24619  -0.24331  -0.22334  -0.21719  -0.21408
 Alpha  occ. eigenvalues --   -0.18114
 Alpha virt. eigenvalues --   -0.10855  -0.05542  -0.04077  -0.03427  -0.00763
 Alpha virt. eigenvalues --    0.00552   0.00869   0.01693   0.02949   0.03153
 Alpha virt. eigenvalues --    0.03713   0.04003   0.04198   0.04418   0.05359

 Mulliken charges:
               1
     1  O   -0.215701
     2  O   -0.190999
     3  O   -0.127498
     4  O   -0.196282
     5  O   -0.285302
     6  O   -0.257588
     7  N    0.002145
     8  N   -0.126586
     9  N   -0.252618
    10  N   -0.273226
    11  C   -0.115871
    12  C    0.012982
    13  C   -0.228787
    14  C    0.082229
    15  C   -0.054462
    16  C    0.100841
    17  C    0.005755
    18  C   -0.192040
    19  C    0.000891
    20  C   -0.044838
    21  C    0.117783
    22  C    0.106378
    23  C   -0.055775
    24  C    0.095724
    25  C   -0.045740
    26  C    0.147215
    27  C    0.153654
    28  C   -0.084027
    29  C    0.033841
    30  C    0.106967
    31  C   -0.158985
    32  C    0.074218
    33  C   -0.167205
    34  C    0.111427
    35  C   -0.104956
    36  C   -0.171670
    37  C    0.153699
    38  C    0.120093
    39  C    0.046909
    40  C    0.017708
    41  C    0.088321
    42  C    0.150064
    43  C   -0.011992
    44  H    0.096150
    45  H   -0.039111
    46  H    0.065601
    47  H    0.060090
    48  H    0.072168
    49  H    0.056414
    50  H    0.003178
    51  H   -0.062361
    52  H    0.140708
    53  H    0.006153
    54  H    0.041515
    55  H    0.017966
    56  H    0.176654
    57  H    0.086689
    58  H    0.093388
    59  H    0.081494
    60  H   -0.026434
    61  H    0.027968
    62  H   -0.007105
    63  H    0.027706
    64  H    0.037762
    65  H    0.021037
    66  H    0.037561
    67  H    0.029201
    68  H    0.013190
    69  H    0.063400
    70  H   -0.004547
    71  H    0.023237
    72  H    0.016473
    73  H    0.007104
    74  H   -0.051284
    75  H    0.017021
    76  H    0.015652
    77  H    0.040850
    78  H   -0.009658
    79  H    0.040061
    80  H    0.190202
    81  H    0.227213
 Sum of Mulliken charges =  -0.00000

 Dipole moment (field-independent basis, Debye):
    X=              2.8059    Y=             -2.9825    Z=              0.4738  Tot=              4.1222
 Quadrupole moment (field-independent basis, Debye-Ang):
   XX=           -246.8694   YY=           -249.4048   ZZ=           -256.3789
   XY=            -16.4817   XZ=             16.5540   YZ=             15.6307

 Normal termination of Gaussian 16 at Sat Jun 29 10:52:11 2019.
