 Gaussian 16, Revision A.03,
 Gaussian 16:  ES64L-G16RevA.03 25-Dec-2016

 --------------------------
 # td=(NStates=1) B3LYP/SVP
 --------------------------

 --
 TD
 --
 Symbolic Z-matrix:
 Charge =  0 Multiplicity = 1

                         Standard orientation:
 ---------------------------------------------------------------------
 Center     Atomic      Atomic             Coordinates (Angstroms)
 Number     Number       Type             X           Y           Z
 ---------------------------------------------------------------------
      1          8           0        4.070582   -4.946968   -1.955339
      2          8           0       -3.222832   -4.885499   -1.092994
      3          8           0       -6.971479   -1.440835   -1.778908
      4          8           0       -3.683647   -2.950700    0.053311
      5          8           0       -7.604987   -0.408366    0.099579
      6          8           0        3.001746    2.322754    0.467122
      7          7           0        0.226635   -0.484750    0.700944
      8          7           0       -1.490803    1.936046    0.499841
      9          7           0        3.143678   -3.147498   -0.821414
     10          7           0        0.904118    2.969461    0.218927
     11          6           0       -0.716979   -2.385845    1.452717
     12          6           0       -0.921017   -1.026508    1.056882
     13          6           0        0.673102   -2.592192    1.276345
     14          6           0        1.271178   -1.464493    0.787451
     15          6           0       -3.716649    1.594617    0.167791
     16          6           0       -2.466053    0.903390    0.537342
     17          6           0       -2.258534   -0.354088    0.950007
     18          6           0       -3.448601    2.884931   -0.289805
     19          6           0       -1.762280   -3.341220    2.017015
     20          6           0        5.366638   -2.934587   -1.375829
     21          6           0        3.603174   -1.922040   -0.235813
     22          6           0       -1.996071    3.072023   -0.067317
     23          6           0        4.998600   -1.746198   -0.515190
     24          6           0       -5.094770    0.936587    0.305955
     25          6           0        2.629316   -1.152598    0.389664
     26          6           0        1.402630   -3.878614    1.687243
     27          6           0        4.097435   -3.847646   -1.381630
     28          6           0       -2.222572   -4.449757    1.023778
     29          6           0       -5.376420   -0.052259   -0.853164
     30          6           0       -4.307950    4.113211   -0.572797
     31          6           0       -1.196516    4.133511   -0.397265
     32          6           0        6.641290   -3.701331   -0.858382
     33          6           0        5.782535   -0.718029   -0.115363
     34          6           0        0.224619    4.120539   -0.130672
     35          6           0        1.246021    5.081556   -0.506390
     36          6           0        2.489030    4.591018   -0.269771
     37          6           0       -3.147458   -4.019208   -0.094855
     38          6           0        5.517123    0.446426    0.691842
     39          6           0       -6.778060   -0.622089   -0.802506
     40          6           0        3.772219    5.172376   -0.371598
     41          6           0        2.195267    3.122209    0.214297
     42          6           0        0.878070    6.497075   -0.877017
     43          6           0        4.501680    5.468351    0.990106
     44          1           0        0.522775    0.409638    0.298906
     45          1           0       -3.258937   -0.880831    1.214098
     46          1           0       -2.747440   -2.942729    2.260528
     47          1           0       -1.321633   -3.822230    2.659872
     48          1           0        5.366531   -2.678560   -2.231057
     49          1           0       -5.067592    0.462688    1.250488
     50          1           0       -5.841002    1.672898    0.426285
     51          1           0        2.976765   -0.084709    0.601785
     52          1           0       -0.635144    1.910757    0.970472
     53          1           0        1.310026   -4.808228    1.189776
     54          1           0        2.593858   -3.547606    1.980916
     55          1           0        0.887649   -4.095455    2.532849
     56          1           0        2.226746   -3.633550   -0.694138
     57          1           0       -1.258707   -5.018353    0.674261
     58          1           0       -2.575174   -5.102655    1.915299
     59          1           0       -4.935813   -0.935903   -0.818188
     60          1           0       -5.244358    0.297289   -1.869296
     61          1           0       -4.101202    4.907247    0.118346
     62          1           0       -5.316616    3.963648   -0.464608
     63          1           0       -4.150100    4.534284   -1.546875
     64          1           0       -1.389922    5.108307   -0.957413
     65          1           0        7.654913   -3.176886   -0.852051
     66          1           0        6.673604   -4.679380   -1.146555
     67          1           0        6.557447   -3.805832    0.352017
     68          1           0        6.801505   -0.703918   -0.488011
     69          1           0        5.061530    1.306015    0.199427
     70          1           0        6.426360    0.940488    1.018681
     71          1           0        4.822495    0.265980    1.504037
     72          1           0        3.769828    6.202155   -0.996644
     73          1           0        4.329176    4.549569   -0.971840
     74          1           0       -0.020664    6.628701   -1.626672
     75          1           0        1.736044    7.162217   -1.101597
     76          1           0        0.322645    7.053577    0.012613
     77          1           0        4.138113    6.359523    1.666811
     78          1           0        5.555925    5.790526    1.139036
     79          1           0        4.390100    4.478023    1.655078
     80          1           0       -3.840261   -4.383191   -1.745049
     81          1           0       -7.899937   -1.714116   -1.660286
 ---------------------------------------------------------------------

 SCF Done:  E(RB3LYP) =  -1949.06763583     A.U. after   16 cycles

 Excitation energies and oscillator strengths:

 Excited State   1:      Singlet-A      1.7187 eV  721.37 nm  f=0.2439  <S**2>=0.000
     156 ->157         0.70662
 This state for optimization and/or second-order correction.
 Total Energy, E(TD-HF/TD-DFT) =  -1949.00447392
 Copying the excited state density for this state as the 1-particle RhoCI density.

 The electronic state is 1-A.
 Alpha  occ. eigenvalues --  -19.22030 -19.20282 -19.15107 -19.12172 -19.10232
 Alpha  occ. eigenvalues --  -19.09054 -14.37316 -14.36682 -14.36246 -14.27588
 Alpha  occ. eigenvalues --  -10.34326 -10.32054 -10.27302 -10.25393 -10.25074
 Alpha  occ. eigenvalues --  -10.24027 -10.23581 -10.23568 -10.23549 -10.22502
 Alpha  occ. eigenvalues --  -10.22072 -10.22021 -10.21770 -10.21294 -10.20665
 Alpha  occ. eigenvalues --  -10.20233 -10.19945 -10.19829 -10.19744 -10.19718
 Alpha  occ. eigenvalues --  -10.19575 -10.19421 -10.19402 -10.19340 -10.19288
 Alpha  occ. eigenvalues --  -10.19254 -10.19158 -10.19150 -10.19141 -10.18633
 Alpha  occ. eigenvalues --  -10.18282 -10.17958 -10.16658  -1.12951  -1.12673
 Alpha  occ. eigenvalues --   -1.04631  -1.04072  -1.01566  -0.99711  -0.98496
 Alpha  occ. eigenvalues --   -0.97498  -0.94450  -0.92232  -0.82523  -0.82346
 Alpha  occ. eigenvalues --   -0.81747  -0.81241  -0.79968  -0.79162  -0.78446
 Alpha  occ. eigenvalues --   -0.77270  -0.76378  -0.75377  -0.74144  -0.72931
 Alpha  occ. eigenvalues --   -0.71940  -0.70046  -0.69797  -0.69190  -0.67687
 Alpha  occ. eigenvalues --   -0.67270  -0.65671  -0.64715  -0.62696  -0.61844
 Alpha  occ. eigenvalues --   -0.61154  -0.61023  -0.59082  -0.58489  -0.57578
 Alpha  occ. eigenvalues --   -0.56967  -0.55921  -0.55309  -0.54213  -0.53479
 Alpha  occ. eigenvalues --   -0.52895  -0.52416  -0.51765  -0.51472  -0.50448
 Alpha  occ. eigenvalues --   -0.50046  -0.49700  -0.49323  -0.48846  -0.48348
 Alpha  occ. eigenvalues --   -0.47360  -0.47236  -0.46633  -0.45666  -0.45406
 Alpha  occ. eigenvalues --   -0.45119  -0.44911  -0.44534  -0.44230  -0.43668
 Alpha  occ. eigenvalues --   -0.43586  -0.43219  -0.43060  -0.42531  -0.42384
 Alpha  occ. eigenvalues --   -0.41846  -0.41695  -0.41408  -0.41291  -0.40979
 Alpha  occ. eigenvalues --   -0.40877  -0.40725  -0.40418  -0.40208  -0.39693
 Alpha  occ. eigenvalues --   -0.39492  -0.39178  -0.38935  -0.38724  -0.38299
 Alpha  occ. eigenvalues --   -0.38182  -0.38167  -0.37736  -0.37146  -0.36993
 Alpha  occ. eigenvalues --   -0.36723  -0.36409  -0.35576  -0.35332  -0.34859
 Alpha  occ. eigenvalues --   -0.34682  -0.33994  -0.33589  -0.33356  -0.33039
 Alpha  occ. eigenvalues --   -0.32484  -0.32473  -0.32059  -0.30505  -0.29730
 Alpha  occ. eigenvalues --   -0.27905  -0.26805  -0.26129  -0.25718  -0.25346
 Alpha  occ. eigenvalues --   -0.24606  -0.23995  -0.23346  -0.22885  -0.21536
 Alpha  occ. eigenvalues --   -0.17872
 Alpha virt. eigenvalues --   -0.10644  -0.05810  -0.04062  -0.02161   0.00951
 Alpha virt. eigenvalues --    0.01645   0.02167   0.02806   0.03403   0.03755
 Alpha virt. eigenvalues --    0.04157   0.04634   0.05794   0.05850   0.06716

 Mulliken charges:
               1
     1  O   -0.261499
     2  O   -0.159142
     3  O   -0.124712
     4  O   -0.217603
     5  O   -0.275518
     6  O   -0.144888
     7  N   -0.060926
     8  N   -0.078264
     9  N   -0.087991
    10  N   -0.262429
    11  C   -0.140028
    12  C    0.033970
    13  C   -0.157536
    14  C    0.068482
    15  C   -0.123212
    16  C    0.089880
    17  C   -0.071048
    18  C   -0.124662
    19  C    0.317111
    20  C    0.117516
    21  C    0.070839
    22  C    0.144559
    23  C    0.041397
    24  C    0.196674
    25  C   -0.153948
    26  C    0.069820
    27  C    0.065431
    28  C   -0.130126
    29  C    0.100796
    30  C    0.169068
    31  C   -0.110541
    32  C    0.034501
    33  C   -0.177287
    34  C    0.037405
    35  C   -0.065350
    36  C   -0.168145
    37  C    0.186677
    38  C    0.115131
    39  C    0.081009
    40  C    0.101368
    41  C    0.076338
    42  C    0.011672
    43  C   -0.084795
    44  H    0.141308
    45  H    0.043029
    46  H    0.006257
    47  H   -0.119417
    48  H   -0.075404
    49  H   -0.004421
    50  H   -0.008465
    51  H    0.037146
    52  H    0.115542
    53  H    0.023921
    54  H    0.061986
    55  H   -0.023484
    56  H    0.146660
    57  H    0.034191
    58  H    0.053604
    59  H   -0.027389
    60  H    0.022631
    61  H    0.016073
    62  H   -0.017720
    63  H    0.010822
    64  H   -0.006324
    65  H    0.027575
    66  H    0.012260
    67  H    0.004483
    68  H   -0.019705
    69  H    0.042799
    70  H   -0.009400
    71  H    0.024602
    72  H    0.007443
    73  H   -0.002735
    74  H    0.027161
    75  H    0.021725
    76  H    0.026555
    77  H    0.013745
    78  H    0.015016
    79  H    0.041814
    80  H    0.208858
    81  H    0.177262
 Sum of Mulliken charges =  -0.00000

 Dipole moment (field-independent basis, Debye):
    X=             -4.8047    Y=              1.9015    Z=             -0.3653  Tot=              5.1801
 Quadrupole moment (field-independent basis, Debye-Ang):
   XX=           -248.6378   YY=           -244.8676   ZZ=           -254.0961
   XY=             24.2894   XZ=             20.7443   YZ=            -14.8728

 Normal termination of Gaussian 16 at Fri Jun 28 00:18:31 2019.
