 Gaussian 16, Revision A.03,
 Gaussian 16:  ES64L-G16RevA.03 25-Dec-2016

 --------------------------
 # td=(NStates=1) B3LYP/SVP
 --------------------------

 --
 TD
 --
 Symbolic Z-matrix:
 Charge =  0 Multiplicity = 1

                         Standard orientation:
 ---------------------------------------------------------------------
 Center     Atomic      Atomic             Coordinates (Angstroms)
 Number     Number       Type             X           Y           Z
 ---------------------------------------------------------------------
      1          8           0        4.220075   -4.800143   -1.679567
      2          8           0       -2.570313   -5.014739   -1.074237
      3          8           0       -6.893536   -1.478740   -2.163334
      4          8           0       -3.549518   -3.287878   -0.052791
      5          8           0       -7.428989   -1.040677    0.061299
      6          8           0        2.966008    2.451376    0.158910
      7          7           0        0.304085   -0.352106    0.778034
      8          7           0       -1.559632    1.874924    0.380386
      9          7           0        3.237907   -3.028234   -0.592100
     10          7           0        0.750605    2.919487   -0.169018
     11          6           0       -0.562280   -2.327434    1.502507
     12          6           0       -1.002819   -0.978529    0.974381
     13          6           0        0.789712   -2.453352    1.474836
     14          6           0        1.337499   -1.234703    0.927718
     15          6           0       -3.760203    1.476097    0.273962
     16          6           0       -2.487917    0.901965    0.500776
     17          6           0       -2.224483   -0.451965    0.853053
     18          6           0       -3.573265    2.780194   -0.060582
     19          6           0       -1.590711   -3.306601    2.069380
     20          6           0        5.425058   -2.747414   -1.396635
     21          6           0        3.555857   -1.740488   -0.242996
     22          6           0       -2.151967    3.002145   -0.013735
     23          6           0        4.961683   -1.529309   -0.527004
     24          6           0       -5.117602    0.741401    0.379707
     25          6           0        2.632714   -0.854950    0.372137
     26          6           0        1.478838   -3.800915    1.874244
     27          6           0        4.271605   -3.666448   -1.303578
     28          6           0       -1.859708   -4.621616    1.151141
     29          6           0       -5.320611   -0.211618   -0.871611
     30          6           0       -4.618556    3.803671   -0.396993
     31          6           0       -1.451015    4.063792   -0.256996
     32          6           0        6.818452   -3.393018   -1.088639
     33          6           0        5.821429   -0.572664   -0.142977
     34          6           0       -0.012646    4.066901   -0.274767
     35          6           0        0.891387    5.167368   -0.477326
     36          6           0        2.139268    4.684544   -0.248464
     37          6           0       -2.827020   -4.225476    0.007067
     38          6           0        5.499565    0.628961    0.660643
     39          6           0       -6.647540   -1.012101   -0.829499
     40          6           0        3.461788    5.362599   -0.313392
     41          6           0        2.096838    3.271951   -0.101032
     42          6           0        0.432612    6.617190   -0.602173
     43          6           0        4.169844    5.429653    1.121961
     44          1           0        0.530136    0.561057    0.412906
     45          1           0       -2.914873   -1.073240    1.069721
     46          1           0       -2.561843   -2.806152    2.224246
     47          1           0       -1.147492   -3.484787    3.158365
     48          1           0        5.314433   -2.387459   -2.547587
     49          1           0       -5.138635    0.166468    1.320880
     50          1           0       -6.015404    1.496412    0.258870
     51          1           0        2.802994    0.124516    0.269883
     52          1           0       -0.464745    1.881547    0.482247
     53          1           0        1.231543   -4.592967    1.250586
     54          1           0        2.603669   -3.726747    1.615287
     55          1           0        1.175947   -4.042286    3.024151
     56          1           0        2.235591   -3.420180   -0.472663
     57          1           0       -0.972288   -4.819859    0.540788
     58          1           0       -2.039398   -5.513816    1.710226
     59          1           0       -4.503154   -0.858286   -1.043069
     60          1           0       -5.026105    0.219780   -1.834283
     61          1           0       -4.394060    4.784134   -0.205219
     62          1           0       -5.674814    3.307863    0.143118
     63          1           0       -4.596120    3.859267   -1.585376
     64          1           0       -2.027798    4.975836   -0.582057
     65          1           0        7.521297   -2.657791   -1.196671
     66          1           0        6.995503   -4.196898   -1.874673
     67          1           0        6.597736   -3.554142   -0.013452
     68          1           0        6.846594   -0.450765   -0.688650
     69          1           0        5.219601    1.597192   -0.000178
     70          1           0        6.593637    0.964606    1.165693
     71          1           0        4.818766    0.485935    1.505417
     72          1           0        3.428512    6.221896   -1.020023
     73          1           0        3.959465    4.725549   -1.122689
     74          1           0       -0.178440    6.811186   -1.369270
     75          1           0        1.337244    7.248467   -0.414295
     76          1           0       -0.350455    6.891765    0.129227
     77          1           0        3.542349    5.943532    1.937687
     78          1           0        5.064052    6.111192    1.031191
     79          1           0        4.537123    4.361180    1.619267
     80          1           0       -3.164552   -4.794495   -1.702670
     81          1           0       -7.721411   -2.110583   -1.950958
 ---------------------------------------------------------------------

 SCF Done:  E(RB3LYP) =  -1949.08557803     A.U. after   20 cycles

 Excitation energies and oscillator strengths:

 Excited State   1:      Singlet-A      1.6103 eV  769.94 nm  f=0.3359  <S**2>=0.000
     156 ->157         0.71751
     156 <-157        -0.16815
 This state for optimization and/or second-order correction.
 Total Energy, E(TD-HF/TD-DFT) =  -1949.02640039
 Copying the excited state density for this state as the 1-particle RhoCI density.

 The electronic state is 1-A.
 Alpha  occ. eigenvalues --  -19.18900 -19.17721 -19.15220 -19.14318 -19.11452
 Alpha  occ. eigenvalues --  -19.09556 -14.38018 -14.37609 -14.34908 -14.27540
 Alpha  occ. eigenvalues --  -10.34060 -10.32483 -10.29407 -10.25260 -10.24812
 Alpha  occ. eigenvalues --  -10.24802 -10.23566 -10.22584 -10.22535 -10.22444
 Alpha  occ. eigenvalues --  -10.21936 -10.21801 -10.21626 -10.21454 -10.21368
 Alpha  occ. eigenvalues --  -10.21049 -10.20943 -10.20942 -10.20601 -10.20405
 Alpha  occ. eigenvalues --  -10.20049 -10.20032 -10.19637 -10.19632 -10.19490
 Alpha  occ. eigenvalues --  -10.19326 -10.19222 -10.18947 -10.18918 -10.18607
 Alpha  occ. eigenvalues --  -10.18391 -10.18238 -10.17351  -1.12675  -1.08255
 Alpha  occ. eigenvalues --   -1.04931  -1.04014  -1.00728  -0.99772  -0.99012
 Alpha  occ. eigenvalues --   -0.96906  -0.96022  -0.90811  -0.82637  -0.81918
 Alpha  occ. eigenvalues --   -0.81652  -0.81213  -0.78989  -0.78236  -0.77729
 Alpha  occ. eigenvalues --   -0.77273  -0.76441  -0.74804  -0.74142  -0.71830
 Alpha  occ. eigenvalues --   -0.70623  -0.69867  -0.69044  -0.68426  -0.67634
 Alpha  occ. eigenvalues --   -0.66680  -0.65785  -0.64369  -0.62874  -0.62207
 Alpha  occ. eigenvalues --   -0.61133  -0.59733  -0.58195  -0.57638  -0.56941
 Alpha  occ. eigenvalues --   -0.56056  -0.55868  -0.54762  -0.53210  -0.52989
 Alpha  occ. eigenvalues --   -0.51933  -0.51515  -0.51056  -0.50523  -0.49748
 Alpha  occ. eigenvalues --   -0.49264  -0.49156  -0.49002  -0.48488  -0.48223
 Alpha  occ. eigenvalues --   -0.47192  -0.46426  -0.46191  -0.45582  -0.45176
 Alpha  occ. eigenvalues --   -0.44896  -0.44757  -0.44217  -0.43363  -0.43247
 Alpha  occ. eigenvalues --   -0.43125  -0.43049  -0.42777  -0.42677  -0.42359
 Alpha  occ. eigenvalues --   -0.42247  -0.41926  -0.41333  -0.41311  -0.40979
 Alpha  occ. eigenvalues --   -0.40096  -0.39843  -0.39803  -0.39539  -0.39290
 Alpha  occ. eigenvalues --   -0.39115  -0.38999  -0.38696  -0.38658  -0.38607
 Alpha  occ. eigenvalues --   -0.38490  -0.38020  -0.37764  -0.37344  -0.37199
 Alpha  occ. eigenvalues --   -0.36648  -0.35883  -0.35098  -0.34939  -0.34804
 Alpha  occ. eigenvalues --   -0.34578  -0.34031  -0.33772  -0.33509  -0.33335
 Alpha  occ. eigenvalues --   -0.32847  -0.32332  -0.31574  -0.30623  -0.30236
 Alpha  occ. eigenvalues --   -0.29318  -0.27058  -0.26572  -0.26382  -0.26085
 Alpha  occ. eigenvalues --   -0.25611  -0.24731  -0.23558  -0.22325  -0.21330
 Alpha  occ. eigenvalues --   -0.16554
 Alpha virt. eigenvalues --   -0.10474  -0.06334  -0.04163  -0.01544  -0.00550
 Alpha virt. eigenvalues --   -0.00261   0.02343   0.02748   0.03293   0.03756
 Alpha virt. eigenvalues --    0.04152   0.04992   0.05262   0.05958   0.06136

 Mulliken charges:
               1
     1  O   -0.180478
     2  O   -0.140281
     3  O   -0.287537
     4  O   -0.183610
     5  O   -0.180991
     6  O   -0.217371
     7  N   -0.129945
     8  N   -0.072196
     9  N   -0.157881
    10  N   -0.363834
    11  C   -0.094324
    12  C    0.118024
    13  C   -0.189705
    14  C    0.058949
    15  C   -0.114101
    16  C    0.086606
    17  C    0.044775
    18  C   -0.125541
    19  C    0.040549
    20  C   -0.120383
    21  C    0.094529
    22  C    0.126083
    23  C   -0.002041
    24  C    0.119105
    25  C    0.000822
    26  C    0.042291
    27  C    0.101552
    28  C    0.013601
    29  C   -0.010778
    30  C    0.075003
    31  C   -0.170120
    32  C    0.115762
    33  C   -0.170273
    34  C    0.095363
    35  C   -0.103620
    36  C   -0.193093
    37  C    0.122411
    38  C   -0.021300
    39  C    0.192884
    40  C    0.066159
    41  C    0.154052
    42  C    0.176737
    43  C   -0.049351
    44  H    0.130580
    45  H   -0.138411
    46  H    0.027397
    47  H    0.037366
    48  H    0.060346
    49  H    0.029467
    50  H    0.030690
    51  H   -0.055828
    52  H    0.172010
    53  H    0.010598
    54  H    0.040265
    55  H    0.056618
    56  H    0.164347
    57  H    0.040251
    58  H    0.046656
    59  H    0.010826
    60  H    0.015851
    61  H   -0.008690
    62  H    0.062097
    63  H    0.031564
    64  H   -0.031478
    65  H   -0.007728
    66  H    0.053755
    67  H    0.031260
    68  H    0.029977
    69  H    0.097081
    70  H    0.008853
    71  H    0.043730
    72  H   -0.011061
    73  H    0.012247
    74  H   -0.032376
    75  H    0.030303
    76  H   -0.003003
    77  H    0.026784
    78  H    0.017072
    79  H    0.066510
    80  H    0.135136
    81  H    0.202433
 Sum of Mulliken charges =  -0.00000

 Dipole moment (field-independent basis, Debye):
    X=             -1.0587    Y=             -0.7513    Z=             -0.2519  Tot=              1.3224
 Quadrupole moment (field-independent basis, Debye-Ang):
   XX=           -253.6194   YY=           -239.5771   ZZ=           -253.3030
   XY=             12.8750   XZ=              5.9096   YZ=            -10.0940

 Normal termination of Gaussian 16 at Tue Jul  2 04:58:08 2019.
