 Gaussian 16, Revision A.03,
 Gaussian 16:  ES64L-G16RevA.03 25-Dec-2016

 --------------------------
 # td=(NStates=1) B3LYP/SVP
 --------------------------

 --
 TD
 --
 Symbolic Z-matrix:
 Charge =  0 Multiplicity = 1

                         Standard orientation:
 ---------------------------------------------------------------------
 Center     Atomic      Atomic             Coordinates (Angstroms)
 Number     Number       Type             X           Y           Z
 ---------------------------------------------------------------------
      1          8           0        4.619134   -4.670211   -1.846809
      2          8           0       -2.994347   -5.009218   -1.034773
      3          8           0       -6.976633   -1.758117   -1.793366
      4          8           0       -3.796291   -3.292516    0.132945
      5          8           0       -7.653328   -0.463279   -0.080038
      6          8           0        2.845751    2.306738    0.167926
      7          7           0        0.304014   -0.497217    0.493965
      8          7           0       -1.661594    1.853959    0.373145
      9          7           0        3.492311   -3.101096   -0.659475
     10          7           0        0.669919    2.873450    0.086402
     11          6           0       -0.571978   -2.426116    1.279741
     12          6           0       -0.833490   -1.104641    0.863209
     13          6           0        0.852761   -2.576096    1.138428
     14          6           0        1.436878   -1.378841    0.642874
     15          6           0       -3.793820    1.370165    0.352323
     16          6           0       -2.505640    0.757421    0.554233
     17          6           0       -2.135451   -0.577536    0.882602
     18          6           0       -3.610374    2.720000   -0.006772
     19          6           0       -1.550232   -3.386989    1.888639
     20          6           0        5.739259   -2.497991   -1.282778
     21          6           0        3.764533   -1.740368   -0.162290
     22          6           0       -2.238211    3.015318    0.068200
     23          6           0        5.156823   -1.390341   -0.377608
     24          6           0       -5.116624    0.675133    0.387303
     25          6           0        2.730611   -0.991154    0.356963
     26          6           0        1.509431   -3.821271    1.647430
     27          6           0        4.585334   -3.593158   -1.254490
     28          6           0       -2.059899   -4.588638    1.037171
     29          6           0       -5.333792   -0.060321   -0.944729
     30          6           0       -4.802794    3.708415   -0.407968
     31          6           0       -1.461420    4.122341   -0.278463
     32          6           0        7.017441   -3.196061   -0.854217
     33          6           0        5.992579   -0.376370   -0.032790
     34          6           0       -0.001228    3.964937   -0.239843
     35          6           0        0.895916    5.104096   -0.375245
     36          6           0        2.214177    4.665683   -0.247651
     37          6           0       -2.997930   -4.236551    0.012521
     38          6           0        5.527912    0.754494    0.903148
     39          6           0       -6.832351   -0.789633   -0.896254
     40          6           0        3.445152    5.316246   -0.342092
     41          6           0        2.036657    3.199022    0.172049
     42          6           0        0.439189    6.491230   -0.822109
     43          6           0        4.099753    5.613162    1.049758
     44          1           0        0.538663    0.484680    0.211388
     45          1           0       -2.969588   -1.292624    0.976249
     46          1           0       -2.593950   -3.104065    2.184549
     47          1           0       -1.273797   -3.928654    2.985269
     48          1           0        5.854717   -2.189582   -2.359738
     49          1           0       -5.361598   -0.024805    1.309611
     50          1           0       -6.013084    1.512488    0.528073
     51          1           0        3.123533    0.163081    0.587392
     52          1           0       -0.559152    2.005324    0.332303
     53          1           0        1.491415   -4.569380    0.928820
     54          1           0        2.507987   -3.551250    1.712461
     55          1           0        1.030647   -3.993579    2.599323
     56          1           0        2.401768   -3.331881   -0.849483
     57          1           0       -1.287749   -5.165987    0.534509
     58          1           0       -2.511400   -5.345459    1.691974
     59          1           0       -4.652706   -0.979240   -0.877990
     60          1           0       -5.117225    0.687347   -1.743933
     61          1           0       -4.780212    4.535697    0.449979
     62          1           0       -5.770020    3.101371   -0.374645
     63          1           0       -4.666743    4.141940   -1.327374
     64          1           0       -1.929441    5.006454   -0.666565
     65          1           0        7.693606   -2.278202   -1.062290
     66          1           0        7.243936   -3.909310   -1.590979
     67          1           0        7.156453   -3.422417    0.192016
     68          1           0        7.087209   -0.361538   -0.469360
     69          1           0        4.992253    1.550481    0.326604
     70          1           0        6.328872    1.184733    1.434240
     71          1           0        4.898679    0.231820    1.568688
     72          1           0        3.406835    6.112664   -1.021937
     73          1           0        4.225074    4.542251   -0.783028
     74          1           0        0.096191    6.516956   -1.925621
     75          1           0        1.233678    7.175518   -0.702780
     76          1           0       -0.441581    6.827967   -0.369169
     77          1           0        3.432267    6.047269    1.656886
     78          1           0        4.875424    6.284092    0.906090
     79          1           0        4.600954    4.779343    1.435717
     80          1           0       -3.875669   -4.775213   -1.488073
     81          1           0       -7.998119   -1.952668   -1.632295
 ---------------------------------------------------------------------

 SCF Done:  E(RB3LYP) =  -1949.14602191     A.U. after   16 cycles

 Excitation energies and oscillator strengths:

 Excited State   1:      Singlet-A      1.7662 eV  701.98 nm  f=0.3362  <S**2>=0.000
     156 ->157         0.71032
     156 <-157        -0.12476
 This state for optimization and/or second-order correction.
 Total Energy, E(TD-HF/TD-DFT) =  -1949.08111509
 Copying the excited state density for this state as the 1-particle RhoCI density.

 The electronic state is 1-A.
 Alpha  occ. eigenvalues --  -19.20927 -19.19987 -19.13349 -19.13185 -19.11590
 Alpha  occ. eigenvalues --  -19.09153 -14.37516 -14.37046 -14.33740 -14.29594
 Alpha  occ. eigenvalues --  -10.32936 -10.32446 -10.27559 -10.27533 -10.24526
 Alpha  occ. eigenvalues --  -10.23545 -10.23225 -10.23191 -10.23151 -10.22686
 Alpha  occ. eigenvalues --  -10.22630 -10.21445 -10.21206 -10.21164 -10.20834
 Alpha  occ. eigenvalues --  -10.20725 -10.20319 -10.20215 -10.20134 -10.20035
 Alpha  occ. eigenvalues --  -10.19995 -10.19842 -10.19804 -10.19769 -10.19474
 Alpha  occ. eigenvalues --  -10.19327 -10.19259 -10.19217 -10.19135 -10.17963
 Alpha  occ. eigenvalues --  -10.17667 -10.17263 -10.16765  -1.12688  -1.10604
 Alpha  occ. eigenvalues --   -1.03580  -1.01434  -1.01269  -1.00800  -0.97863
 Alpha  occ. eigenvalues --   -0.97103  -0.92976  -0.92577  -0.82351  -0.81650
 Alpha  occ. eigenvalues --   -0.81175  -0.81002  -0.80275  -0.78916  -0.78133
 Alpha  occ. eigenvalues --   -0.76337  -0.75611  -0.74978  -0.74324  -0.72320
 Alpha  occ. eigenvalues --   -0.70390  -0.69876  -0.69246  -0.68679  -0.67286
 Alpha  occ. eigenvalues --   -0.65776  -0.65349  -0.63651  -0.63498  -0.61793
 Alpha  occ. eigenvalues --   -0.61239  -0.58669  -0.58476  -0.57356  -0.56315
 Alpha  occ. eigenvalues --   -0.55203  -0.54836  -0.54580  -0.53202  -0.52614
 Alpha  occ. eigenvalues --   -0.51754  -0.51704  -0.51033  -0.50774  -0.49937
 Alpha  occ. eigenvalues --   -0.49532  -0.48950  -0.48391  -0.47955  -0.47482
 Alpha  occ. eigenvalues --   -0.47101  -0.46611  -0.46123  -0.46005  -0.45398
 Alpha  occ. eigenvalues --   -0.45140  -0.44921  -0.44643  -0.44391  -0.44008
 Alpha  occ. eigenvalues --   -0.43717  -0.43061  -0.42944  -0.42553  -0.42317
 Alpha  occ. eigenvalues --   -0.42002  -0.41717  -0.41186  -0.41128  -0.40936
 Alpha  occ. eigenvalues --   -0.40495  -0.40347  -0.40139  -0.39963  -0.39932
 Alpha  occ. eigenvalues --   -0.39700  -0.39115  -0.39072  -0.38399  -0.37959
 Alpha  occ. eigenvalues --   -0.37786  -0.37494  -0.37319  -0.37120  -0.36925
 Alpha  occ. eigenvalues --   -0.36696  -0.36232  -0.35632  -0.35517  -0.34520
 Alpha  occ. eigenvalues --   -0.34152  -0.33717  -0.33467  -0.33248  -0.33199
 Alpha  occ. eigenvalues --   -0.33140  -0.32489  -0.31844  -0.29860  -0.29262
 Alpha  occ. eigenvalues --   -0.28184  -0.28063  -0.26261  -0.25722  -0.25260
 Alpha  occ. eigenvalues --   -0.25006  -0.23904  -0.23810  -0.23018  -0.21641
 Alpha  occ. eigenvalues --   -0.17788
 Alpha virt. eigenvalues --   -0.10797  -0.06567  -0.04348  -0.01909   0.00414
 Alpha virt. eigenvalues --    0.00767   0.02309   0.02483   0.03326   0.03513
 Alpha virt. eigenvalues --    0.04521   0.04558   0.04911   0.05396   0.06094

 Mulliken charges:
               1
     1  O   -0.240514
     2  O   -0.143452
     3  O   -0.187369
     4  O   -0.276777
     5  O   -0.225711
     6  O   -0.191605
     7  N   -0.096579
     8  N   -0.143899
     9  N   -0.159429
    10  N   -0.302193
    11  C   -0.023629
    12  C    0.103815
    13  C   -0.253636
    14  C    0.106686
    15  C   -0.054242
    16  C    0.095882
    17  C   -0.071600
    18  C   -0.152934
    19  C   -0.011281
    20  C   -0.154449
    21  C    0.066469
    22  C    0.089504
    23  C    0.053286
    24  C   -0.051912
    25  C   -0.185742
    26  C    0.229515
    27  C    0.117049
    28  C    0.037897
    29  C   -0.033016
    30  C    0.089355
    31  C   -0.100481
    32  C    0.096440
    33  C   -0.200367
    34  C    0.074120
    35  C   -0.131678
    36  C   -0.159347
    37  C    0.104645
    38  C    0.082018
    39  C    0.146473
    40  C    0.029842
    41  C    0.174548
    42  C    0.130530
    43  C    0.111817
    44  H    0.156235
    45  H    0.026298
    46  H    0.026895
    47  H    0.029696
    48  H    0.049353
    49  H    0.039490
    50  H    0.041774
    51  H    0.090890
    52  H    0.170736
    53  H   -0.001169
    54  H   -0.011757
    55  H    0.020579
    56  H    0.188202
    57  H    0.012062
    58  H    0.043431
    59  H    0.060872
    60  H    0.049452
    61  H    0.041445
    62  H    0.025192
    63  H    0.007002
    64  H   -0.032115
    65  H   -0.004648
    66  H    0.021667
    67  H    0.016256
    68  H    0.027242
    69  H    0.075311
    70  H   -0.008868
    71  H    0.017987
    72  H   -0.010887
    73  H    0.021262
    74  H    0.026288
    75  H    0.002960
    76  H    0.000005
    77  H   -0.013096
    78  H   -0.019565
    79  H    0.011535
    80  H    0.209969
    81  H    0.203971
 Sum of Mulliken charges =  -0.00000

 Dipole moment (field-independent basis, Debye):
    X=             -2.4996    Y=              1.6157    Z=             -0.1941  Tot=              2.9827
 Quadrupole moment (field-independent basis, Debye-Ang):
   XX=           -248.9229   YY=           -235.6895   ZZ=           -254.8596
   XY=             34.4831   XZ=             18.2507   YZ=            -14.7615

 Normal termination of Gaussian 16 at Fri Jun 28 00:42:09 2019.
