 Gaussian 16, Revision A.03,
 Gaussian 16:  ES64L-G16RevA.03 25-Dec-2016

 --------------------------
 # td=(NStates=1) B3LYP/SVP
 --------------------------

 --
 TD
 --
 Symbolic Z-matrix:
 Charge =  0 Multiplicity = 1

                         Standard orientation:
 ---------------------------------------------------------------------
 Center     Atomic      Atomic             Coordinates (Angstroms)
 Number     Number       Type             X           Y           Z
 ---------------------------------------------------------------------
      1          8           0        4.338978   -4.745316   -1.797064
      2          8           0       -2.708071   -5.015672   -1.136486
      3          8           0       -7.063439   -1.776594   -1.718552
      4          8           0       -3.535695   -3.219563   -0.111321
      5          8           0       -7.691986   -0.575271    0.031312
      6          8           0        2.916019    2.391835    0.292977
      7          7           0        0.288554   -0.478369    0.549001
      8          7           0       -1.495014    1.761347    0.345267
      9          7           0        3.364785   -3.068283   -0.588838
     10          7           0        0.656770    2.968427    0.095511
     11          6           0       -0.556583   -2.470409    1.446034
     12          6           0       -0.939325   -1.119006    1.003347
     13          6           0        0.850651   -2.654068    1.300915
     14          6           0        1.286999   -1.345799    0.741153
     15          6           0       -3.869731    1.388087    0.355484
     16          6           0       -2.500948    0.780629    0.513581
     17          6           0       -2.274776   -0.497167    0.839980
     18          6           0       -3.602953    2.707822   -0.063360
     19          6           0       -1.508504   -3.419830    2.022653
     20          6           0        5.590704   -2.721505   -1.339021
     21          6           0        3.660695   -1.722927   -0.254637
     22          6           0       -2.230954    2.936194    0.027105
     23          6           0        4.999859   -1.499734   -0.473680
     24          6           0       -5.188271    0.570340    0.369274
     25          6           0        2.596652   -0.937241    0.386424
     26          6           0        1.609550   -3.755650    1.765943
     27          6           0        4.362546   -3.748731   -1.210684
     28          6           0       -1.932419   -4.534933    1.046476
     29          6           0       -5.552875   -0.118191   -0.987167
     30          6           0       -4.538928    3.852014   -0.208696
     31          6           0       -1.378016    4.116897   -0.201606
     32          6           0        6.941436   -3.320119   -0.881189
     33          6           0        5.862652   -0.446731   -0.089708
     34          6           0        0.054990    4.026901   -0.204616
     35          6           0        1.008295    5.217274   -0.487670
     36          6           0        2.199748    4.645033   -0.268072
     37          6           0       -2.817473   -4.130110   -0.148394
     38          6           0        5.616957    0.770561    0.762396
     39          6           0       -6.901096   -0.781165   -0.873611
     40          6           0        3.510262    5.275498   -0.377683
     41          6           0        2.016909    3.188230    0.046976
     42          6           0        0.431608    6.556505   -0.986202
     43          6           0        4.191926    5.797964    1.014142
     44          1           0        0.692712    0.347153    0.322022
     45          1           0       -3.068452   -1.175460    1.275112
     46          1           0       -2.537523   -2.973293    2.288838
     47          1           0       -1.106722   -4.019757    2.974019
     48          1           0        5.555276   -2.263657   -2.441018
     49          1           0       -5.227151   -0.152382    1.163346
     50          1           0       -5.947301    1.483300    0.435388
     51          1           0        2.838409    0.231523    0.266755
     52          1           0       -0.531164    1.939171    0.567041
     53          1           0        1.611027   -4.647879    1.058819
     54          1           0        2.670764   -3.551341    1.932963
     55          1           0        1.380179   -4.176475    2.759793
     56          1           0        2.287339   -3.297008   -0.784234
     57          1           0       -1.025604   -4.846806    0.594259
     58          1           0       -2.531714   -5.574728    1.479574
     59          1           0       -4.734260   -0.860198   -1.325640
     60          1           0       -5.676362    0.802750   -1.778601
     61          1           0       -4.161002    4.672087    0.750565
     62          1           0       -5.596905    3.551516   -0.368162
     63          1           0       -4.462462    4.538559   -1.195113
     64          1           0       -2.000385    5.166595   -0.388192
     65          1           0        7.872036   -2.776342   -1.420408
     66          1           0        6.884513   -4.358785   -1.065318
     67          1           0        7.204191   -3.183396    0.263566
     68          1           0        6.851662   -0.690032   -0.549480
     69          1           0        5.303586    1.667943    0.251905
     70          1           0        6.644948    1.050052    0.973686
     71          1           0        4.943849    0.677700    1.478722
     72          1           0        3.521626    6.106971   -1.100156
     73          1           0        4.205722    4.372201   -0.663207
     74          1           0       -0.246916    6.481278   -1.738012
     75          1           0        1.310465    7.186637   -1.236452
     76          1           0       -0.021010    7.014189    0.067079
     77          1           0        3.279789    6.531767    1.255224
     78          1           0        5.161201    6.291736    1.061915
     79          1           0        4.375240    4.799746    1.588467
     80          1           0       -3.387761   -4.843664   -1.927730
     81          1           0       -8.081485   -1.918685   -1.636144
 ---------------------------------------------------------------------

 SCF Done:  E(RB3LYP) =  -1949.05128345     A.U. after   16 cycles

 Excitation energies and oscillator strengths:

 Excited State   1:      Singlet-A      1.7206 eV  720.58 nm  f=0.3503  <S**2>=0.000
     156 ->157         0.70926
     156 <-157        -0.11406
 This state for optimization and/or second-order correction.
 Total Energy, E(TD-HF/TD-DFT) =  -1948.98805230
 Copying the excited state density for this state as the 1-particle RhoCI density.

 The electronic state is 1-A.
 Alpha  occ. eigenvalues --  -19.19426 -19.19393 -19.13514 -19.12494 -19.11292
 Alpha  occ. eigenvalues --  -19.11182 -14.37436 -14.37044 -14.34841 -14.28752
 Alpha  occ. eigenvalues --  -10.32245 -10.32089 -10.28592 -10.27105 -10.24425
 Alpha  occ. eigenvalues --  -10.24366 -10.23822 -10.23732 -10.23130 -10.22528
 Alpha  occ. eigenvalues --  -10.22503 -10.22499 -10.21935 -10.21875 -10.21797
 Alpha  occ. eigenvalues --  -10.21736 -10.21414 -10.21311 -10.20931 -10.20783
 Alpha  occ. eigenvalues --  -10.20701 -10.20330 -10.20066 -10.20060 -10.20002
 Alpha  occ. eigenvalues --  -10.19825 -10.19709 -10.19604 -10.19565 -10.19335
 Alpha  occ. eigenvalues --  -10.19148 -10.18198 -10.17018  -1.11209  -1.11097
 Alpha  occ. eigenvalues --   -1.06278  -1.02775  -1.02220  -1.00310  -0.98242
 Alpha  occ. eigenvalues --   -0.96113  -0.95115  -0.93974  -0.82984  -0.81551
 Alpha  occ. eigenvalues --   -0.80469  -0.79957  -0.79738  -0.78152  -0.77365
 Alpha  occ. eigenvalues --   -0.76270  -0.74937  -0.74311  -0.73375  -0.71939
 Alpha  occ. eigenvalues --   -0.70536  -0.69889  -0.68792  -0.68240  -0.67401
 Alpha  occ. eigenvalues --   -0.66407  -0.64229  -0.63560  -0.61728  -0.61319
 Alpha  occ. eigenvalues --   -0.60801  -0.58960  -0.57970  -0.57282  -0.56833
 Alpha  occ. eigenvalues --   -0.55633  -0.54951  -0.54241  -0.53288  -0.52375
 Alpha  occ. eigenvalues --   -0.52318  -0.50882  -0.50317  -0.49859  -0.49385
 Alpha  occ. eigenvalues --   -0.48956  -0.48691  -0.48483  -0.47892  -0.47413
 Alpha  occ. eigenvalues --   -0.46673  -0.46220  -0.45915  -0.45533  -0.45061
 Alpha  occ. eigenvalues --   -0.44612  -0.44232  -0.44066  -0.43944  -0.43834
 Alpha  occ. eigenvalues --   -0.43365  -0.43309  -0.42976  -0.42597  -0.42414
 Alpha  occ. eigenvalues --   -0.41902  -0.41469  -0.41243  -0.41028  -0.40786
 Alpha  occ. eigenvalues --   -0.40452  -0.40394  -0.39711  -0.39581  -0.39154
 Alpha  occ. eigenvalues --   -0.38676  -0.38541  -0.38451  -0.38314  -0.37907
 Alpha  occ. eigenvalues --   -0.37329  -0.37146  -0.36908  -0.36743  -0.36373
 Alpha  occ. eigenvalues --   -0.36201  -0.35896  -0.35669  -0.34883  -0.34676
 Alpha  occ. eigenvalues --   -0.34349  -0.34101  -0.33906  -0.33542  -0.33043
 Alpha  occ. eigenvalues --   -0.32442  -0.32166  -0.30984  -0.29839  -0.28698
 Alpha  occ. eigenvalues --   -0.28339  -0.27891  -0.26566  -0.25593  -0.25380
 Alpha  occ. eigenvalues --   -0.25194  -0.24784  -0.24124  -0.23551  -0.20797
 Alpha  occ. eigenvalues --   -0.17058
 Alpha virt. eigenvalues --   -0.10090  -0.06489  -0.04823  -0.00722   0.00028
 Alpha virt. eigenvalues --    0.00218   0.01443   0.01809   0.02332   0.03219
 Alpha virt. eigenvalues --    0.03377   0.03735   0.04503   0.04710   0.05756

 Mulliken charges:
               1
     1  O   -0.151533
     2  O   -0.221842
     3  O   -0.172585
     4  O   -0.175177
     5  O   -0.244757
     6  O   -0.220475
     7  N   -0.016516
     8  N   -0.121978
     9  N   -0.158866
    10  N   -0.225491
    11  C   -0.071897
    12  C    0.045020
    13  C   -0.124442
    14  C   -0.007166
    15  C   -0.083158
    16  C    0.165695
    17  C   -0.062462
    18  C   -0.091636
    19  C    0.058511
    20  C   -0.143817
    21  C    0.043757
    22  C    0.069748
    23  C   -0.068104
    24  C    0.086948
    25  C   -0.150129
    26  C    0.075007
    27  C    0.106694
    28  C   -0.051362
    29  C   -0.056035
    30  C   -0.028739
    31  C   -0.157639
    32  C    0.008812
    33  C   -0.127007
    34  C    0.026857
    35  C   -0.097533
    36  C   -0.179875
    37  C    0.099202
    38  C    0.187236
    39  C    0.131761
    40  C   -0.002243
    41  C    0.171407
    42  C    0.121668
    43  C   -0.058805
    44  H    0.097370
    45  H    0.020924
    46  H    0.027146
    47  H    0.035604
    48  H    0.073290
    49  H    0.026152
    50  H    0.039259
    51  H    0.072447
    52  H    0.128843
    53  H    0.022780
    54  H    0.015985
    55  H    0.014893
    56  H    0.176376
    57  H    0.010587
    58  H    0.068741
    59  H    0.070726
    60  H    0.056704
    61  H    0.067303
    62  H    0.022726
    63  H    0.033578
    64  H    0.013238
    65  H    0.036595
    66  H    0.029359
    67  H    0.034736
    68  H   -0.003783
    69  H    0.036615
    70  H   -0.001419
    71  H   -0.002949
    72  H    0.009303
    73  H    0.025092
    74  H    0.020328
    75  H    0.015946
    76  H    0.051950
    77  H    0.031881
    78  H    0.025357
    79  H    0.042419
    80  H    0.224572
    81  H    0.202270
 Sum of Mulliken charges =  -0.00000

 Dipole moment (field-independent basis, Debye):
    X=             -2.7406    Y=              0.3399    Z=             -1.4643  Tot=              3.1258
 Quadrupole moment (field-independent basis, Debye-Ang):
   XX=           -245.0923   YY=           -242.0308   ZZ=           -253.9926
   XY=             16.6136   XZ=             19.7126   YZ=            -11.8495

 Normal termination of Gaussian 16 at Sun Jun 30 03:36:34 2019.
