 Gaussian 16, Revision A.03,
 Gaussian 16:  ES64L-G16RevA.03 25-Dec-2016

 --------------------------
 # td=(NStates=1) B3LYP/SVP
 --------------------------

 --
 TD
 --
 Symbolic Z-matrix:
 Charge =  0 Multiplicity = 1

                         Standard orientation:
 ---------------------------------------------------------------------
 Center     Atomic      Atomic             Coordinates (Angstroms)
 Number     Number       Type             X           Y           Z
 ---------------------------------------------------------------------
      1          8           0        4.219954   -4.873180   -1.750539
      2          8           0       -2.973952   -4.933696   -1.005950
      3          8           0       -7.178745   -1.539132   -1.695902
      4          8           0       -3.779094   -3.116087    0.160255
      5          8           0       -7.597434   -0.471634    0.225311
      6          8           0        3.073099    2.408293    0.374931
      7          7           0        0.216262   -0.521608    0.445418
      8          7           0       -1.530243    1.828662    0.319616
      9          7           0        3.267078   -3.093720   -0.696307
     10          7           0        0.797423    2.892694   -0.045079
     11          6           0       -0.574962   -2.430178    1.334992
     12          6           0       -0.894351   -1.080055    0.868199
     13          6           0        0.808646   -2.594529    1.167472
     14          6           0        1.315995   -1.354903    0.685194
     15          6           0       -3.794877    1.463392    0.102977
     16          6           0       -2.481105    0.871368    0.453244
     17          6           0       -2.194497   -0.520913    0.790228
     18          6           0       -3.500309    2.754009   -0.243954
     19          6           0       -1.481458   -3.316847    1.983642
     20          6           0        5.468351   -2.830002   -1.346392
     21          6           0        3.610081   -1.852552   -0.231390
     22          6           0       -2.075737    2.992934   -0.150732
     23          6           0        5.027783   -1.650300   -0.514790
     24          6           0       -5.035506    0.849465    0.237971
     25          6           0        2.650732   -1.018544    0.290488
     26          6           0        1.594180   -3.691935    1.766417
     27          6           0        4.386629   -3.741292   -1.219942
     28          6           0       -1.957520   -4.459765    1.121777
     29          6           0       -5.436605   -0.292519   -0.745579
     30          6           0       -4.509510    3.835765   -0.621397
     31          6           0       -1.354919    4.107475   -0.509147
     32          6           0        6.899615   -3.420822   -1.047852
     33          6           0        5.644053   -0.574806   -0.124552
     34          6           0        0.076604    3.989916   -0.315330
     35          6           0        1.075966    5.188701   -0.402923
     36          6           0        2.322384    4.706939   -0.127074
     37          6           0       -2.977948   -4.017285    0.054416
     38          6           0        5.267446    0.578085    0.693868
     39          6           0       -6.865099   -0.807781   -0.634908
     40          6           0        3.665684    5.318291   -0.145540
     41          6           0        2.167863    3.218521    0.103375
     42          6           0        0.609707    6.692195   -0.665296
     43          6           0        4.322442    5.515107    1.270991
     44          1           0        0.281520    0.264862   -0.512396
     45          1           0       -3.002122   -1.266104    0.958635
     46          1           0       -2.418658   -2.752041    2.462782
     47          1           0       -1.049735   -3.843034    2.875432
     48          1           0        5.512064   -2.737701   -2.451471
     49          1           0       -5.337232    0.258448    1.195259
     50          1           0       -5.893500    1.629403    0.244386
     51          1           0        2.572254    0.062582    0.500132
     52          1           0       -0.386449    1.997185    0.449625
     53          1           0        1.739443   -4.761085    1.085221
     54          1           0        2.556163   -3.432637    2.080440
     55          1           0        1.234329   -4.099815    2.841624
     56          1           0        2.315018   -3.459886   -0.892778
     57          1           0       -1.245909   -5.046443    0.677301
     58          1           0       -2.411858   -4.934611    1.955715
     59          1           0       -4.728426   -1.315772   -0.459714
     60          1           0       -5.127530    0.137934   -1.708069
     61          1           0       -4.255268    4.838779   -0.290183
     62          1           0       -5.684279    3.628022   -0.404996
     63          1           0       -4.338577    3.953235   -1.807291
     64          1           0       -1.834489    5.087613   -0.594929
     65          1           0        7.806618   -2.698027   -1.360201
     66          1           0        6.871617   -4.316674   -1.455755
     67          1           0        6.952043   -3.593577    0.163876
     68          1           0        6.695472   -0.627925   -0.443818
     69          1           0        4.701938    1.387568    0.215952
     70          1           0        6.226898    1.006781    1.179852
     71          1           0        4.869775    0.451919    1.658840
     72          1           0        3.619212    6.344940   -0.577842
     73          1           0        4.547902    4.627991   -0.780176
     74          1           0        0.082275    6.877102   -1.637286
     75          1           0        1.630347    7.284886   -0.690476
     76          1           0       -0.167735    7.097439    0.068519
     77          1           0        3.678156    6.221042    1.895160
     78          1           0        5.559293    5.618050    1.365308
     79          1           0        4.135761    4.634626    1.520189
     80          1           0       -3.647377   -4.737768   -1.633898
     81          1           0       -8.101761   -1.888804   -1.594059
 ---------------------------------------------------------------------

 SCF Done:  E(RB3LYP) =  -1949.05011835     A.U. after   17 cycles

 Excitation energies and oscillator strengths:

 Excited State   1:      Singlet-A      1.6680 eV  743.31 nm  f=0.3333  <S**2>=0.000
     156 ->157         0.71251
     156 <-157        -0.13771
 This state for optimization and/or second-order correction.
 Total Energy, E(TD-HF/TD-DFT) =  -1948.98882011
 Copying the excited state density for this state as the 1-particle RhoCI density.

 The electronic state is 1-A.
 Alpha  occ. eigenvalues --  -19.19297 -19.18576 -19.15826 -19.12384 -19.11279
 Alpha  occ. eigenvalues --  -19.10453 -14.38547 -14.37281 -14.34977 -14.30404
 Alpha  occ. eigenvalues --  -10.34658 -10.31530 -10.29066 -10.27843 -10.24310
 Alpha  occ. eigenvalues --  -10.23931 -10.23359 -10.23317 -10.22881 -10.22668
 Alpha  occ. eigenvalues --  -10.21529 -10.21475 -10.21405 -10.21359 -10.21253
 Alpha  occ. eigenvalues --  -10.21094 -10.21074 -10.21069 -10.20784 -10.20576
 Alpha  occ. eigenvalues --  -10.20398 -10.19686 -10.19619 -10.19536 -10.19451
 Alpha  occ. eigenvalues --  -10.19438 -10.19438 -10.19413 -10.19395 -10.19288
 Alpha  occ. eigenvalues --  -10.18289 -10.17545 -10.16763  -1.10600  -1.10324
 Alpha  occ. eigenvalues --   -1.02875  -1.02464  -1.01951  -1.01051  -0.98615
 Alpha  occ. eigenvalues --   -0.97118  -0.95062  -0.91657  -0.83658  -0.82995
 Alpha  occ. eigenvalues --   -0.81728  -0.80903  -0.79610  -0.78886  -0.78246
 Alpha  occ. eigenvalues --   -0.77070  -0.75768  -0.74397  -0.73816  -0.71694
 Alpha  occ. eigenvalues --   -0.70367  -0.70214  -0.68547  -0.67956  -0.67820
 Alpha  occ. eigenvalues --   -0.66707  -0.66158  -0.64863  -0.62462  -0.61673
 Alpha  occ. eigenvalues --   -0.61266  -0.59541  -0.59338  -0.57899  -0.55924
 Alpha  occ. eigenvalues --   -0.55490  -0.54805  -0.54416  -0.53920  -0.52893
 Alpha  occ. eigenvalues --   -0.52652  -0.52170  -0.51925  -0.50501  -0.49991
 Alpha  occ. eigenvalues --   -0.49130  -0.49086  -0.48345  -0.48125  -0.47630
 Alpha  occ. eigenvalues --   -0.47538  -0.46715  -0.46340  -0.46240  -0.45470
 Alpha  occ. eigenvalues --   -0.44975  -0.44321  -0.43987  -0.43706  -0.43576
 Alpha  occ. eigenvalues --   -0.43248  -0.43106  -0.42801  -0.42394  -0.42125
 Alpha  occ. eigenvalues --   -0.41850  -0.41469  -0.41235  -0.40769  -0.40713
 Alpha  occ. eigenvalues --   -0.40539  -0.40178  -0.39753  -0.39616  -0.39348
 Alpha  occ. eigenvalues --   -0.39032  -0.38769  -0.38580  -0.38153  -0.37997
 Alpha  occ. eigenvalues --   -0.37695  -0.36913  -0.36684  -0.36370  -0.35906
 Alpha  occ. eigenvalues --   -0.35813  -0.35446  -0.35254  -0.34859  -0.34621
 Alpha  occ. eigenvalues --   -0.34038  -0.33906  -0.33480  -0.33013  -0.32956
 Alpha  occ. eigenvalues --   -0.32677  -0.31532  -0.31289  -0.30610  -0.29122
 Alpha  occ. eigenvalues --   -0.27874  -0.27789  -0.26715  -0.26111  -0.25670
 Alpha  occ. eigenvalues --   -0.25303  -0.25068  -0.24383  -0.23738  -0.21726
 Alpha  occ. eigenvalues --   -0.17043
 Alpha virt. eigenvalues --   -0.10478  -0.06097  -0.03837  -0.02912  -0.01955
 Alpha virt. eigenvalues --   -0.00083   0.01571   0.02628   0.03300   0.03523
 Alpha virt. eigenvalues --    0.04236   0.04508   0.04705   0.05013   0.05305

 Mulliken charges:
               1
     1  O   -0.268127
     2  O   -0.200098
     3  O   -0.176467
     4  O   -0.202185
     5  O   -0.195696
     6  O   -0.238722
     7  N   -0.121579
     8  N   -0.150938
     9  N   -0.102357
    10  N   -0.327829
    11  C   -0.047000
    12  C    0.025968
    13  C   -0.109707
    14  C   -0.006022
    15  C    0.036902
    16  C    0.060337
    17  C   -0.071733
    18  C   -0.115833
    19  C   -0.017984
    20  C   -0.004456
    21  C    0.157693
    22  C    0.086110
    23  C    0.037379
    24  C   -0.019874
    25  C   -0.136725
    26  C   -0.010097
    27  C    0.095115
    28  C    0.116257
    29  C   -0.136785
    30  C    0.025453
    31  C   -0.090198
    32  C    0.027450
    33  C   -0.161417
    34  C    0.058627
    35  C   -0.085613
    36  C   -0.145640
    37  C    0.154959
    38  C    0.099932
    39  C    0.134388
    40  C   -0.020488
    41  C    0.201967
    42  C    0.024480
    43  C    0.045602
    44  H    0.232880
    45  H    0.017914
    46  H    0.040693
    47  H    0.002369
    48  H    0.062823
    49  H    0.027760
    50  H    0.013090
    51  H    0.024875
    52  H    0.211959
    53  H    0.041605
    54  H    0.008325
    55  H    0.025372
    56  H    0.151322
    57  H    0.005029
    58  H    0.031302
    59  H    0.104018
    60  H    0.029122
    61  H    0.015089
    62  H    0.053254
    63  H    0.030702
    64  H   -0.012703
    65  H    0.055889
    66  H    0.001125
    67  H    0.028397
    68  H   -0.019799
    69  H    0.080865
    70  H   -0.012540
    71  H    0.002029
    72  H    0.003095
    73  H    0.045479
    74  H    0.029698
    75  H    0.039208
    76  H    0.042374
    77  H    0.018330
    78  H    0.036077
    79  H   -0.049462
    80  H    0.171370
    81  H    0.186018
 Sum of Mulliken charges =  -0.00000

 Dipole moment (field-independent basis, Debye):
    X=             -1.9556    Y=             -0.5116    Z=             -0.9583  Tot=              2.2371
 Quadrupole moment (field-independent basis, Debye-Ang):
   XX=           -248.2283   YY=           -245.3653   ZZ=           -253.5748
   XY=             16.3963   XZ=             13.6700   YZ=            -11.5645

 Normal termination of Gaussian 16 at Fri Jun 28 13:35:42 2019.
