 Gaussian 16, Revision A.03,
 Gaussian 16:  ES64L-G16RevA.03 25-Dec-2016

 --------------------------
 # td=(NStates=1) B3LYP/SVP
 --------------------------

 --
 TD
 --
 Symbolic Z-matrix:
 Charge =  0 Multiplicity = 1

                         Standard orientation:
 ---------------------------------------------------------------------
 Center     Atomic      Atomic             Coordinates (Angstroms)
 Number     Number       Type             X           Y           Z
 ---------------------------------------------------------------------
      1          8           0        4.436398   -4.705123   -1.756690
      2          8           0       -2.608370   -4.854019   -1.162798
      3          8           0       -6.966514   -1.783895   -1.892542
      4          8           0       -3.625548   -3.271350    0.021621
      5          8           0       -7.724870   -0.683084   -0.058843
      6          8           0        2.952578    2.370189    0.263834
      7          7           0        0.256115   -0.571053    0.574801
      8          7           0       -1.663843    1.799092    0.333326
      9          7           0        3.463857   -3.042765   -0.597959
     10          7           0        0.653234    2.900013    0.026796
     11          6           0       -0.575467   -2.443281    1.357335
     12          6           0       -0.922899   -1.177281    1.011527
     13          6           0        0.926251   -2.626302    1.217356
     14          6           0        1.330314   -1.370527    0.687428
     15          6           0       -3.896658    1.397708    0.227365
     16          6           0       -2.602717    0.741935    0.386049
     17          6           0       -2.211998   -0.552441    0.839627
     18          6           0       -3.714466    2.721911    0.074192
     19          6           0       -1.631997   -3.423809    1.907067
     20          6           0        5.639680   -2.590333   -1.242322
     21          6           0        3.712332   -1.762634   -0.151721
     22          6           0       -2.308411    2.947233    0.023658
     23          6           0        5.068982   -1.442716   -0.442420
     24          6           0       -5.214263    0.707306    0.352110
     25          6           0        2.671423   -0.997015    0.358061
     26          6           0        1.637689   -3.719853    1.739484
     27          6           0        4.518180   -3.653510   -1.217954
     28          6           0       -1.914747   -4.554687    0.999129
     29          6           0       -5.375986   -0.308534   -0.799878
     30          6           0       -4.670909    3.880932   -0.169105
     31          6           0       -1.440956    4.136107   -0.277147
     32          6           0        6.947361   -3.257344   -0.741103
     33          6           0        5.784387   -0.344333   -0.084211
     34          6           0       -0.088364    4.017549   -0.271881
     35          6           0        0.912899    5.186748   -0.444777
     36          6           0        2.216755    4.677141   -0.320261
     37          6           0       -2.787413   -4.120483   -0.086573
     38          6           0        5.460690    0.806648    0.618991
     39          6           0       -6.813791   -0.854089   -0.740410
     40          6           0        3.611119    5.281141   -0.391987
     41          6           0        2.003535    3.208168    0.077558
     42          6           0        0.553776    6.532368   -0.788263
     43          6           0        4.109877    5.765076    1.014469
     44          1           0        0.330182    0.537056    0.025313
     45          1           0       -2.936797   -1.258644    1.205058
     46          1           0       -2.443112   -2.668200    2.111180
     47          1           0       -1.325976   -3.834754    2.827394
     48          1           0        5.610638   -2.428641   -2.361574
     49          1           0       -5.359820    0.181352    1.378441
     50          1           0       -6.099713    1.324990    0.196934
     51          1           0        2.876711    0.073382    0.249083
     52          1           0       -0.655738    1.653204    0.441800
     53          1           0        1.770062   -4.561901    1.291116
     54          1           0        2.666331   -3.341402    1.892116
     55          1           0        1.262626   -4.184774    2.622856
     56          1           0        2.705528   -3.588793   -0.796139
     57          1           0       -0.904001   -4.989705    0.669590
     58          1           0       -2.461276   -5.368894    1.746970
     59          1           0       -4.884426   -1.255119   -0.691198
     60          1           0       -5.109386    0.152544   -1.833340
     61          1           0       -4.474076    4.700627    0.498710
     62          1           0       -5.778133    3.302014   -0.050449
     63          1           0       -4.451513    4.243926   -1.303136
     64          1           0       -1.979155    5.155058   -0.651648
     65          1           0        7.961173   -2.643750   -0.670418
     66          1           0        7.123366   -4.068428   -1.475029
     67          1           0        6.795068   -4.160512    0.073093
     68          1           0        6.754995   -0.253744   -0.387567
     69          1           0        4.991103    1.534259    0.007710
     70          1           0        6.120034    1.450270    1.178444
     71          1           0        4.728174    0.435580    1.484444
     72          1           0        3.731666    6.258373   -1.033974
     73          1           0        4.252968    4.538597   -0.645743
     74          1           0       -0.192151    6.786078   -1.622811
     75          1           0        1.350066    7.245109   -1.023414
     76          1           0       -0.008660    7.018859   -0.035093
     77          1           0        3.364470    6.415530    1.553271
     78          1           0        5.266197    6.363298    0.887523
     79          1           0        4.394539    4.732833    1.797407
     80          1           0       -3.304727   -4.576852   -1.823542
     81          1           0       -7.967384   -1.950384   -1.737157
 ---------------------------------------------------------------------

 SCF Done:  E(RB3LYP) =  -1949.04887470     A.U. after   19 cycles

 Excitation energies and oscillator strengths:

 Excited State   1:      Singlet-A      1.7762 eV  698.04 nm  f=0.3022  <S**2>=0.000
     156 ->157         0.70583
 This state for optimization and/or second-order correction.
 Total Energy, E(TD-HF/TD-DFT) =  -1948.98360184
 Copying the excited state density for this state as the 1-particle RhoCI density.

 The electronic state is 1-A.
 Alpha  occ. eigenvalues --  -19.20106 -19.15482 -19.15358 -19.14012 -19.11486
 Alpha  occ. eigenvalues --  -19.09156 -14.37903 -14.36952 -14.36190 -14.28762
 Alpha  occ. eigenvalues --  -10.32996 -10.32234 -10.28630 -10.26155 -10.25056
 Alpha  occ. eigenvalues --  -10.24768 -10.24432 -10.23694 -10.23067 -10.22978
 Alpha  occ. eigenvalues --  -10.22858 -10.22537 -10.22470 -10.21599 -10.21437
 Alpha  occ. eigenvalues --  -10.21368 -10.21324 -10.21233 -10.20783 -10.20524
 Alpha  occ. eigenvalues --  -10.20402 -10.20210 -10.20121 -10.20013 -10.19861
 Alpha  occ. eigenvalues --  -10.19660 -10.19233 -10.19227 -10.19107 -10.18633
 Alpha  occ. eigenvalues --  -10.18219 -10.17678 -10.16680  -1.12437  -1.10622
 Alpha  occ. eigenvalues --   -1.05984  -1.02883  -0.98800  -0.98146  -0.97528
 Alpha  occ. eigenvalues --   -0.97451  -0.96637  -0.89672  -0.83196  -0.82882
 Alpha  occ. eigenvalues --   -0.82648  -0.81319  -0.79331  -0.78710  -0.78234
 Alpha  occ. eigenvalues --   -0.77673  -0.77033  -0.75842  -0.74714  -0.72901
 Alpha  occ. eigenvalues --   -0.71606  -0.70623  -0.68649  -0.68150  -0.67765
 Alpha  occ. eigenvalues --   -0.67138  -0.65299  -0.64966  -0.62538  -0.60603
 Alpha  occ. eigenvalues --   -0.59690  -0.59190  -0.57789  -0.57497  -0.56604
 Alpha  occ. eigenvalues --   -0.55989  -0.55108  -0.54740  -0.54150  -0.53151
 Alpha  occ. eigenvalues --   -0.52581  -0.52089  -0.51709  -0.50503  -0.49818
 Alpha  occ. eigenvalues --   -0.49691  -0.49304  -0.48903  -0.48711  -0.47957
 Alpha  occ. eigenvalues --   -0.47455  -0.47145  -0.46166  -0.45747  -0.45671
 Alpha  occ. eigenvalues --   -0.45289  -0.44893  -0.44493  -0.44017  -0.43645
 Alpha  occ. eigenvalues --   -0.43275  -0.43022  -0.42801  -0.42569  -0.42536
 Alpha  occ. eigenvalues --   -0.42313  -0.42122  -0.41597  -0.41563  -0.41018
 Alpha  occ. eigenvalues --   -0.40657  -0.40476  -0.40232  -0.40123  -0.39899
 Alpha  occ. eigenvalues --   -0.39348  -0.38871  -0.38689  -0.38504  -0.38130
 Alpha  occ. eigenvalues --   -0.38025  -0.37964  -0.37653  -0.37255  -0.37086
 Alpha  occ. eigenvalues --   -0.36318  -0.36102  -0.35968  -0.35639  -0.35304
 Alpha  occ. eigenvalues --   -0.34186  -0.33717  -0.32768  -0.32415  -0.32221
 Alpha  occ. eigenvalues --   -0.31283  -0.31228  -0.30897  -0.30275  -0.29790
 Alpha  occ. eigenvalues --   -0.29449  -0.26850  -0.26714  -0.26189  -0.26016
 Alpha  occ. eigenvalues --   -0.25166  -0.23717  -0.23375  -0.22661  -0.21118
 Alpha  occ. eigenvalues --   -0.18266
 Alpha virt. eigenvalues --   -0.10860  -0.05837  -0.04708  -0.01925   0.00104
 Alpha virt. eigenvalues --    0.00832   0.01848   0.03000   0.03531   0.03603
 Alpha virt. eigenvalues --    0.04135   0.04490   0.04610   0.04766   0.05839

 Mulliken charges:
               1
     1  O   -0.184933
     2  O   -0.152176
     3  O   -0.318091
     4  O   -0.214886
     5  O   -0.146614
     6  O   -0.284854
     7  N   -0.172228
     8  N   -0.076965
     9  N   -0.063286
    10  N   -0.333358
    11  C   -0.154521
    12  C    0.028381
    13  C   -0.155436
    14  C    0.102676
    15  C   -0.066310
    16  C    0.098505
    17  C    0.005558
    18  C   -0.130542
    19  C    0.123693
    20  C   -0.032983
    21  C    0.102205
    22  C    0.072412
    23  C    0.039907
    24  C    0.075125
    25  C   -0.129295
    26  C    0.184058
    27  C    0.023030
    28  C   -0.014237
    29  C   -0.035010
    30  C    0.035406
    31  C   -0.157306
    32  C   -0.014490
    33  C   -0.107307
    34  C    0.144182
    35  C   -0.076794
    36  C   -0.165382
    37  C    0.111455
    38  C    0.082009
    39  C    0.131837
    40  C    0.155901
    41  C    0.182205
    42  C    0.086847
    43  C   -0.150598
    44  H    0.221793
    45  H   -0.008047
    46  H    0.015328
    47  H   -0.018599
    48  H    0.053900
    49  H    0.042841
    50  H    0.010004
    51  H    0.012525
    52  H    0.123673
    53  H   -0.048339
    54  H    0.019119
    55  H   -0.014059
    56  H    0.097004
    57  H    0.048439
    58  H    0.072704
    59  H    0.051672
    60  H    0.068658
    61  H    0.037559
    62  H    0.048461
    63  H    0.055389
    64  H    0.018455
    65  H    0.053884
    66  H    0.016544
    67  H    0.032029
    68  H   -0.047258
    69  H    0.053265
    70  H   -0.003164
    71  H    0.035040
    72  H    0.021462
    73  H   -0.017041
    74  H    0.009619
    75  H    0.004136
    76  H   -0.005673
    77  H    0.037963
    78  H    0.029284
    79  H    0.044841
    80  H    0.197775
    81  H    0.181023
 Sum of Mulliken charges =  -0.00000

 Dipole moment (field-independent basis, Debye):
    X=             -2.3750    Y=              0.0324    Z=             -0.1680  Tot=              2.3812
 Quadrupole moment (field-independent basis, Debye-Ang):
   XX=           -252.6444   YY=           -238.6687   ZZ=           -256.7221
   XY=              5.4775   XZ=              5.1140   YZ=            -14.5424

 Normal termination of Gaussian 16 at Mon Jul  1 01:11:31 2019.
