 Gaussian 16, Revision A.03,
 Gaussian 16:  ES64L-G16RevA.03 25-Dec-2016

 --------------------------
 # td=(NStates=1) B3LYP/SVP
 --------------------------

 --
 TD
 --
 Symbolic Z-matrix:
 Charge =  0 Multiplicity = 1

                         Standard orientation:
 ---------------------------------------------------------------------
 Center     Atomic      Atomic             Coordinates (Angstroms)
 Number     Number       Type             X           Y           Z
 ---------------------------------------------------------------------
      1          8           0        4.136159   -4.846959   -1.991304
      2          8           0       -3.187677   -4.785102   -1.023635
      3          8           0       -7.010777   -1.510066   -1.747892
      4          8           0       -4.059199   -3.085780    0.241154
      5          8           0       -7.605894   -0.247632   -0.025599
      6          8           0        3.092039    2.375296    0.482977
      7          7           0        0.253026   -0.479907    0.521097
      8          7           0       -1.463243    1.866263    0.384410
      9          7           0        3.214883   -3.209983   -0.769227
     10          7           0        0.944860    2.849537    0.075084
     11          6           0       -0.726971   -2.415727    1.345949
     12          6           0       -0.930691   -1.099905    0.963020
     13          6           0        0.725964   -2.564726    1.285912
     14          6           0        1.277351   -1.428491    0.651549
     15          6           0       -3.657371    1.571692    0.227799
     16          6           0       -2.514383    0.868374    0.543734
     17          6           0       -2.253664   -0.499516    0.873185
     18          6           0       -3.456604    2.855496   -0.101783
     19          6           0       -1.669069   -3.313154    2.002648
     20          6           0        5.443103   -2.831954   -1.358356
     21          6           0        3.532004   -1.981972   -0.171495
     22          6           0       -2.023049    3.025284   -0.070656
     23          6           0        5.021386   -1.715155   -0.476485
     24          6           0       -5.026494    0.835396    0.341292
     25          6           0        2.637738   -1.057535    0.306122
     26          6           0        1.492827   -3.766484    1.903957
     27          6           0        4.225065   -3.803775   -1.397680
     28          6           0       -2.227460   -4.451257    1.023528
     29          6           0       -5.293939   -0.097035   -0.843250
     30          6           0       -4.375335    3.996882   -0.511038
     31          6           0       -1.156520    4.086868   -0.446900
     32          6           0        6.776079   -3.605357   -0.997976
     33          6           0        5.695826   -0.735896    0.062470
     34          6           0        0.261473    3.964383   -0.329337
     35          6           0        1.199245    5.105198   -0.540219
     36          6           0        2.393406    4.660571   -0.238009
     37          6           0       -3.194848   -3.920700    0.010712
     38          6           0        5.370209    0.450830    0.817688
     39          6           0       -6.724350   -0.635344   -0.762974
     40          6           0        3.818921    5.295597   -0.159789
     41          6           0        2.212422    3.104665    0.219740
     42          6           0        0.685320    6.502882   -0.969763
     43          6           0        4.389608    5.629172    1.150410
     44          1           0        0.524005    0.407964    0.054247
     45          1           0       -2.964565   -1.266341    1.036964
     46          1           0       -2.546357   -2.759432    2.315876
     47          1           0       -1.154829   -3.788501    2.728803
     48          1           0        5.670251   -2.455404   -2.305308
     49          1           0       -5.116478    0.310768    1.269845
     50          1           0       -5.966484    1.588229    0.472568
     51          1           0        3.193732   -0.014566    0.591671
     52          1           0       -0.456413    1.795760    0.509011
     53          1           0        1.368103   -4.613112    1.131845
     54          1           0        2.565337   -3.536063    2.013702
     55          1           0        1.317555   -4.005095    2.989359
     56          1           0        2.229607   -3.511778   -0.851250
     57          1           0       -1.357111   -4.916915    0.509529
     58          1           0       -2.751362   -5.282370    1.515259
     59          1           0       -4.515958   -0.796509   -0.837101
     60          1           0       -5.265773    0.659926   -1.694814
     61          1           0       -4.156449    4.963301    0.061854
     62          1           0       -5.593395    4.079862   -0.174265
     63          1           0       -4.350829    4.189087   -1.589759
     64          1           0       -1.653102    4.927971   -0.804358
     65          1           0        7.764074   -3.035110   -0.940642
     66          1           0        6.953992   -4.565796   -1.563175
     67          1           0        6.775548   -4.048108    0.022802
     68          1           0        6.566131   -0.897269   -0.441104
     69          1           0        4.954697    1.144374    0.109769
     70          1           0        6.350567    0.917878    1.044220
     71          1           0        4.822225    0.132700    1.714169
     72          1           0        3.641252    6.118832   -0.918677
     73          1           0        4.429341    4.606928   -0.878179
     74          1           0        0.237783    6.390496   -2.058938
     75          1           0        1.618087    7.169493   -0.909984
     76          1           0       -0.047762    6.805236   -0.120985
     77          1           0        3.915135    6.452403    1.698263
     78          1           0        5.526769    5.916390    1.070037
     79          1           0        4.206774    4.691187    1.750205
     80          1           0       -3.865503   -4.807524   -1.908954
     81          1           0       -7.995665   -1.524148   -1.701682
 ---------------------------------------------------------------------

 SCF Done:  E(RB3LYP) =  -1949.14674961     A.U. after   16 cycles

 Excitation energies and oscillator strengths:

 Excited State   1:      Singlet-A      1.9653 eV  630.85 nm  f=0.3673  <S**2>=0.000
     156 ->157         0.70507
     156 <-157        -0.10298
 This state for optimization and/or second-order correction.
 Total Energy, E(TD-HF/TD-DFT) =  -1949.07452461
 Copying the excited state density for this state as the 1-particle RhoCI density.

 The electronic state is 1-A.
 Alpha  occ. eigenvalues --  -19.19875 -19.18090 -19.14389 -19.12695 -19.10335
 Alpha  occ. eigenvalues --  -19.09665 -14.37528 -14.37248 -14.35466 -14.28244
 Alpha  occ. eigenvalues --  -10.33989 -10.32015 -10.28724 -10.25211 -10.24168
 Alpha  occ. eigenvalues --  -10.23789 -10.23704 -10.23685 -10.23559 -10.23343
 Alpha  occ. eigenvalues --  -10.22293 -10.22008 -10.21858 -10.21009 -10.20709
 Alpha  occ. eigenvalues --  -10.20425 -10.20418 -10.20417 -10.20403 -10.20217
 Alpha  occ. eigenvalues --  -10.20205 -10.20047 -10.19942 -10.19419 -10.19311
 Alpha  occ. eigenvalues --  -10.19272 -10.19166 -10.18554 -10.18518 -10.18501
 Alpha  occ. eigenvalues --  -10.17775 -10.17722 -10.17579  -1.10049  -1.08953
 Alpha  occ. eigenvalues --   -1.04123  -1.03469  -1.00976  -1.00089  -0.97515
 Alpha  occ. eigenvalues --   -0.96608  -0.95421  -0.92012  -0.83040  -0.82627
 Alpha  occ. eigenvalues --   -0.82061  -0.80387  -0.78808  -0.78359  -0.77522
 Alpha  occ. eigenvalues --   -0.77281  -0.76574  -0.75217  -0.74268  -0.72181
 Alpha  occ. eigenvalues --   -0.70820  -0.69504  -0.69226  -0.67645  -0.67071
 Alpha  occ. eigenvalues --   -0.66559  -0.65930  -0.64953  -0.62407  -0.61560
 Alpha  occ. eigenvalues --   -0.60616  -0.59546  -0.58829  -0.58578  -0.56926
 Alpha  occ. eigenvalues --   -0.56461  -0.55520  -0.54558  -0.53261  -0.52561
 Alpha  occ. eigenvalues --   -0.51762  -0.51168  -0.50708  -0.50110  -0.49591
 Alpha  occ. eigenvalues --   -0.49291  -0.48638  -0.48344  -0.47904  -0.47654
 Alpha  occ. eigenvalues --   -0.47421  -0.46284  -0.46153  -0.45400  -0.45055
 Alpha  occ. eigenvalues --   -0.44656  -0.44391  -0.44274  -0.43858  -0.43553
 Alpha  occ. eigenvalues --   -0.43008  -0.42788  -0.42724  -0.42378  -0.42300
 Alpha  occ. eigenvalues --   -0.42049  -0.41483  -0.41225  -0.41008  -0.40915
 Alpha  occ. eigenvalues --   -0.40648  -0.40447  -0.40259  -0.39851  -0.39643
 Alpha  occ. eigenvalues --   -0.39542  -0.39241  -0.38709  -0.38403  -0.38074
 Alpha  occ. eigenvalues --   -0.37654  -0.37226  -0.37112  -0.36959  -0.36915
 Alpha  occ. eigenvalues --   -0.36730  -0.36218  -0.35060  -0.34642  -0.34204
 Alpha  occ. eigenvalues --   -0.33986  -0.33931  -0.33412  -0.33116  -0.32325
 Alpha  occ. eigenvalues --   -0.32169  -0.31778  -0.31243  -0.29912  -0.29717
 Alpha  occ. eigenvalues --   -0.28366  -0.27186  -0.26623  -0.26302  -0.25738
 Alpha  occ. eigenvalues --   -0.25360  -0.24725  -0.23713  -0.22676  -0.21850
 Alpha  occ. eigenvalues --   -0.18381
 Alpha virt. eigenvalues --   -0.10447  -0.04783  -0.03247  -0.02365  -0.01014
 Alpha virt. eigenvalues --   -0.00091   0.00844   0.02647   0.03234   0.04066
 Alpha virt. eigenvalues --    0.04292   0.05032   0.05503   0.05959   0.06726

 Mulliken charges:
               1
     1  O   -0.202432
     2  O   -0.278707
     3  O   -0.184676
     4  O   -0.236781
     5  O   -0.237385
     6  O   -0.171346
     7  N   -0.122937
     8  N   -0.131447
     9  N   -0.077830
    10  N   -0.251256
    11  C   -0.126159
    12  C    0.057095
    13  C   -0.183530
    14  C    0.062010
    15  C   -0.072747
    16  C    0.140492
    17  C   -0.010814
    18  C   -0.058600
    19  C    0.204473
    20  C    0.011993
    21  C    0.035284
    22  C    0.057774
    23  C   -0.056514
    24  C    0.019356
    25  C   -0.155776
    26  C    0.048014
    27  C    0.099222
    28  C   -0.017210
    29  C    0.040082
    30  C   -0.010207
    31  C   -0.098124
    32  C   -0.016382
    33  C   -0.169070
    34  C    0.123698
    35  C   -0.111440
    36  C   -0.266577
    37  C    0.183642
    38  C    0.192734
    39  C    0.146056
    40  C    0.052247
    41  C    0.091085
    42  C    0.056641
    43  C    0.027979
    44  H    0.152498
    45  H   -0.016801
    46  H    0.016549
    47  H   -0.032222
    48  H    0.023803
    49  H    0.009431
    50  H    0.031097
    51  H    0.087001
    52  H    0.120027
    53  H    0.039579
    54  H    0.018533
    55  H    0.038174
    56  H    0.138171
    57  H    0.030917
    58  H    0.052709
    59  H    0.027407
    60  H    0.048890
    61  H    0.035275
    62  H    0.041665
    63  H    0.039808
    64  H   -0.061304
    65  H    0.027650
    66  H    0.036702
    67  H   -0.001147
    68  H   -0.055782
    69  H    0.060814
    70  H   -0.000268
    71  H    0.045711
    72  H   -0.018262
    73  H    0.017215
    74  H    0.053106
    75  H    0.030353
    76  H    0.046066
    77  H    0.011837
    78  H    0.028511
    79  H    0.034157
    80  H    0.262139
    81  H    0.178058
 Sum of Mulliken charges =  -0.00000

 Dipole moment (field-independent basis, Debye):
    X=             -2.3821    Y=             -0.4328    Z=             -0.9362  Tot=              2.5958
 Quadrupole moment (field-independent basis, Debye-Ang):
   XX=           -253.0060   YY=           -241.3703   ZZ=           -251.5762
   XY=             16.4230   XZ=             19.0050   YZ=            -11.5989

 Normal termination of Gaussian 16 at Sat Jun 29 13:11:19 2019.
