 Gaussian 16, Revision A.03,
 Gaussian 16:  ES64L-G16RevA.03 25-Dec-2016

 --------------------------
 # td=(NStates=1) B3LYP/SVP
 --------------------------

 --
 TD
 --
 Symbolic Z-matrix:
 Charge =  0 Multiplicity = 1

                         Standard orientation:
 ---------------------------------------------------------------------
 Center     Atomic      Atomic             Coordinates (Angstroms)
 Number     Number       Type             X           Y           Z
 ---------------------------------------------------------------------
      1          8           0        4.123455   -4.969985   -1.747638
      2          8           0       -2.936225   -4.912608   -0.953063
      3          8           0       -6.896821   -1.663566   -1.910468
      4          8           0       -3.934841   -3.123287    0.144016
      5          8           0       -7.528140   -0.609970    0.033410
      6          8           0        3.088507    2.388837    0.413204
      7          7           0        0.283970   -0.472263    0.493141
      8          7           0       -1.521078    1.871037    0.291683
      9          7           0        3.148029   -3.148682   -0.630127
     10          7           0        0.783226    2.880867   -0.063386
     11          6           0       -0.606880   -2.377577    1.397230
     12          6           0       -0.886599   -1.007495    0.977478
     13          6           0        0.753036   -2.560329    1.352161
     14          6           0        1.388373   -1.408231    0.713468
     15          6           0       -3.727130    1.628421    0.302080
     16          6           0       -2.485060    0.966711    0.489879
     17          6           0       -2.219902   -0.306406    0.946719
     18          6           0       -3.474940    2.899955   -0.138329
     19          6           0       -1.645576   -3.266444    2.068104
     20          6           0        5.382785   -2.952367   -1.328156
     21          6           0        3.638454   -1.895522   -0.205037
     22          6           0       -2.016286    3.177571   -0.077831
     23          6           0        4.989169   -1.705804   -0.559962
     24          6           0       -5.099121    0.915393    0.221836
     25          6           0        2.697385   -1.042858    0.325797
     26          6           0        1.420761   -3.825896    1.890700
     27          6           0        4.146518   -3.904900   -1.331817
     28          6           0       -2.158102   -4.446434    1.184164
     29          6           0       -5.394071    0.003574   -0.965744
     30          6           0       -4.517525    3.957440   -0.552336
     31          6           0       -1.203080    4.251748   -0.328373
     32          6           0        6.699072   -3.637329   -1.049458
     33          6           0        5.828913   -0.704094   -0.132271
     34          6           0        0.182266    4.115074   -0.339287
     35          6           0        1.150292    5.199546   -0.372820
     36          6           0        2.389997    4.629598   -0.190733
     37          6           0       -3.149706   -3.931616    0.116281
     38          6           0        5.404848    0.612096    0.527775
     39          6           0       -6.713298   -0.844245   -0.846357
     40          6           0        3.696600    5.222559   -0.307079
     41          6           0        2.148706    3.141318    0.073134
     42          6           0        0.832494    6.631812   -0.621570
     43          6           0        4.243442    5.471403    1.220822
     44          1           0        0.582311    0.249526   -0.254289
     45          1           0       -3.067227   -1.156747    0.674406
     46          1           0       -2.423763   -2.777141    2.441100
     47          1           0       -1.126130   -3.829255    3.001119
     48          1           0        5.506169   -2.809763   -2.511151
     49          1           0       -5.364806    0.328912    1.340882
     50          1           0       -5.962697    1.729642    0.331144
     51          1           0        2.721075   -0.037653    0.090125
     52          1           0       -0.482998    1.843992    0.610943
     53          1           0        1.361165   -4.770859    1.462176
     54          1           0        2.423818   -3.406379    1.815373
     55          1           0        1.086890   -3.991628    2.954709
     56          1           0        2.296160   -3.496946   -0.411950
     57          1           0       -1.524223   -5.015122    0.735989
     58          1           0       -2.711885   -5.179663    1.860455
     59          1           0       -4.465583   -0.781021   -1.013718
     60          1           0       -5.409626    0.474968   -1.988977
     61          1           0       -3.928816    4.869989   -0.127352
     62          1           0       -5.568695    3.783627   -0.305341
     63          1           0       -4.390167    4.186268   -1.722934
     64          1           0       -1.743759    5.259804   -0.406206
     65          1           0        7.512894   -2.842243   -1.095654
     66          1           0        6.990690   -4.362471   -1.781574
     67          1           0        6.637348   -3.963849    0.019485
     68          1           0        6.840831   -0.767141   -0.431174
     69          1           0        4.961256    1.338271   -0.092978
     70          1           0        6.383819    1.043242    1.003931
     71          1           0        4.763948    0.377698    1.209283
     72          1           0        3.733686    6.026413   -1.245898
     73          1           0        4.455356    4.563722   -0.687222
     74          1           0        0.079907    6.541189   -1.576483
     75          1           0        1.717293    7.220327   -0.732051
     76          1           0        0.260266    6.986525    0.287867
     77          1           0        3.521081    6.163605    1.805086
     78          1           0        5.563990    5.715064    1.289972
     79          1           0        4.165340    4.468910    1.690512
     80          1           0       -3.896787   -4.791047   -1.504030
     81          1           0       -7.859647   -2.024882   -1.973257
 ---------------------------------------------------------------------

 SCF Done:  E(RB3LYP) =  -1949.03694669     A.U. after   18 cycles

 Excitation energies and oscillator strengths:

 Excited State   1:      Singlet-A      1.5401 eV  805.03 nm  f=0.3273  <S**2>=0.000
     156 ->157         0.71713
     156 <-157        -0.15343
 This state for optimization and/or second-order correction.
 Total Energy, E(TD-HF/TD-DFT) =  -1948.98034807
 Copying the excited state density for this state as the 1-particle RhoCI density.

 The electronic state is 1-A.
 Alpha  occ. eigenvalues --  -19.19332 -19.17883 -19.16915 -19.12857 -19.12437
 Alpha  occ. eigenvalues --  -19.10177 -14.37882 -14.36169 -14.35299 -14.28958
 Alpha  occ. eigenvalues --  -10.33191 -10.32745 -10.29426 -10.26380 -10.24657
 Alpha  occ. eigenvalues --  -10.24515 -10.24245 -10.23806 -10.23118 -10.22728
 Alpha  occ. eigenvalues --  -10.22366 -10.22257 -10.21965 -10.21514 -10.21044
 Alpha  occ. eigenvalues --  -10.20916 -10.20911 -10.20821 -10.20699 -10.20532
 Alpha  occ. eigenvalues --  -10.20424 -10.20363 -10.20133 -10.20060 -10.19977
 Alpha  occ. eigenvalues --  -10.19963 -10.19750 -10.19497 -10.19251 -10.19188
 Alpha  occ. eigenvalues --  -10.18271 -10.18196 -10.16566  -1.12869  -1.08594
 Alpha  occ. eigenvalues --   -1.07709  -1.00278  -0.99703  -0.99567  -0.97154
 Alpha  occ. eigenvalues --   -0.96123  -0.95341  -0.90585  -0.82223  -0.81833
 Alpha  occ. eigenvalues --   -0.80819  -0.80609  -0.79406  -0.79007  -0.77773
 Alpha  occ. eigenvalues --   -0.76304  -0.75877  -0.74928  -0.73850  -0.72258
 Alpha  occ. eigenvalues --   -0.70730  -0.70406  -0.67728  -0.67448  -0.67063
 Alpha  occ. eigenvalues --   -0.66177  -0.65443  -0.64977  -0.62137  -0.60713
 Alpha  occ. eigenvalues --   -0.59250  -0.58640  -0.57960  -0.57161  -0.56328
 Alpha  occ. eigenvalues --   -0.55474  -0.54904  -0.54288  -0.54153  -0.52324
 Alpha  occ. eigenvalues --   -0.51586  -0.51357  -0.51082  -0.50789  -0.49731
 Alpha  occ. eigenvalues --   -0.48999  -0.48907  -0.48407  -0.47796  -0.47631
 Alpha  occ. eigenvalues --   -0.47481  -0.46672  -0.46278  -0.45800  -0.45436
 Alpha  occ. eigenvalues --   -0.44963  -0.44596  -0.44126  -0.44008  -0.43799
 Alpha  occ. eigenvalues --   -0.43620  -0.42978  -0.42897  -0.42807  -0.42166
 Alpha  occ. eigenvalues --   -0.41803  -0.41485  -0.40976  -0.40641  -0.40530
 Alpha  occ. eigenvalues --   -0.40195  -0.39917  -0.39716  -0.39586  -0.39489
 Alpha  occ. eigenvalues --   -0.39198  -0.38786  -0.38335  -0.38014  -0.37861
 Alpha  occ. eigenvalues --   -0.37760  -0.37567  -0.37253  -0.37055  -0.36621
 Alpha  occ. eigenvalues --   -0.36304  -0.36283  -0.35899  -0.35062  -0.34676
 Alpha  occ. eigenvalues --   -0.34285  -0.33829  -0.33758  -0.33361  -0.33131
 Alpha  occ. eigenvalues --   -0.32688  -0.31937  -0.31839  -0.30406  -0.28867
 Alpha  occ. eigenvalues --   -0.27999  -0.27626  -0.27310  -0.26736  -0.25684
 Alpha  occ. eigenvalues --   -0.25280  -0.25058  -0.23460  -0.22486  -0.21614
 Alpha  occ. eigenvalues --   -0.17246
 Alpha virt. eigenvalues --   -0.11258  -0.06512  -0.04837  -0.01301  -0.00405
 Alpha virt. eigenvalues --    0.00414   0.01475   0.02004   0.03011   0.03614
 Alpha virt. eigenvalues --    0.03740   0.04069   0.04645   0.04948   0.05967

 Mulliken charges:
               1
     1  O   -0.112031
     2  O   -0.331334
     3  O   -0.225986
     4  O   -0.107835
     5  O   -0.230278
     6  O   -0.260322
     7  N   -0.161388
     8  N   -0.141295
     9  N   -0.144682
    10  N   -0.349923
    11  C   -0.062632
    12  C    0.019892
    13  C   -0.173915
    14  C    0.018303
    15  C   -0.037519
    16  C    0.059159
    17  C   -0.085541
    18  C   -0.111162
    19  C    0.105996
    20  C   -0.153952
    21  C    0.096316
    22  C    0.107484
    23  C    0.062892
    24  C   -0.024735
    25  C   -0.057131
    26  C    0.082341
    27  C    0.138491
    28  C    0.091249
    29  C   -0.038978
    30  C    0.050235
    31  C   -0.150998
    32  C    0.057599
    33  C   -0.153590
    34  C    0.126154
    35  C   -0.126022
    36  C   -0.157026
    37  C    0.131795
    38  C    0.152600
    39  C    0.171929
    40  C    0.045094
    41  C    0.190852
    42  C    0.093976
    43  C   -0.084485
    44  H    0.187958
    45  H    0.083389
    46  H   -0.022689
    47  H    0.016356
    48  H    0.047576
    49  H    0.052994
    50  H    0.023713
    51  H   -0.024965
    52  H    0.177309
    53  H    0.024840
    54  H    0.023450
    55  H    0.026407
    56  H    0.088778
    57  H   -0.036601
    58  H    0.046258
    59  H    0.057458
    60  H    0.046372
    61  H    0.032742
    62  H    0.040257
    63  H    0.035927
    64  H    0.002614
    65  H    0.015171
    66  H    0.024662
    67  H    0.019935
    68  H   -0.017373
    69  H    0.056641
    70  H    0.007812
    71  H   -0.015070
    72  H    0.024256
    73  H   -0.003067
    74  H    0.044933
    75  H    0.017201
    76  H    0.034605
    77  H    0.033633
    78  H    0.032927
    79  H    0.043341
    80  H    0.214934
    81  H    0.215718
 Sum of Mulliken charges =  -0.00000

 Dipole moment (field-independent basis, Debye):
    X=             -2.5027    Y=             -0.4045    Z=             -1.5049  Tot=              2.9482
 Quadrupole moment (field-independent basis, Debye-Ang):
   XX=           -241.4955   YY=           -244.5459   ZZ=           -253.9824
   XY=             11.4405   XZ=             13.6396   YZ=            -12.5555

 Normal termination of Gaussian 16 at Thu Jun 27 11:16:53 2019.
