 Gaussian 16, Revision A.03,
 Gaussian 16:  ES64L-G16RevA.03 25-Dec-2016

 --------------------------
 # td=(NStates=1) B3LYP/SVP
 --------------------------

 --
 TD
 --
 Symbolic Z-matrix:
 Charge =  0 Multiplicity = 1

                         Standard orientation:
 ---------------------------------------------------------------------
 Center     Atomic      Atomic             Coordinates (Angstroms)
 Number     Number       Type             X           Y           Z
 ---------------------------------------------------------------------
      1          8           0        4.072400   -5.034892   -1.861255
      2          8           0       -3.488780   -4.692687   -0.924883
      3          8           0       -7.051106   -1.277397   -1.830099
      4          8           0       -4.031586   -2.768425    0.227003
      5          8           0       -7.547139   -0.327246    0.147281
      6          8           0        3.176275    2.170230    0.399990
      7          7           0        0.179178   -0.503357    0.611170
      8          7           0       -1.427065    1.911751    0.245977
      9          7           0        3.106025   -3.332605   -0.645169
     10          7           0        0.927423    2.795447    0.059228
     11          6           0       -0.783313   -2.271395    1.355022
     12          6           0       -1.035080   -0.881572    0.938182
     13          6           0        0.550162   -2.622725    1.209827
     14          6           0        1.137683   -1.500342    0.745279
     15          6           0       -3.688708    1.765665    0.120166
     16          6           0       -2.413744    1.029017    0.466909
     17          6           0       -2.267676   -0.317186    0.845594
     18          6           0       -3.334212    2.993173   -0.136309
     19          6           0       -1.812062   -3.212218    2.084883
     20          6           0        5.259029   -2.999580   -1.398526
     21          6           0        3.387431   -2.023030   -0.233577
     22          6           0       -1.832300    3.094847   -0.195677
     23          6           0        4.813054   -1.827676   -0.612100
     24          6           0       -5.077995    1.084294    0.169730
     25          6           0        2.506986   -1.206550    0.402835
     26          6           0        1.216178   -3.917451    1.772462
     27          6           0        4.077092   -3.970137   -1.344790
     28          6           0       -2.388023   -4.300535    1.157278
     29          6           0       -5.380615    0.128700   -0.921143
     30          6           0       -4.273041    4.053677   -0.569259
     31          6           0       -0.961547    4.214882   -0.434611
     32          6           0        6.695696   -3.724621   -1.105986
     33          6           0        5.779149   -0.942474   -0.049407
     34          6           0        0.484893    3.962418   -0.293174
     35          6           0        1.505902    5.014862   -0.480169
     36          6           0        2.686121    4.422757   -0.159339
     37          6           0       -3.381155   -3.820809    0.105325
     38          6           0        5.564603    0.195650    0.922045
     39          6           0       -6.740097   -0.474531   -0.743878
     40          6           0        4.029646    5.104028   -0.148068
     41          6           0        2.310849    2.990337    0.116602
     42          6           0        1.111192    6.409293   -0.994928
     43          6           0        4.492832    5.613958    1.396081
     44          1           0        0.253437    0.330885    0.012989
     45          1           0       -3.109137   -0.879774    1.229329
     46          1           0       -2.699460   -2.644835    2.559278
     47          1           0       -1.382541   -3.820546    2.977181
     48          1           0        5.281850   -2.479399   -2.453375
     49          1           0       -5.099279    0.422527    1.030899
     50          1           0       -6.066678    1.731083    0.366690
     51          1           0        2.952569   -0.060640    0.229730
     52          1           0       -0.239920    1.841032    0.230445
     53          1           0        0.886796   -4.792492    0.892718
     54          1           0        2.431208   -3.866439    1.891037
     55          1           0        0.861793   -4.105536    2.577815
     56          1           0        2.197247   -3.684675   -0.655572
     57          1           0       -1.507885   -4.698090    0.593014
     58          1           0       -2.919272   -5.096316    1.805918
     59          1           0       -4.527721   -0.613300   -1.060097
     60          1           0       -5.014953    0.850942   -1.809359
     61          1           0       -4.058348    4.971775    0.143125
     62          1           0       -5.294467    3.775647   -0.483995
     63          1           0       -4.020853    4.268686   -1.656622
     64          1           0       -1.244602    5.296178   -0.367148
     65          1           0        7.441826   -3.087644   -1.258219
     66          1           0        6.830636   -4.624558   -1.902475
     67          1           0        6.879353   -4.258420   -0.121069
     68          1           0        6.844406   -1.290309   -0.331701
     69          1           0        5.352900    1.098547    0.223644
     70          1           0        6.615316    0.204345    1.465497
     71          1           0        4.579763    0.071735    1.438639
     72          1           0        3.870136    5.907419   -0.931819
     73          1           0        4.884594    4.275231   -0.601189
     74          1           0        0.570775    6.358564   -1.907989
     75          1           0        2.059279    7.083364   -1.100762
     76          1           0        0.565465    6.931665   -0.220662
     77          1           0        3.828016    6.483693    1.715528
     78          1           0        5.461678    6.088538    1.438908
     79          1           0        4.493761    4.819193    2.371549
     80          1           0       -3.981661   -4.194163   -1.577142
     81          1           0       -7.949054   -1.657585   -1.841161
 ---------------------------------------------------------------------

 SCF Done:  E(RB3LYP) =  -1949.06731593     A.U. after   16 cycles

 Excitation energies and oscillator strengths:

 Excited State   1:      Singlet-A      1.7743 eV  698.80 nm  f=0.3133  <S**2>=0.000
     156 ->157         0.70780
     156 <-157        -0.12251
 This state for optimization and/or second-order correction.
 Total Energy, E(TD-HF/TD-DFT) =  -1949.00211327
 Copying the excited state density for this state as the 1-particle RhoCI density.

 The electronic state is 1-A.
 Alpha  occ. eigenvalues --  -19.20339 -19.16867 -19.14480 -19.13247 -19.11124
 Alpha  occ. eigenvalues --  -19.10481 -14.37782 -14.36458 -14.35670 -14.31084
 Alpha  occ. eigenvalues --  -10.33866 -10.32703 -10.28310 -10.27735 -10.24211
 Alpha  occ. eigenvalues --  -10.24184 -10.23436 -10.23380 -10.22958 -10.22599
 Alpha  occ. eigenvalues --  -10.22459 -10.22149 -10.21858 -10.21500 -10.21044
 Alpha  occ. eigenvalues --  -10.20990 -10.20620 -10.20518 -10.20509 -10.20450
 Alpha  occ. eigenvalues --  -10.20408 -10.20102 -10.20031 -10.19736 -10.19709
 Alpha  occ. eigenvalues --  -10.19665 -10.19615 -10.19533 -10.19491 -10.19446
 Alpha  occ. eigenvalues --  -10.19303 -10.19250 -10.18991  -1.11104  -1.08133
 Alpha  occ. eigenvalues --   -1.04658  -1.02337  -1.01436  -1.00288  -0.99771
 Alpha  occ. eigenvalues --   -0.98583  -0.96117  -0.94481  -0.82556  -0.82117
 Alpha  occ. eigenvalues --   -0.81217  -0.80578  -0.80295  -0.78777  -0.77909
 Alpha  occ. eigenvalues --   -0.77226  -0.75849  -0.73778  -0.73275  -0.71648
 Alpha  occ. eigenvalues --   -0.70860  -0.69718  -0.69320  -0.68473  -0.67621
 Alpha  occ. eigenvalues --   -0.66706  -0.65662  -0.63625  -0.62992  -0.61489
 Alpha  occ. eigenvalues --   -0.60260  -0.59648  -0.58800  -0.58406  -0.57859
 Alpha  occ. eigenvalues --   -0.55923  -0.55327  -0.55000  -0.53648  -0.53108
 Alpha  occ. eigenvalues --   -0.52716  -0.51589  -0.50939  -0.50532  -0.50004
 Alpha  occ. eigenvalues --   -0.48942  -0.48718  -0.47999  -0.47464  -0.47149
 Alpha  occ. eigenvalues --   -0.46259  -0.46218  -0.45880  -0.45453  -0.45213
 Alpha  occ. eigenvalues --   -0.44881  -0.44428  -0.43992  -0.43830  -0.43359
 Alpha  occ. eigenvalues --   -0.43088  -0.42992  -0.42554  -0.42324  -0.41982
 Alpha  occ. eigenvalues --   -0.41710  -0.41353  -0.41008  -0.40761  -0.40453
 Alpha  occ. eigenvalues --   -0.40222  -0.40027  -0.39681  -0.39188  -0.38936
 Alpha  occ. eigenvalues --   -0.38761  -0.38622  -0.38357  -0.38188  -0.38038
 Alpha  occ. eigenvalues --   -0.37649  -0.37407  -0.37157  -0.36873  -0.36591
 Alpha  occ. eigenvalues --   -0.36414  -0.35796  -0.35302  -0.35057  -0.34745
 Alpha  occ. eigenvalues --   -0.34341  -0.34105  -0.33894  -0.33730  -0.33388
 Alpha  occ. eigenvalues --   -0.32780  -0.32124  -0.31359  -0.30455  -0.29498
 Alpha  occ. eigenvalues --   -0.29302  -0.28783  -0.26734  -0.25865  -0.25763
 Alpha  occ. eigenvalues --   -0.25514  -0.25060  -0.24761  -0.23870  -0.21597
 Alpha  occ. eigenvalues --   -0.17203
 Alpha virt. eigenvalues --   -0.10181  -0.05860  -0.03569  -0.02294  -0.01252
 Alpha virt. eigenvalues --    0.00824   0.01972   0.03142   0.03896   0.04191
 Alpha virt. eigenvalues --    0.04738   0.05007   0.05373   0.05822   0.06074

 Mulliken charges:
               1
     1  O   -0.177013
     2  O   -0.157267
     3  O   -0.232430
     4  O   -0.254982
     5  O   -0.211658
     6  O   -0.211145
     7  N   -0.013688
     8  N   -0.136102
     9  N   -0.083365
    10  N   -0.268067
    11  C   -0.126816
    12  C    0.045060
    13  C   -0.144509
    14  C    0.061812
    15  C   -0.031304
    16  C    0.049985
    17  C   -0.068516
    18  C   -0.181607
    19  C    0.035721
    20  C   -0.112686
    21  C    0.058688
    22  C    0.079397
    23  C   -0.052477
    24  C    0.065522
    25  C   -0.152708
    26  C    0.132917
    27  C    0.104063
    28  C   -0.012334
    29  C   -0.092488
    30  C    0.088695
    31  C   -0.116312
    32  C    0.048903
    33  C   -0.173666
    34  C    0.006928
    35  C   -0.106430
    36  C   -0.152781
    37  C    0.144504
    38  C    0.044464
    39  C    0.213065
    40  C   -0.014413
    41  C    0.165144
    42  C    0.116881
    43  C   -0.051739
    44  H    0.125317
    45  H    0.015747
    46  H    0.028385
    47  H    0.022316
    48  H    0.060636
    49  H    0.000494
    50  H    0.042564
    51  H    0.083136
    52  H    0.223163
    53  H    0.045824
    54  H    0.067115
    55  H   -0.069432
    56  H    0.103729
    57  H    0.034680
    58  H    0.061863
    59  H    0.056989
    60  H    0.048179
    61  H    0.032068
    62  H    0.002710
    63  H    0.037014
    64  H    0.006168
    65  H   -0.011841
    66  H    0.042317
    67  H    0.029837
    68  H    0.011198
    69  H    0.074147
    70  H    0.040356
    71  H    0.050487
    72  H    0.031726
    73  H    0.047724
    74  H    0.031717
    75  H    0.017772
    76  H    0.024777
    77  H    0.017943
    78  H    0.018069
    79  H    0.058703
    80  H    0.177398
    81  H    0.183759
 Sum of Mulliken charges =  -0.00000

 Dipole moment (field-independent basis, Debye):
    X=             -1.2234    Y=              1.7201    Z=             -0.8201  Tot=              2.2645
 Quadrupole moment (field-independent basis, Debye-Ang):
   XX=           -255.7434   YY=           -240.9428   ZZ=           -254.3044
   XY=             20.4124   XZ=             15.8380   YZ=            -13.6504

 Normal termination of Gaussian 16 at Mon Jul  1 08:05:33 2019.
