 Gaussian 16, Revision A.03,
 Gaussian 16:  ES64L-G16RevA.03 25-Dec-2016

 --------------------------
 # td=(NStates=1) B3LYP/SVP
 --------------------------

 --
 TD
 --
 Symbolic Z-matrix:
 Charge =  0 Multiplicity = 1

                         Standard orientation:
 ---------------------------------------------------------------------
 Center     Atomic      Atomic             Coordinates (Angstroms)
 Number     Number       Type             X           Y           Z
 ---------------------------------------------------------------------
      1          8           0        4.280070   -4.775397   -1.877532
      2          8           0       -2.970453   -4.860832   -1.035095
      3          8           0       -6.969572   -1.747925   -1.730547
      4          8           0       -3.897996   -3.215969    0.242183
      5          8           0       -7.716283   -0.216297   -0.223690
      6          8           0        2.947106    2.358390    0.497349
      7          7           0        0.271335   -0.556822    0.431772
      8          7           0       -1.608565    1.746864    0.356650
      9          7           0        3.302030   -3.055190   -0.716452
     10          7           0        0.766379    2.863521    0.166328
     11          6           0       -0.573542   -2.452016    1.293325
     12          6           0       -0.962449   -1.041116    0.877920
     13          6           0        0.761587   -2.725749    1.215024
     14          6           0        1.290536   -1.493144    0.648641
     15          6           0       -3.796950    1.465535    0.167692
     16          6           0       -2.420657    0.792242    0.475997
     17          6           0       -2.177261   -0.503233    0.896086
     18          6           0       -3.461819    2.847898   -0.172529
     19          6           0       -1.612110   -3.304036    1.992481
     20          6           0        5.491407   -2.801608   -1.385553
     21          6           0        3.591042   -1.831121   -0.064018
     22          6           0       -2.154834    2.971198   -0.042368
     23          6           0        5.037661   -1.544522   -0.470071
     24          6           0       -5.095437    0.858606    0.271489
     25          6           0        2.615613   -1.061756    0.437257
     26          6           0        1.583440   -3.842527    1.707927
     27          6           0        4.363378   -3.730657   -1.393149
     28          6           0       -2.037415   -4.605496    1.225207
     29          6           0       -5.356774   -0.188682   -0.941055
     30          6           0       -4.499716    3.940003   -0.366734
     31          6           0       -1.328479    4.077290   -0.135872
     32          6           0        6.876446   -3.423781   -1.090094
     33          6           0        5.800335   -0.579137   -0.076680
     34          6           0        0.111174    4.090880   -0.156027
     35          6           0        1.049745    5.194414   -0.458207
     36          6           0        2.269910    4.704117   -0.140135
     37          6           0       -3.066483   -4.091365    0.159213
     38          6           0        5.572087    0.635063    0.858207
     39          6           0       -6.809609   -0.683424   -0.903219
     40          6           0        3.580321    5.339066   -0.283995
     41          6           0        2.114466    3.146078    0.124919
     42          6           0        0.700971    6.508345   -0.941719
     43          6           0        4.354758    5.558486    1.025999
     44          1           0        0.423031    0.433157   -0.153663
     45          1           0       -3.041413   -1.191885    0.979043
     46          1           0       -2.421638   -2.697018    2.525490
     47          1           0       -1.175016   -3.799141    2.920267
     48          1           0        5.627709   -2.411989   -2.471374
     49          1           0       -5.032182    0.183924    1.128783
     50          1           0       -5.834016    1.651016    0.300378
     51          1           0        2.972857    0.147555    0.473693
     52          1           0       -0.604685    1.804541    0.453550
     53          1           0        1.544036   -4.675295    1.154906
     54          1           0        2.588020   -3.490265    1.898437
     55          1           0        1.216453   -4.126516    2.624729
     56          1           0        2.292811   -3.510789   -0.521415
     57          1           0       -1.273268   -5.272860    0.732257
     58          1           0       -2.859926   -5.262984    1.812528
     59          1           0       -4.655361   -0.952643   -0.838149
     60          1           0       -5.324635    0.311770   -1.886007
     61          1           0       -4.321534    4.659283    0.564585
     62          1           0       -5.490196    3.608794    0.018575
     63          1           0       -4.516713    4.502265   -1.398636
     64          1           0       -1.824388    5.096643   -0.380771
     65          1           0        7.605682   -2.696348   -1.509729
     66          1           0        6.849759   -4.155452   -1.726466
     67          1           0        7.284770   -3.629646    0.068215
     68          1           0        6.807513   -0.474356   -0.324112
     69          1           0        5.182273    1.322064    0.094782
     70          1           0        6.513774    1.060910    1.253721
     71          1           0        4.876012    0.282492    1.585375
     72          1           0        3.528574    6.397992   -0.804503
     73          1           0        4.160112    4.627434   -0.909793
     74          1           0        0.436236    6.349719   -2.118756
     75          1           0        1.373717    7.321287   -0.839425
     76          1           0       -0.414715    7.290131   -0.469088
     77          1           0        3.770468    6.386994    1.407838
     78          1           0        5.502018    5.939804    1.042806
     79          1           0        4.436733    4.649462    1.766565
     80          1           0       -3.662756   -4.331646   -1.587423
     81          1           0       -7.909385   -2.027876   -1.652388
 ---------------------------------------------------------------------

 SCF Done:  E(RB3LYP) =  -1949.04442271     A.U. after   18 cycles

 Excitation energies and oscillator strengths:

 Excited State   1:      Singlet-A      1.6660 eV  744.18 nm  f=0.3860  <S**2>=0.000
     156 ->157         0.71767
     156 <-157        -0.16729
 This state for optimization and/or second-order correction.
 Total Energy, E(TD-HF/TD-DFT) =  -1948.98319659
 Copying the excited state density for this state as the 1-particle RhoCI density.

 The electronic state is 1-A.
 Alpha  occ. eigenvalues --  -19.18613 -19.18551 -19.15439 -19.12743 -19.12005
 Alpha  occ. eigenvalues --  -19.09233 -14.38817 -14.36749 -14.34888 -14.28050
 Alpha  occ. eigenvalues --  -10.33811 -10.32191 -10.29250 -10.25544 -10.24696
 Alpha  occ. eigenvalues --  -10.24576 -10.24452 -10.23588 -10.22898 -10.22601
 Alpha  occ. eigenvalues --  -10.22359 -10.22142 -10.21889 -10.21668 -10.21200
 Alpha  occ. eigenvalues --  -10.21070 -10.20871 -10.20610 -10.20406 -10.20356
 Alpha  occ. eigenvalues --  -10.20292 -10.19760 -10.19595 -10.19524 -10.19429
 Alpha  occ. eigenvalues --  -10.19216 -10.19165 -10.19038 -10.18972 -10.18851
 Alpha  occ. eigenvalues --  -10.18822 -10.18812 -10.17942  -1.09324  -1.09115
 Alpha  occ. eigenvalues --   -1.07115  -1.01171  -1.00522  -0.99972  -0.99786
 Alpha  occ. eigenvalues --   -0.96827  -0.93781  -0.89190  -0.83063  -0.82460
 Alpha  occ. eigenvalues --   -0.81471  -0.80928  -0.79954  -0.79421  -0.78239
 Alpha  occ. eigenvalues --   -0.77470  -0.75892  -0.75255  -0.74570  -0.73048
 Alpha  occ. eigenvalues --   -0.70884  -0.69908  -0.68638  -0.68569  -0.67076
 Alpha  occ. eigenvalues --   -0.66951  -0.66028  -0.64728  -0.62072  -0.60488
 Alpha  occ. eigenvalues --   -0.59713  -0.58271  -0.57878  -0.57355  -0.56706
 Alpha  occ. eigenvalues --   -0.55626  -0.54312  -0.53791  -0.53346  -0.52553
 Alpha  occ. eigenvalues --   -0.51571  -0.50867  -0.50793  -0.50431  -0.50013
 Alpha  occ. eigenvalues --   -0.49355  -0.48818  -0.48361  -0.48163  -0.47883
 Alpha  occ. eigenvalues --   -0.47196  -0.46951  -0.46286  -0.46044  -0.45505
 Alpha  occ. eigenvalues --   -0.45135  -0.45082  -0.44736  -0.44250  -0.43724
 Alpha  occ. eigenvalues --   -0.43366  -0.42907  -0.42795  -0.42706  -0.42640
 Alpha  occ. eigenvalues --   -0.42384  -0.42001  -0.41643  -0.41598  -0.41308
 Alpha  occ. eigenvalues --   -0.41044  -0.40575  -0.40372  -0.40165  -0.39764
 Alpha  occ. eigenvalues --   -0.39088  -0.38813  -0.38492  -0.38290  -0.38121
 Alpha  occ. eigenvalues --   -0.37721  -0.37209  -0.37123  -0.36811  -0.36546
 Alpha  occ. eigenvalues --   -0.36016  -0.35839  -0.35502  -0.35185  -0.34821
 Alpha  occ. eigenvalues --   -0.34426  -0.33800  -0.33405  -0.33258  -0.32402
 Alpha  occ. eigenvalues --   -0.32346  -0.31832  -0.30994  -0.30119  -0.30006
 Alpha  occ. eigenvalues --   -0.28095  -0.27515  -0.27379  -0.26760  -0.26516
 Alpha  occ. eigenvalues --   -0.26223  -0.23604  -0.23378  -0.22760  -0.21079
 Alpha  occ. eigenvalues --   -0.16731
 Alpha virt. eigenvalues --   -0.10553  -0.05173  -0.03179  -0.01751   0.00171
 Alpha virt. eigenvalues --    0.00392   0.01330   0.01966   0.02887   0.03990
 Alpha virt. eigenvalues --    0.04190   0.04702   0.05213   0.05494   0.05779

 Mulliken charges:
               1
     1  O   -0.131797
     2  O   -0.256598
     3  O   -0.194571
     4  O   -0.220921
     5  O   -0.240257
     6  O   -0.210790
     7  N   -0.179075
     8  N    0.023994
     9  N   -0.244796
    10  N   -0.351021
    11  C   -0.087676
    12  C    0.136162
    13  C   -0.168202
    14  C    0.079928
    15  C   -0.151063
    16  C    0.024489
    17  C   -0.102346
    18  C   -0.108635
    19  C    0.013194
    20  C   -0.112613
    21  C    0.113926
    22  C    0.107071
    23  C    0.077053
    24  C    0.132434
    25  C   -0.207733
    26  C    0.236953
    27  C    0.142398
    28  C   -0.004983
    29  C    0.031167
    30  C    0.039412
    31  C   -0.129379
    32  C    0.092128
    33  C   -0.246354
    34  C    0.061181
    35  C    0.015303
    36  C   -0.181176
    37  C    0.141529
    38  C    0.098864
    39  C    0.136629
    40  C    0.051784
    41  C    0.157913
    42  C   -0.052884
    43  C   -0.068118
    44  H    0.207818
    45  H    0.025270
    46  H    0.045199
    47  H    0.012429
    48  H    0.057610
    49  H    0.016951
    50  H    0.008595
    51  H    0.111534
    52  H    0.101646
    53  H   -0.004602
    54  H    0.026661
    55  H   -0.020711
    56  H    0.166680
    57  H    0.059095
    58  H    0.068875
    59  H    0.023758
    60  H    0.027946
    61  H    0.032041
    62  H    0.010269
    63  H    0.058953
    64  H   -0.009303
    65  H    0.008149
    66  H   -0.019700
    67  H    0.050906
    68  H   -0.030384
    69  H    0.058802
    70  H    0.012491
    71  H    0.034558
    72  H    0.013965
    73  H    0.018932
    74  H    0.054218
    75  H    0.019062
    76  H    0.025734
    77  H    0.007942
    78  H    0.022087
    79  H    0.049783
    80  H    0.200484
    81  H    0.183731
 Sum of Mulliken charges =  -0.00000

 Dipole moment (field-independent basis, Debye):
    X=             -0.3834    Y=             -1.3685    Z=             -0.4298  Tot=              1.4847
 Quadrupole moment (field-independent basis, Debye-Ang):
   XX=           -247.3623   YY=           -245.2849   ZZ=           -252.8906
   XY=             13.6575   XZ=              8.8503   YZ=            -18.8129

 Normal termination of Gaussian 16 at Fri Jun 28 19:45:13 2019.
