 Gaussian 16, Revision A.03,
 Gaussian 16:  ES64L-G16RevA.03 25-Dec-2016

 --------------------------
 # td=(NStates=1) B3LYP/SVP
 --------------------------

 --
 TD
 --
 Symbolic Z-matrix:
 Charge =  0 Multiplicity = 1

                         Standard orientation:
 ---------------------------------------------------------------------
 Center     Atomic      Atomic             Coordinates (Angstroms)
 Number     Number       Type             X           Y           Z
 ---------------------------------------------------------------------
      1          8           0       -3.972369   -4.928575    1.951150
      2          8           0        3.226210   -4.816347    1.082909
      3          8           0        7.127439   -1.150437    2.008232
      4          8           0        3.989984   -3.114552   -0.119325
      5          8           0        7.409968   -0.673416   -0.260144
      6          8           0       -3.140750    2.344778   -0.494973
      7          7           0       -0.259129   -0.510738   -0.663354
      8          7           0        1.513688    1.997744   -0.342599
      9          7           0       -3.220128   -3.228667    0.676444
     10          7           0       -0.854116    2.924597   -0.134585
     11          6           0        0.765856   -2.334618   -1.352068
     12          6           0        0.995881   -1.003708   -0.968731
     13          6           0       -0.635046   -2.577213   -1.235815
     14          6           0       -1.242722   -1.446032   -0.742402
     15          6           0        3.753170    1.778693   -0.250313
     16          6           0        2.478405    1.008118   -0.532566
     17          6           0        2.225576   -0.356380   -0.835121
     18          6           0        3.355635    3.018195    0.141013
     19          6           0        1.780656   -3.369635   -1.991266
     20          6           0       -5.403713   -2.944407    1.331967
     21          6           0       -3.488208   -1.944197    0.096903
     22          6           0        1.953783    3.088007    0.121765
     23          6           0       -4.967218   -1.767993    0.549696
     24          6           0        5.075813    1.012566   -0.296920
     25          6           0       -2.611134   -1.061583   -0.467889
     26          6           0       -1.380483   -3.752316   -1.722836
     27          6           0       -4.247806   -3.879858    1.393204
     28          6           0        2.275622   -4.493694   -1.068205
     29          6           0        5.362544   -0.014961    0.860737
     30          6           0        4.322582    4.064461    0.441851
     31          6           0        1.156516    4.178773    0.367450
     32          6           0       -6.684946   -3.534014    0.937354
     33          6           0       -5.850214   -0.846889    0.136119
     34          6           0       -0.223521    4.077971    0.257324
     35          6           0       -1.313415    5.160220    0.534416
     36          6           0       -2.440905    4.559923    0.177127
     37          6           0        3.223797   -4.012459    0.002587
     38          6           0       -5.462832    0.335671   -0.727476
     39          6           0        6.712901   -0.691375    0.731513
     40          6           0       -3.777795    5.082780    0.239226
     41          6           0       -2.249639    3.065443   -0.168811
     42          6           0       -1.041892    6.444875    0.934240
     43          6           0       -4.386718    5.340514   -1.063832
     44          1           0       -0.370521    0.376145   -0.307742
     45          1           0        3.114589   -0.936804   -0.875142
     46          1           0        2.443934   -2.821525   -2.571197
     47          1           0        1.088100   -3.913024   -2.885763
     48          1           0       -5.305248   -2.559611    2.380429
     49          1           0        5.102277    0.441661   -1.206931
     50          1           0        5.868782    1.855618   -0.437503
     51          1           0       -2.993199    0.022122   -0.756082
     52          1           0        0.459845    1.996611   -0.540982
     53          1           0       -1.220995   -4.455673   -0.894414
     54          1           0       -2.557826   -3.696904   -1.673144
     55          1           0       -1.035021   -4.048438   -2.536537
     56          1           0       -2.397116   -3.587562    0.350963
     57          1           0        1.432101   -4.947333   -0.594773
     58          1           0        2.828846   -5.381042   -1.447514
     59          1           0        4.595990   -0.734880    0.733401
     60          1           0        5.121843    0.468088    1.819816
     61          1           0        4.427294    4.977937   -0.215309
     62          1           0        5.354871    3.622016    0.381983
     63          1           0        4.361015    4.482187    1.482744
     64          1           0        1.555684    5.078214    0.752745
     65          1           0       -7.617120   -2.959911    0.894993
     66          1           0       -7.021346   -4.364992    1.606104
     67          1           0       -6.828433   -4.129599   -0.130821
     68          1           0       -6.691051   -0.692278    0.451707
     69          1           0       -4.942752    1.181695   -0.418651
     70          1           0       -6.494284    0.836382   -1.033063
     71          1           0       -4.837505   -0.130646   -1.631756
     72          1           0       -3.743096    6.061863    0.854212
     73          1           0       -4.425852    4.478464    0.886734
     74          1           0       -0.741869    6.400547    2.020149
     75          1           0       -1.872069    7.184036    1.019521
     76          1           0       -0.133281    7.013653    0.390676
     77          1           0       -3.785769    5.852921   -2.021061
     78          1           0       -5.371737    5.947983   -1.017372
     79          1           0       -4.640597    4.501428   -1.662836
     80          1           0        3.797535   -4.465493    1.798839
     81          1           0        7.904730   -1.635277    1.957998
 ---------------------------------------------------------------------

 SCF Done:  E(RB3LYP) =  -1949.10340059     A.U. after   16 cycles

 Excitation energies and oscillator strengths:

 Excited State   1:      Singlet-A      2.0407 eV  607.55 nm  f=0.3818  <S**2>=0.000
     156 ->157         0.70454
     156 <-157        -0.10093
 This state for optimization and/or second-order correction.
 Total Energy, E(TD-HF/TD-DFT) =  -1949.02840485
 Copying the excited state density for this state as the 1-particle RhoCI density.

 The electronic state is 1-A.
 Alpha  occ. eigenvalues --  -19.19118 -19.17419 -19.14083 -19.13929 -19.11418
 Alpha  occ. eigenvalues --  -19.11380 -14.37072 -14.35825 -14.35535 -14.29022
 Alpha  occ. eigenvalues --  -10.33128 -10.33101 -10.29938 -10.26967 -10.24745
 Alpha  occ. eigenvalues --  -10.23779 -10.23310 -10.23125 -10.23095 -10.22975
 Alpha  occ. eigenvalues --  -10.22616 -10.21984 -10.21959 -10.21345 -10.21037
 Alpha  occ. eigenvalues --  -10.20952 -10.20763 -10.20410 -10.20348 -10.20100
 Alpha  occ. eigenvalues --  -10.19878 -10.19874 -10.19841 -10.19551 -10.19078
 Alpha  occ. eigenvalues --  -10.18975 -10.18805 -10.18196 -10.18120 -10.18083
 Alpha  occ. eigenvalues --  -10.17791 -10.17741 -10.17172  -1.11377  -1.08243
 Alpha  occ. eigenvalues --   -1.03580  -1.03479  -1.02529  -1.01228  -1.00626
 Alpha  occ. eigenvalues --   -0.99123  -0.94225  -0.90989  -0.83201  -0.82573
 Alpha  occ. eigenvalues --   -0.82177  -0.81807  -0.80826  -0.79603  -0.78510
 Alpha  occ. eigenvalues --   -0.77788  -0.77392  -0.76246  -0.74925  -0.73288
 Alpha  occ. eigenvalues --   -0.71487  -0.69756  -0.69285  -0.69138  -0.68346
 Alpha  occ. eigenvalues --   -0.67805  -0.66294  -0.65010  -0.62149  -0.61683
 Alpha  occ. eigenvalues --   -0.61345  -0.60194  -0.59526  -0.58874  -0.57512
 Alpha  occ. eigenvalues --   -0.56401  -0.55818  -0.55504  -0.55132  -0.54599
 Alpha  occ. eigenvalues --   -0.52726  -0.52098  -0.51603  -0.50633  -0.50293
 Alpha  occ. eigenvalues --   -0.50040  -0.49579  -0.49018  -0.48557  -0.47833
 Alpha  occ. eigenvalues --   -0.47680  -0.47421  -0.47006  -0.46415  -0.45895
 Alpha  occ. eigenvalues --   -0.45775  -0.45454  -0.45035  -0.44586  -0.44207
 Alpha  occ. eigenvalues --   -0.43517  -0.43225  -0.43001  -0.42799  -0.42406
 Alpha  occ. eigenvalues --   -0.42022  -0.41933  -0.41294  -0.41210  -0.41092
 Alpha  occ. eigenvalues --   -0.40604  -0.40448  -0.40309  -0.40242  -0.39973
 Alpha  occ. eigenvalues --   -0.39783  -0.39681  -0.39212  -0.38951  -0.38854
 Alpha  occ. eigenvalues --   -0.38473  -0.38198  -0.37507  -0.36608  -0.36547
 Alpha  occ. eigenvalues --   -0.36152  -0.35864  -0.35759  -0.35503  -0.34433
 Alpha  occ. eigenvalues --   -0.34213  -0.34018  -0.33808  -0.33606  -0.32868
 Alpha  occ. eigenvalues --   -0.32840  -0.32273  -0.30755  -0.30425  -0.29625
 Alpha  occ. eigenvalues --   -0.29056  -0.28146  -0.26754  -0.26187  -0.25786
 Alpha  occ. eigenvalues --   -0.25198  -0.24872  -0.23406  -0.23364  -0.22059
 Alpha  occ. eigenvalues --   -0.18534
 Alpha virt. eigenvalues --   -0.10333  -0.04998  -0.03561  -0.01102  -0.00392
 Alpha virt. eigenvalues --    0.00160   0.02170   0.03343   0.03951   0.04058
 Alpha virt. eigenvalues --    0.04990   0.05347   0.05614   0.06487   0.06617

 Mulliken charges:
               1
     1  O   -0.198142
     2  O   -0.190215
     3  O   -0.213573
     4  O   -0.203065
     5  O   -0.203952
     6  O   -0.177254
     7  N   -0.016197
     8  N   -0.023105
     9  N   -0.127784
    10  N   -0.370810
    11  C   -0.127452
    12  C    0.073325
    13  C   -0.192053
    14  C    0.062675
    15  C   -0.069644
    16  C   -0.000922
    17  C   -0.007925
    18  C   -0.114898
    19  C    0.076783
    20  C    0.064494
    21  C    0.071939
    22  C    0.088409
    23  C   -0.030790
    24  C    0.066523
    25  C   -0.121791
    26  C    0.183370
    27  C    0.112399
    28  C    0.080005
    29  C    0.050853
    30  C    0.054063
    31  C   -0.120638
    32  C    0.011512
    33  C   -0.025225
    34  C    0.084262
    35  C    0.002373
    36  C   -0.214882
    37  C    0.096738
    38  C   -0.001213
    39  C    0.183990
    40  C    0.114951
    41  C    0.201490
    42  C    0.025860
    43  C   -0.050247
    44  H    0.079183
    45  H   -0.012577
    46  H    0.004713
    47  H    0.026300
    48  H    0.051314
    49  H    0.014385
    50  H    0.024161
    51  H    0.083587
    52  H    0.158652
    53  H    0.020255
    54  H    0.042698
    55  H   -0.058372
    56  H    0.070881
    57  H    0.013281
    58  H    0.050426
    59  H    0.018733
    60  H    0.032591
    61  H    0.030191
    62  H   -0.002865
    63  H    0.016521
    64  H   -0.049925
    65  H    0.017865
    66  H    0.020197
    67  H    0.030609
    68  H   -0.123197
    69  H    0.046870
    70  H    0.000926
    71  H    0.043288
    72  H   -0.014957
    73  H    0.009292
    74  H    0.019794
    75  H    0.013664
    76  H    0.042560
    77  H    0.010683
    78  H    0.012275
    79  H    0.008543
    80  H    0.190975
    81  H    0.152238
 Sum of Mulliken charges =  -0.00000

 Dipole moment (field-independent basis, Debye):
    X=              1.8229    Y=              0.2089    Z=              1.1559  Tot=              2.1686
 Quadrupole moment (field-independent basis, Debye-Ang):
   XX=           -246.2434   YY=           -243.6105   ZZ=           -254.8224
   XY=             -9.7274   XZ=             13.0476   YZ=             15.4632

 Normal termination of Gaussian 16 at Wed Jun 26 21:14:00 2019.
