 Gaussian 16, Revision A.03,
 Gaussian 16:  ES64L-G16RevA.03 25-Dec-2016

 --------------------------
 # td=(NStates=1) B3LYP/SVP
 --------------------------

 --
 TD
 --
 Symbolic Z-matrix:
 Charge =  0 Multiplicity = 1

                         Standard orientation:
 ---------------------------------------------------------------------
 Center     Atomic      Atomic             Coordinates (Angstroms)
 Number     Number       Type             X           Y           Z
 ---------------------------------------------------------------------
      1          8           0        4.296896   -4.912549   -2.010973
      2          8           0       -3.051061   -4.737907   -1.084144
      3          8           0       -7.053991   -1.379161   -1.940634
      4          8           0       -3.857067   -2.992441    0.123412
      5          8           0       -7.495328   -0.856534    0.247779
      6          8           0        3.014705    2.335183    0.399419
      7          7           0        0.322182   -0.537119    0.624209
      8          7           0       -1.442413    1.822298    0.252744
      9          7           0        3.237902   -3.259161   -0.735210
     10          7           0        0.823797    3.009270    0.105939
     11          6           0       -0.545248   -2.370163    1.418874
     12          6           0       -0.826894   -0.986128    1.050084
     13          6           0        0.767974   -2.603278    1.321759
     14          6           0        1.311731   -1.494622    0.786433
     15          6           0       -3.737975    1.479511    0.200930
     16          6           0       -2.437669    0.848146    0.451392
     17          6           0       -2.070519   -0.416724    0.912126
     18          6           0       -3.492433    2.777211   -0.246783
     19          6           0       -1.690801   -3.227550    2.022699
     20          6           0        5.470072   -2.846417   -1.425178
     21          6           0        3.527866   -1.992021   -0.256088
     22          6           0       -2.103345    3.125057   -0.107231
     23          6           0        4.977664   -1.713038   -0.544556
     24          6           0       -5.045735    0.930624    0.262440
     25          6           0        2.605354   -1.098255    0.358006
     26          6           0        1.395014   -3.881955    1.851979
     27          6           0        4.325006   -3.873814   -1.425208
     28          6           0       -2.226603   -4.408936    1.135316
     29          6           0       -5.428981   -0.129493   -0.870411
     30          6           0       -4.564902    3.863776   -0.530167
     31          6           0       -1.258096    4.203388   -0.381439
     32          6           0        6.694716   -3.483996   -0.873435
     33          6           0        5.731420   -0.623211   -0.121660
     34          6           0        0.161920    4.091479   -0.257387
     35          6           0        1.167991    5.227406   -0.456233
     36          6           0        2.432648    4.714956   -0.109972
     37          6           0       -3.137819   -3.940483    0.046054
     38          6           0        5.316123    0.445589    0.739775
     39          6           0       -6.733043   -0.768454   -0.730630
     40          6           0        3.780913    5.337078   -0.117411
     41          6           0        2.225128    3.203774    0.091960
     42          6           0        0.693740    6.544597   -0.920431
     43          6           0        4.290646    5.576172    1.235247
     44          1           0        0.454039    0.330817    0.041453
     45          1           0       -2.867096   -1.195606    1.045213
     46          1           0       -2.562674   -2.613827    2.509422
     47          1           0       -1.255919   -3.682669    2.956349
     48          1           0        5.600199   -2.623046   -2.522353
     49          1           0       -4.927983   -0.003025    1.100363
     50          1           0       -5.925159    1.656795    0.574555
     51          1           0        2.795884   -0.091771    0.321157
     52          1           0       -0.584207    1.747930    0.524491
     53          1           0        1.550646   -4.706760    0.811314
     54          1           0        2.373081   -3.516628    2.033421
     55          1           0        0.783008   -4.381111    2.639056
     56          1           0        2.219985   -3.609752   -0.731603
     57          1           0       -1.297088   -4.902720    0.611193
     58          1           0       -2.696502   -5.370804    1.789930
     59          1           0       -4.540181   -0.719273   -0.948410
     60          1           0       -5.282660    0.569752   -1.784826
     61          1           0       -4.835615    4.793887    0.146195
     62          1           0       -5.636625    3.394453   -0.725647
     63          1           0       -4.351915    4.538563   -1.451937
     64          1           0       -1.669814    5.237537   -0.652761
     65          1           0        7.753792   -2.947730   -0.847408
     66          1           0        6.966196   -4.683812   -1.161167
     67          1           0        6.590123   -3.845129    0.140920
     68          1           0        6.605319   -0.430849   -0.480320
     69          1           0        4.824538    1.298858    0.193647
     70          1           0        6.135027    0.938015    1.198333
     71          1           0        4.801293    0.259744    1.632422
     72          1           0        3.819566    6.190425   -0.771379
     73          1           0        4.377040    4.541634   -0.708157
     74          1           0        0.450787    6.655787   -2.019936
     75          1           0        1.427188    7.190531   -0.959550
     76          1           0        0.130134    7.071361   -0.399857
     77          1           0        3.501630    6.345824    1.651138
     78          1           0        5.215999    6.195467    1.237178
     79          1           0        4.613713    4.542321    1.758153
     80          1           0       -3.543208   -4.190473   -1.738096
     81          1           0       -7.891221   -1.945813   -1.690275
 ---------------------------------------------------------------------

 SCF Done:  E(RB3LYP) =  -1949.03336880     A.U. after   16 cycles

 Excitation energies and oscillator strengths:

 Excited State   1:      Singlet-A      1.6378 eV  757.01 nm  f=0.3396  <S**2>=0.000
     156 ->157         0.71243
     156 <-157        -0.14220
 This state for optimization and/or second-order correction.
 Total Energy, E(TD-HF/TD-DFT) =  -1948.97318006
 Copying the excited state density for this state as the 1-particle RhoCI density.

 The electronic state is 1-A.
 Alpha  occ. eigenvalues --  -19.19392 -19.18205 -19.15294 -19.13481 -19.12444
 Alpha  occ. eigenvalues --  -19.11288 -14.38283 -14.37658 -14.34542 -14.27767
 Alpha  occ. eigenvalues --  -10.33805 -10.32850 -10.30298 -10.26958 -10.25253
 Alpha  occ. eigenvalues --  -10.24663 -10.23916 -10.23629 -10.22960 -10.22409
 Alpha  occ. eigenvalues --  -10.22391 -10.22352 -10.22342 -10.21819 -10.21809
 Alpha  occ. eigenvalues --  -10.21533 -10.21331 -10.21048 -10.20953 -10.20788
 Alpha  occ. eigenvalues --  -10.20535 -10.20355 -10.20307 -10.19817 -10.19575
 Alpha  occ. eigenvalues --  -10.19321 -10.19236 -10.19230 -10.19200 -10.18708
 Alpha  occ. eigenvalues --  -10.18398 -10.16797 -10.15987  -1.11121  -1.07518
 Alpha  occ. eigenvalues --   -1.05258  -1.02772  -1.02246  -1.00587  -0.98803
 Alpha  occ. eigenvalues --   -0.95424  -0.95163  -0.90666  -0.83129  -0.82472
 Alpha  occ. eigenvalues --   -0.81832  -0.81441  -0.79880  -0.78844  -0.77926
 Alpha  occ. eigenvalues --   -0.77309  -0.77000  -0.76428  -0.74661  -0.71851
 Alpha  occ. eigenvalues --   -0.70905  -0.69939  -0.69452  -0.68707  -0.67956
 Alpha  occ. eigenvalues --   -0.67102  -0.65230  -0.64546  -0.62464  -0.60731
 Alpha  occ. eigenvalues --   -0.59940  -0.59034  -0.58580  -0.58427  -0.57309
 Alpha  occ. eigenvalues --   -0.56026  -0.55338  -0.55240  -0.54074  -0.53765
 Alpha  occ. eigenvalues --   -0.53019  -0.51469  -0.50954  -0.50429  -0.50086
 Alpha  occ. eigenvalues --   -0.49531  -0.49116  -0.48518  -0.47880  -0.47679
 Alpha  occ. eigenvalues --   -0.47040  -0.46734  -0.46565  -0.46246  -0.45720
 Alpha  occ. eigenvalues --   -0.45497  -0.45177  -0.45004  -0.44753  -0.44374
 Alpha  occ. eigenvalues --   -0.43572  -0.43195  -0.42834  -0.42628  -0.42419
 Alpha  occ. eigenvalues --   -0.41998  -0.41882  -0.41473  -0.41207  -0.40981
 Alpha  occ. eigenvalues --   -0.40639  -0.40374  -0.40329  -0.40013  -0.39553
 Alpha  occ. eigenvalues --   -0.39394  -0.39218  -0.38865  -0.38487  -0.38262
 Alpha  occ. eigenvalues --   -0.37961  -0.37257  -0.37111  -0.36939  -0.36805
 Alpha  occ. eigenvalues --   -0.36411  -0.35803  -0.35736  -0.35536  -0.34942
 Alpha  occ. eigenvalues --   -0.34251  -0.34186  -0.34013  -0.33356  -0.32073
 Alpha  occ. eigenvalues --   -0.31972  -0.31627  -0.31474  -0.30474  -0.30071
 Alpha  occ. eigenvalues --   -0.28707  -0.27334  -0.26906  -0.26759  -0.26286
 Alpha  occ. eigenvalues --   -0.25197  -0.24653  -0.23669  -0.22708  -0.21395
 Alpha  occ. eigenvalues --   -0.17048
 Alpha virt. eigenvalues --   -0.10645  -0.06248  -0.04510  -0.02752  -0.01810
 Alpha virt. eigenvalues --   -0.00654   0.00776   0.01529   0.03258   0.03549
 Alpha virt. eigenvalues --    0.04169   0.04689   0.04785   0.05396   0.05678

 Mulliken charges:
               1
     1  O   -0.167625
     2  O   -0.205845
     3  O   -0.249118
     4  O   -0.200876
     5  O   -0.245143
     6  O   -0.191457
     7  N   -0.036893
     8  N   -0.115712
     9  N   -0.171311
    10  N   -0.288174
    11  C   -0.093568
    12  C    0.012919
    13  C   -0.153440
    14  C    0.081289
    15  C   -0.002540
    16  C    0.092699
    17  C   -0.075366
    18  C   -0.062649
    19  C    0.028838
    20  C   -0.000287
    21  C    0.069355
    22  C    0.166503
    23  C   -0.010713
    24  C   -0.087772
    25  C   -0.070657
    26  C    0.063013
    27  C    0.128029
    28  C   -0.061979
    29  C    0.002775
    30  C   -0.039690
    31  C   -0.126903
    32  C   -0.041222
    33  C   -0.056104
    34  C    0.053910
    35  C   -0.125977
    36  C   -0.201070
    37  C    0.156689
    38  C    0.103232
    39  C    0.221163
    40  C    0.068638
    41  C    0.170333
    42  C    0.282564
    43  C   -0.015256
    44  H    0.154513
    45  H    0.023571
    46  H    0.048997
    47  H    0.007625
    48  H    0.056653
    49  H    0.044076
    50  H    0.061473
    51  H   -0.031365
    52  H    0.049622
    53  H    0.026086
    54  H    0.032756
    55  H    0.040805
    56  H    0.164540
    57  H    0.051498
    58  H    0.083310
    59  H    0.038099
    60  H    0.042319
    61  H    0.042998
    62  H    0.030012
    63  H    0.025186
    64  H    0.001117
    65  H    0.042419
    66  H    0.031843
    67  H   -0.003054
    68  H   -0.075025
    69  H    0.072362
    70  H   -0.031978
    71  H    0.003800
    72  H   -0.013521
    73  H    0.014227
    74  H    0.017310
    75  H   -0.082601
    76  H   -0.052595
    77  H    0.023084
    78  H    0.005409
    79  H    0.057956
    80  H    0.184956
    81  H    0.206919
 Sum of Mulliken charges =  -0.00000

 Dipole moment (field-independent basis, Debye):
    X=             -0.6438    Y=              0.9823    Z=             -0.6759  Tot=              1.3551
 Quadrupole moment (field-independent basis, Debye-Ang):
   XX=           -255.7113   YY=           -236.7044   ZZ=           -257.5968
   XY=             13.8210   XZ=             13.6420   YZ=            -17.1629

 Normal termination of Gaussian 16 at Tue Jul  2 20:14:17 2019.
