 Gaussian 16, Revision A.03,
 Gaussian 16:  ES64L-G16RevA.03 25-Dec-2016

 --------------------------
 # td=(NStates=1) B3LYP/SVP
 --------------------------

 --
 TD
 --
 Symbolic Z-matrix:
 Charge =  0 Multiplicity = 1

                         Standard orientation:
 ---------------------------------------------------------------------
 Center     Atomic      Atomic             Coordinates (Angstroms)
 Number     Number       Type             X           Y           Z
 ---------------------------------------------------------------------
      1          8           0        4.030156   -4.899262   -1.903166
      2          8           0       -2.949595   -5.075978   -0.903713
      3          8           0       -6.841668   -1.498521   -1.912338
      4          8           0       -3.606145   -3.129705   -0.030135
      5          8           0       -7.564336   -0.324253   -0.217152
      6          8           0        3.070294    2.482440    0.446018
      7          7           0        0.293035   -0.483411    0.640167
      8          7           0       -1.458858    1.873709    0.376915
      9          7           0        3.196648   -3.121857   -0.697602
     10          7           0        0.849666    2.949088    0.052053
     11          6           0       -0.649985   -2.454498    1.486024
     12          6           0       -1.074607   -1.115668    0.979423
     13          6           0        0.750918   -2.608277    1.300478
     14          6           0        1.307169   -1.438474    0.733996
     15          6           0       -3.767605    1.502399    0.274501
     16          6           0       -2.478515    0.922002    0.446383
     17          6           0       -2.205683   -0.351618    0.912339
     18          6           0       -3.546913    2.862187    0.010654
     19          6           0       -1.610355   -3.304191    2.085728
     20          6           0        5.383181   -2.845415   -1.470328
     21          6           0        3.519363   -1.874139   -0.142669
     22          6           0       -2.088048    3.056893   -0.025997
     23          6           0        4.962695   -1.670824   -0.502143
     24          6           0       -5.056551    0.769918    0.296205
     25          6           0        2.689838   -1.009961    0.422013
     26          6           0        1.417092   -3.892598    1.896743
     27          6           0        4.095586   -3.778187   -1.452789
     28          6           0       -2.054396   -4.496605    1.316514
     29          6           0       -5.288263   -0.236191   -0.798889
     30          6           0       -4.509152    3.830474   -0.441930
     31          6           0       -1.242501    4.183490   -0.424314
     32          6           0        6.721084   -3.609142   -1.168620
     33          6           0        5.746083   -0.615963   -0.179323
     34          6           0        0.158165    4.065595   -0.285114
     35          6           0        1.100064    5.157814   -0.630396
     36          6           0        2.335737    4.622238   -0.292888
     37          6           0       -2.952806   -4.117513    0.066552
     38          6           0        5.533608    0.469179    0.782340
     39          6           0       -6.631925   -0.696832   -0.928707
     40          6           0        3.650137    5.428636   -0.204046
     41          6           0        2.280734    3.330718    0.210181
     42          6           0        0.639754    6.565513   -0.862971
     43          6           0        4.093576    5.710906    1.177819
     44          1           0        0.514089    0.472843    0.246513
     45          1           0       -3.111065   -1.041857    1.062203
     46          1           0       -2.514964   -2.933826    2.516777
     47          1           0       -1.274105   -3.887891    2.943716
     48          1           0        5.597973   -2.592427   -2.495956
     49          1           0       -5.086731    0.192029    1.404840
     50          1           0       -6.114366    1.409048    0.330464
     51          1           0        2.776135    0.086879    0.687722
     52          1           0       -0.421515    1.829646    0.553547
     53          1           0        1.653916   -4.651451    1.170380
     54          1           0        2.432668   -3.592737    2.004587
     55          1           0        1.086037   -4.404329    2.667713
     56          1           0        2.115757   -3.300406   -0.639752
     57          1           0       -1.292092   -5.188781    0.986201
     58          1           0       -2.793836   -5.222042    1.737045
     59          1           0       -4.517955   -1.041280   -0.665001
     60          1           0       -5.003354    0.294786   -1.749492
     61          1           0       -4.436951    4.788867    0.192727
     62          1           0       -5.535368    3.336033   -0.844581
     63          1           0       -3.859171    4.294334   -1.402796
     64          1           0       -1.710831    4.994938   -0.766801
     65          1           0        7.579441   -2.917533   -1.377627
     66          1           0        6.706653   -4.566511   -1.679448
     67          1           0        6.820576   -3.933756   -0.094483
     68          1           0        6.623375   -0.505167   -0.701372
     69          1           0        4.961112    1.185125    0.283098
     70          1           0        6.406048    0.943005    1.239099
     71          1           0        4.798363    0.261753    1.503328
     72          1           0        3.475987    6.454356   -0.649887
     73          1           0        4.430696    4.757800   -0.746515
     74          1           0        0.067759    6.737843   -1.906563
     75          1           0        1.562045    7.330537   -0.882102
     76          1           0        0.118723    6.855884   -0.072322
     77          1           0        3.229104    6.185323    1.796562
     78          1           0        5.050166    6.154362    1.191287
     79          1           0        4.193529    4.775391    1.864589
     80          1           0       -3.436611   -4.904636   -1.751340
     81          1           0       -7.729194   -1.787830   -1.913833
 ---------------------------------------------------------------------

 SCF Done:  E(RB3LYP) =  -1949.10278076     A.U. after   17 cycles

 Excitation energies and oscillator strengths:

 Excited State   1:      Singlet-A      1.7610 eV  704.07 nm  f=0.3186  <S**2>=0.000
     156 ->157         0.70524
     156 <-157        -0.12986
 This state for optimization and/or second-order correction.
 Total Energy, E(TD-HF/TD-DFT) =  -1949.03806624
 Copying the excited state density for this state as the 1-particle RhoCI density.

 The electronic state is 1-A.
 Alpha  occ. eigenvalues --  -19.18748 -19.18589 -19.14199 -19.11327 -19.11286
 Alpha  occ. eigenvalues --  -19.10980 -14.37916 -14.37582 -14.35614 -14.27555
 Alpha  occ. eigenvalues --  -10.33250 -10.31382 -10.29325 -10.26086 -10.24868
 Alpha  occ. eigenvalues --  -10.24729 -10.24335 -10.24169 -10.22943 -10.22144
 Alpha  occ. eigenvalues --  -10.21970 -10.21848 -10.21718 -10.21572 -10.21187
 Alpha  occ. eigenvalues --  -10.21159 -10.20621 -10.20592 -10.20544 -10.20449
 Alpha  occ. eigenvalues --  -10.20335 -10.20181 -10.20108 -10.20030 -10.19763
 Alpha  occ. eigenvalues --  -10.19281 -10.19257 -10.18819 -10.18770 -10.18431
 Alpha  occ. eigenvalues --  -10.18389 -10.18050 -10.16399  -1.12584  -1.10207
 Alpha  occ. eigenvalues --   -1.03917  -1.03572  -1.01826  -0.99665  -0.96610
 Alpha  occ. eigenvalues --   -0.95761  -0.94247  -0.90196  -0.83937  -0.82399
 Alpha  occ. eigenvalues --   -0.81176  -0.80713  -0.79193  -0.79012  -0.78138
 Alpha  occ. eigenvalues --   -0.77835  -0.76240  -0.75432  -0.74824  -0.72835
 Alpha  occ. eigenvalues --   -0.71956  -0.69861  -0.69462  -0.69084  -0.68258
 Alpha  occ. eigenvalues --   -0.67162  -0.65062  -0.64317  -0.62652  -0.62137
 Alpha  occ. eigenvalues --   -0.61734  -0.59690  -0.59467  -0.58136  -0.57313
 Alpha  occ. eigenvalues --   -0.56363  -0.55529  -0.54229  -0.53541  -0.53425
 Alpha  occ. eigenvalues --   -0.52008  -0.51919  -0.50920  -0.50470  -0.50013
 Alpha  occ. eigenvalues --   -0.49416  -0.48800  -0.48380  -0.48177  -0.47624
 Alpha  occ. eigenvalues --   -0.47196  -0.46917  -0.46305  -0.45758  -0.45600
 Alpha  occ. eigenvalues --   -0.45213  -0.44665  -0.44505  -0.44177  -0.43761
 Alpha  occ. eigenvalues --   -0.43754  -0.43147  -0.42894  -0.42725  -0.42509
 Alpha  occ. eigenvalues --   -0.42344  -0.41918  -0.41662  -0.41321  -0.41094
 Alpha  occ. eigenvalues --   -0.40818  -0.40710  -0.40214  -0.39991  -0.39829
 Alpha  occ. eigenvalues --   -0.39645  -0.39328  -0.39065  -0.38606  -0.38022
 Alpha  occ. eigenvalues --   -0.37788  -0.37508  -0.37214  -0.36926  -0.36528
 Alpha  occ. eigenvalues --   -0.36178  -0.35971  -0.35628  -0.35312  -0.35037
 Alpha  occ. eigenvalues --   -0.34558  -0.33864  -0.33595  -0.32799  -0.32638
 Alpha  occ. eigenvalues --   -0.32246  -0.31777  -0.31555  -0.30162  -0.29170
 Alpha  occ. eigenvalues --   -0.27655  -0.27452  -0.26301  -0.25793  -0.25435
 Alpha  occ. eigenvalues --   -0.25139  -0.24326  -0.23620  -0.23028  -0.21493
 Alpha  occ. eigenvalues --   -0.17682
 Alpha virt. eigenvalues --   -0.10664  -0.06775  -0.03843  -0.00065   0.00232
 Alpha virt. eigenvalues --    0.00457   0.01149   0.02903   0.03126   0.04040
 Alpha virt. eigenvalues --    0.04358   0.04665   0.05113   0.06001   0.06027

 Mulliken charges:
               1
     1  O   -0.205866
     2  O   -0.222463
     3  O   -0.094045
     4  O   -0.188983
     5  O   -0.264868
     6  O   -0.159031
     7  N   -0.223521
     8  N   -0.126734
     9  N   -0.139077
    10  N   -0.396459
    11  C    0.011662
    12  C    0.086069
    13  C   -0.187265
    14  C    0.019797
    15  C   -0.006073
    16  C    0.104674
    17  C   -0.085630
    18  C   -0.103570
    19  C    0.145355
    20  C   -0.092728
    21  C    0.169097
    22  C    0.081941
    23  C    0.022316
    24  C   -0.081844
    25  C   -0.128918
    26  C    0.201558
    27  C    0.139239
    28  C   -0.036395
    29  C    0.012480
    30  C   -0.002037
    31  C   -0.044773
    32  C    0.019673
    33  C   -0.143181
    34  C    0.099764
    35  C   -0.071776
    36  C   -0.193644
    37  C    0.107708
    38  C    0.153778
    39  C    0.096214
    40  C    0.067685
    41  C    0.174658
    42  C    0.082819
    43  C   -0.018788
    44  H    0.155724
    45  H    0.030029
    46  H    0.001473
    47  H   -0.006801
    48  H    0.028660
    49  H    0.040485
    50  H    0.056320
    51  H    0.057512
    52  H    0.147864
    53  H   -0.005535
    54  H   -0.004782
    55  H   -0.021118
    56  H    0.166596
    57  H    0.019564
    58  H    0.038548
    59  H    0.068188
    60  H    0.038069
    61  H    0.038527
    62  H    0.066561
    63  H    0.033956
    64  H   -0.096112
    65  H    0.026135
    66  H    0.032473
    67  H    0.006780
    68  H   -0.041596
    69  H    0.024051
    70  H    0.014951
    71  H   -0.005178
    72  H    0.002373
    73  H    0.023754
    74  H    0.049477
    75  H    0.024429
    76  H    0.004447
    77  H    0.012961
    78  H    0.010723
    79  H    0.018488
    80  H    0.201280
    81  H    0.161909
 Sum of Mulliken charges =  -0.00000

 Dipole moment (field-independent basis, Debye):
    X=             -2.1461    Y=             -0.1248    Z=             -0.4057  Tot=              2.1876
 Quadrupole moment (field-independent basis, Debye-Ang):
   XX=           -255.1499   YY=           -238.2986   ZZ=           -251.5273
   XY=             22.8260   XZ=             15.4728   YZ=            -12.9078

 Normal termination of Gaussian 16 at Fri Jun 28 08:14:32 2019.
