 Gaussian 16, Revision A.03,
 Gaussian 16:  ES64L-G16RevA.03 25-Dec-2016

 --------------------------
 # td=(NStates=1) B3LYP/SVP
 --------------------------

 --
 TD
 --
 Symbolic Z-matrix:
 Charge =  0 Multiplicity = 1

                         Standard orientation:
 ---------------------------------------------------------------------
 Center     Atomic      Atomic             Coordinates (Angstroms)
 Number     Number       Type             X           Y           Z
 ---------------------------------------------------------------------
      1          8           0        4.247933   -4.819076   -1.814035
      2          8           0       -2.947990   -4.837687   -1.054178
      3          8           0       -6.992992   -1.492842   -1.804699
      4          8           0       -3.807010   -3.185673    0.160769
      5          8           0       -7.671680   -0.420307   -0.001598
      6          8           0        2.987919    2.363307    0.391665
      7          7           0        0.297721   -0.598558    0.520109
      8          7           0       -1.540958    1.808261    0.298375
      9          7           0        3.315497   -3.147968   -0.687448
     10          7           0        0.797815    2.879343    0.117540
     11          6           0       -0.687369   -2.409622    1.464126
     12          6           0       -0.931239   -1.103974    0.852916
     13          6           0        0.766954   -2.534559    1.368565
     14          6           0        1.319278   -1.365314    0.798243
     15          6           0       -3.842802    1.482026    0.263663
     16          6           0       -2.494570    0.805256    0.520258
     17          6           0       -2.195728   -0.496337    0.913895
     18          6           0       -3.565041    2.835620   -0.101619
     19          6           0       -1.610595   -3.350464    2.018998
     20          6           0        5.434025   -2.702470   -1.304160
     21          6           0        3.632511   -1.883975   -0.257886
     22          6           0       -2.095627    3.005219   -0.052800
     23          6           0        5.043054   -1.575038   -0.557283
     24          6           0       -5.082154    0.833732    0.340884
     25          6           0        2.694827   -1.028883    0.275329
     26          6           0        1.482704   -3.781514    1.928322
     27          6           0        4.354191   -3.722025   -1.407217
     28          6           0       -2.038149   -4.476383    1.096882
     29          6           0       -5.368594   -0.103005   -0.911625
     30          6           0       -4.487820    3.908161   -0.617071
     31          6           0       -1.296585    4.147526   -0.300254
     32          6           0        6.806666   -3.507926   -0.955620
     33          6           0        5.815877   -0.555025   -0.232233
     34          6           0        0.187869    3.984679   -0.170837
     35          6           0        1.088963    5.115894   -0.354316
     36          6           0        2.361640    4.676934   -0.155241
     37          6           0       -3.081288   -4.103327   -0.005957
     38          6           0        5.468005    0.578110    0.673838
     39          6           0       -6.786472   -0.669370   -0.885714
     40          6           0        3.720837    5.281092   -0.207104
     41          6           0        2.161406    3.143295    0.060004
     42          6           0        0.660658    6.590370   -0.651335
     43          6           0        4.319656    5.537088    1.017542
     44          1           0        0.267487    0.409157    0.096552
     45          1           0       -3.118193   -1.185184    0.912357
     46          1           0       -2.435269   -2.975952    2.574280
     47          1           0       -1.008616   -3.873615    2.895352
     48          1           0        5.383804   -2.348977   -2.304724
     49          1           0       -5.132375    0.321319    1.412868
     50          1           0       -5.967144    1.657180    0.248940
     51          1           0        2.867676    0.136489    0.175199
     52          1           0       -0.362890    1.808541    0.335234
     53          1           0        1.377440   -4.728941    1.186556
     54          1           0        2.527287   -3.793472    2.141443
     55          1           0        1.145535   -3.998353    2.720084
     56          1           0        2.209252   -3.280782   -0.662772
     57          1           0       -1.274755   -4.881742    0.713119
     58          1           0       -2.608107   -5.321877    1.489117
     59          1           0       -4.760953   -1.092909   -0.932743
     60          1           0       -5.196467    0.315090   -1.724493
     61          1           0       -4.472991    4.823096   -0.052137
     62          1           0       -5.590252    3.426898   -0.342869
     63          1           0       -4.325385    4.163482   -1.652208
     64          1           0       -1.969860    4.929359   -0.736675
     65          1           0        7.524746   -2.634717   -0.981445
     66          1           0        6.832359   -4.373281   -1.642950
     67          1           0        6.611234   -3.959641    0.088282
     68          1           0        6.885019   -0.432097   -0.878129
     69          1           0        4.755750    1.152215    0.132248
     70          1           0        6.394727    1.032488    1.101334
     71          1           0        4.937609    0.310729    1.518312
     72          1           0        3.686036    6.142199   -0.827144
     73          1           0        4.240757    4.407717   -0.814828
     74          1           0        0.114372    6.705828   -1.667756
     75          1           0        1.568339    7.228222   -0.737671
     76          1           0       -0.131843    6.658179    0.143116
     77          1           0        3.889785    6.390660    1.556599
     78          1           0        5.216526    6.021656    0.990102
     79          1           0        4.311912    4.619196    1.646873
     80          1           0       -3.659594   -4.514454   -1.673509
     81          1           0       -7.883461   -2.047786   -2.000490
 ---------------------------------------------------------------------

 SCF Done:  E(RB3LYP) =  -1949.00038731     A.U. after   16 cycles

 Excitation energies and oscillator strengths:

 Excited State   1:      Singlet-A      1.7972 eV  689.86 nm  f=0.2884  <S**2>=0.000
     156 ->157         0.70458
     156 <-157        -0.10293
 This state for optimization and/or second-order correction.
 Total Energy, E(TD-HF/TD-DFT) =  -1948.93433973
 Copying the excited state density for this state as the 1-particle RhoCI density.

 The electronic state is 1-A.
 Alpha  occ. eigenvalues --  -19.21278 -19.19690 -19.13959 -19.11693 -19.10928
 Alpha  occ. eigenvalues --  -19.09923 -14.38065 -14.35949 -14.34842 -14.30234
 Alpha  occ. eigenvalues --  -10.32881 -10.31570 -10.28569 -10.27413 -10.23949
 Alpha  occ. eigenvalues --  -10.23269 -10.23238 -10.23196 -10.22968 -10.22346
 Alpha  occ. eigenvalues --  -10.21124 -10.20803 -10.20620 -10.20615 -10.20354
 Alpha  occ. eigenvalues --  -10.20335 -10.20333 -10.20234 -10.20149 -10.19960
 Alpha  occ. eigenvalues --  -10.19762 -10.19465 -10.19383 -10.19373 -10.19370
 Alpha  occ. eigenvalues --  -10.19351 -10.18901 -10.18805 -10.18771 -10.18768
 Alpha  occ. eigenvalues --  -10.17710 -10.16505 -10.16286  -1.14022  -1.11084
 Alpha  occ. eigenvalues --   -1.05570  -1.04778  -1.04171  -0.99181  -0.96045
 Alpha  occ. eigenvalues --   -0.95683  -0.95595  -0.93680  -0.82539  -0.82416
 Alpha  occ. eigenvalues --   -0.81677  -0.81205  -0.80202  -0.77753  -0.77187
 Alpha  occ. eigenvalues --   -0.76750  -0.76369  -0.75722  -0.73314  -0.72078
 Alpha  occ. eigenvalues --   -0.71617  -0.69748  -0.69174  -0.68748  -0.67755
 Alpha  occ. eigenvalues --   -0.66958  -0.65123  -0.64657  -0.63514  -0.62422
 Alpha  occ. eigenvalues --   -0.62027  -0.60916  -0.58419  -0.58276  -0.56725
 Alpha  occ. eigenvalues --   -0.55257  -0.54548  -0.54159  -0.52989  -0.52821
 Alpha  occ. eigenvalues --   -0.52549  -0.51998  -0.51196  -0.51085  -0.50376
 Alpha  occ. eigenvalues --   -0.50110  -0.48838  -0.48485  -0.47748  -0.47471
 Alpha  occ. eigenvalues --   -0.47009  -0.46694  -0.46346  -0.45703  -0.45328
 Alpha  occ. eigenvalues --   -0.45058  -0.44713  -0.44242  -0.44003  -0.43802
 Alpha  occ. eigenvalues --   -0.43566  -0.43201  -0.42990  -0.42440  -0.42262
 Alpha  occ. eigenvalues --   -0.42089  -0.41785  -0.41646  -0.41319  -0.41186
 Alpha  occ. eigenvalues --   -0.40877  -0.40812  -0.40662  -0.40253  -0.39665
 Alpha  occ. eigenvalues --   -0.39382  -0.38963  -0.38572  -0.38343  -0.38079
 Alpha  occ. eigenvalues --   -0.37906  -0.37526  -0.37407  -0.36871  -0.36117
 Alpha  occ. eigenvalues --   -0.35971  -0.35765  -0.35401  -0.35021  -0.34817
 Alpha  occ. eigenvalues --   -0.34767  -0.34493  -0.33736  -0.33443  -0.32715
 Alpha  occ. eigenvalues --   -0.32231  -0.31290  -0.29977  -0.29923  -0.29094
 Alpha  occ. eigenvalues --   -0.28741  -0.26397  -0.25771  -0.25544  -0.25201
 Alpha  occ. eigenvalues --   -0.24680  -0.24249  -0.23899  -0.23483  -0.20829
 Alpha  occ. eigenvalues --   -0.17131
 Alpha virt. eigenvalues --   -0.09772  -0.05602  -0.03663   0.00178   0.00705
 Alpha virt. eigenvalues --    0.01547   0.01665   0.02244   0.02900   0.03652
 Alpha virt. eigenvalues --    0.03824   0.04917   0.05190   0.05342   0.05690

 Mulliken charges:
               1
     1  O   -0.149989
     2  O   -0.119599
     3  O   -0.166696
     4  O   -0.203268
     5  O   -0.306684
     6  O   -0.164311
     7  N   -0.029725
     8  N   -0.217494
     9  N   -0.141643
    10  N   -0.265800
    11  C   -0.088219
    12  C    0.019871
    13  C   -0.223562
    14  C    0.034632
    15  C   -0.038754
    16  C    0.081609
    17  C   -0.085971
    18  C   -0.121972
    19  C    0.103889
    20  C   -0.033030
    21  C    0.051476
    22  C    0.034842
    23  C    0.066096
    24  C   -0.026218
    25  C   -0.150661
    26  C    0.209323
    27  C    0.067041
    28  C    0.138742
    29  C    0.073713
    30  C    0.071433
    31  C   -0.113839
    32  C    0.039891
    33  C   -0.263511
    34  C    0.104766
    35  C   -0.133704
    36  C   -0.213277
    37  C    0.057475
    38  C    0.115392
    39  C    0.126634
    40  C    0.094054
    41  C    0.137370
    42  C    0.080723
    43  C    0.097667
    44  H    0.149316
    45  H    0.057349
    46  H   -0.000178
    47  H    0.011483
    48  H    0.016895
    49  H    0.058844
    50  H    0.043755
    51  H    0.049531
    52  H    0.215926
    53  H    0.022605
    54  H   -0.000511
    55  H   -0.098179
    56  H    0.175614
    57  H   -0.064993
    58  H    0.019238
    59  H    0.055139
    60  H   -0.052856
    61  H    0.017780
    62  H    0.025995
    63  H    0.034415
    64  H   -0.016019
    65  H    0.036720
    66  H    0.047393
    67  H    0.033134
    68  H    0.028009
    69  H    0.055911
    70  H    0.010907
    71  H   -0.002966
    72  H   -0.025967
    73  H    0.025088
    74  H    0.029857
    75  H    0.027379
    76  H    0.045370
    77  H   -0.019572
    78  H   -0.028873
    79  H    0.031702
    80  H    0.186832
    81  H    0.249214
 Sum of Mulliken charges =  -0.00000

 Dipole moment (field-independent basis, Debye):
    X=             -2.0769    Y=              0.1358    Z=             -3.1289  Tot=              3.7579
 Quadrupole moment (field-independent basis, Debye-Ang):
   XX=           -253.8512   YY=           -235.7723   ZZ=           -249.5877
   XY=             30.3722   XZ=             24.0305   YZ=             -8.7661

 Normal termination of Gaussian 16 at Wed Jun 26 23:32:24 2019.
