 Gaussian 16, Revision A.03,
 Gaussian 16:  ES64L-G16RevA.03 25-Dec-2016

 --------------------------
 # td=(NStates=1) B3LYP/SVP
 --------------------------

 --
 TD
 --
 Symbolic Z-matrix:
 Charge =  0 Multiplicity = 1

                         Standard orientation:
 ---------------------------------------------------------------------
 Center     Atomic      Atomic             Coordinates (Angstroms)
 Number     Number       Type             X           Y           Z
 ---------------------------------------------------------------------
      1          8           0        4.317707   -4.719989   -1.856164
      2          8           0       -3.044619   -4.817267   -1.104576
      3          8           0       -6.960500   -1.667717   -1.830810
      4          8           0       -3.846196   -3.030842   -0.006686
      5          8           0       -7.583875   -0.318154   -0.072313
      6          8           0        3.056174    2.376260    0.371611
      7          7           0        0.284963   -0.456795    0.603891
      8          7           0       -1.587764    1.832067    0.383096
      9          7           0        3.381487   -3.138276   -0.586715
     10          7           0        0.836296    2.839406   -0.034931
     11          6           0       -0.621792   -2.418507    1.369758
     12          6           0       -0.950880   -1.042720    0.996785
     13          6           0        0.746306   -2.533959    1.258988
     14          6           0        1.293093   -1.339465    0.777750
     15          6           0       -3.850271    1.538228    0.233663
     16          6           0       -2.483658    0.817509    0.526572
     17          6           0       -2.174177   -0.498273    0.841335
     18          6           0       -3.508586    2.751009   -0.051039
     19          6           0       -1.668801   -3.483121    1.919278
     20          6           0        5.542893   -2.825041   -1.396761
     21          6           0        3.563229   -1.851811   -0.150029
     22          6           0       -2.153377    2.987220   -0.022030
     23          6           0        5.026826   -1.627256   -0.519490
     24          6           0       -5.146910    0.735230    0.421965
     25          6           0        2.649484   -0.942747    0.349634
     26          6           0        1.443594   -3.849440    1.785222
     27          6           0        4.370140   -3.631423   -1.373210
     28          6           0       -2.188140   -4.514003    1.011508
     29          6           0       -5.260776   -0.237095   -0.728676
     30          6           0       -4.455819    3.953533   -0.394122
     31          6           0       -1.296489    4.066165   -0.336895
     32          6           0        6.884245   -3.466906   -0.846061
     33          6           0        5.727258   -0.608649   -0.151673
     34          6           0        0.140223    4.010982   -0.200247
     35          6           0        1.099776    5.119885   -0.482629
     36          6           0        2.275679    4.643754   -0.244807
     37          6           0       -3.103795   -4.019958   -0.011823
     38          6           0        5.452382    0.573276    0.750831
     39          6           0       -6.722587   -0.741411   -0.799407
     40          6           0        3.703882    5.207758   -0.288241
     41          6           0        2.107480    3.158509    0.109989
     42          6           0        0.729777    6.506758   -0.916913
     43          6           0        4.185193    5.527254    1.114518
     44          1           0        0.431831    0.558326    0.239862
     45          1           0       -3.028924   -1.182105    0.949497
     46          1           0       -2.347415   -2.828308    2.307249
     47          1           0       -1.218918   -3.951955    2.734474
     48          1           0        5.655677   -2.562396   -2.366131
     49          1           0       -5.191132    0.291617    1.389699
     50          1           0       -5.975742    1.359297    0.559671
     51          1           0        2.909367    0.050357    0.501962
     52          1           0       -0.627331    1.833759    0.559099
     53          1           0        1.662222   -4.802039    1.213315
     54          1           0        2.424824   -3.487349    2.445919
     55          1           0        0.838296   -3.989006    2.706927
     56          1           0        2.394379   -3.207929   -0.767646
     57          1           0       -1.158243   -4.863067    0.578187
     58          1           0       -2.635770   -5.275155    1.611298
     59          1           0       -4.552761   -1.001547   -0.973910
     60          1           0       -5.140409    0.411586   -1.732033
     61          1           0       -4.381938    4.808834    0.324384
     62          1           0       -5.408289    3.584892   -0.476355
     63          1           0       -4.204048    4.351385   -1.535215
     64          1           0       -1.855938    5.152150   -0.734349
     65          1           0        7.660557   -2.800511   -1.098338
     66          1           0        6.974454   -4.508266   -1.291182
     67          1           0        6.718858   -3.825925    0.283136
     68          1           0        6.689469   -0.480100   -0.698894
     69          1           0        4.945170    1.602339    0.244322
     70          1           0        6.390732    1.016569    1.120345
     71          1           0        4.916184    0.224231    1.784215
     72          1           0        3.593890    6.136982   -0.862826
     73          1           0        4.352224    4.534535   -0.879072
     74          1           0        0.423190    6.297515   -1.964456
     75          1           0        1.528448    7.174763   -0.672246
     76          1           0       -0.199691    6.950822   -0.388126
     77          1           0        3.411168    6.153887    1.756798
     78          1           0        5.351812    5.872713    1.077901
     79          1           0        4.258449    4.705797    1.851290
     80          1           0       -3.603387   -4.338403   -1.733632
     81          1           0       -8.048076   -1.873156   -1.953478
 ---------------------------------------------------------------------

 SCF Done:  E(RB3LYP) =  -1949.09889261     A.U. after   17 cycles

 Excitation energies and oscillator strengths:

 Excited State   1:      Singlet-A      1.8576 eV  667.44 nm  f=0.3336  <S**2>=0.000
     156 ->157         0.70875
     156 <-157        -0.12324
 This state for optimization and/or second-order correction.
 Total Energy, E(TD-HF/TD-DFT) =  -1949.03062652
 Copying the excited state density for this state as the 1-particle RhoCI density.

 The electronic state is 1-A.
 Alpha  occ. eigenvalues --  -19.19844 -19.18254 -19.15172 -19.13113 -19.10126
 Alpha  occ. eigenvalues --  -19.08962 -14.38134 -14.36485 -14.36255 -14.28721
 Alpha  occ. eigenvalues --  -10.34230 -10.32287 -10.28063 -10.25130 -10.23992
 Alpha  occ. eigenvalues --  -10.23888 -10.23599 -10.23542 -10.23321 -10.22921
 Alpha  occ. eigenvalues --  -10.22266 -10.21493 -10.21404 -10.20971 -10.20955
 Alpha  occ. eigenvalues --  -10.20675 -10.20529 -10.20426 -10.20215 -10.20158
 Alpha  occ. eigenvalues --  -10.19991 -10.19924 -10.19595 -10.19526 -10.19334
 Alpha  occ. eigenvalues --  -10.19126 -10.18866 -10.18801 -10.18592 -10.18581
 Alpha  occ. eigenvalues --  -10.18561 -10.18329 -10.17362  -1.11650  -1.07139
 Alpha  occ. eigenvalues --   -1.05067  -1.01694  -0.99961  -0.99083  -0.98977
 Alpha  occ. eigenvalues --   -0.97767  -0.96472  -0.91769  -0.83700  -0.82811
 Alpha  occ. eigenvalues --   -0.81865  -0.81590  -0.79791  -0.79023  -0.78654
 Alpha  occ. eigenvalues --   -0.77576  -0.76443  -0.74692  -0.73838  -0.71227
 Alpha  occ. eigenvalues --   -0.70230  -0.69538  -0.68551  -0.68282  -0.67976
 Alpha  occ. eigenvalues --   -0.67818  -0.65970  -0.64465  -0.62123  -0.61278
 Alpha  occ. eigenvalues --   -0.60884  -0.60359  -0.59244  -0.58249  -0.57409
 Alpha  occ. eigenvalues --   -0.56341  -0.56137  -0.54796  -0.53426  -0.52878
 Alpha  occ. eigenvalues --   -0.52037  -0.51528  -0.51096  -0.50971  -0.50753
 Alpha  occ. eigenvalues --   -0.50263  -0.48951  -0.48372  -0.48293  -0.47722
 Alpha  occ. eigenvalues --   -0.46681  -0.46539  -0.45758  -0.45448  -0.45271
 Alpha  occ. eigenvalues --   -0.44905  -0.44652  -0.44508  -0.43951  -0.43109
 Alpha  occ. eigenvalues --   -0.43004  -0.42933  -0.42788  -0.42506  -0.42160
 Alpha  occ. eigenvalues --   -0.41805  -0.41651  -0.41246  -0.41199  -0.40702
 Alpha  occ. eigenvalues --   -0.40496  -0.40171  -0.40002  -0.39810  -0.39675
 Alpha  occ. eigenvalues --   -0.39054  -0.38682  -0.38453  -0.38370  -0.38197
 Alpha  occ. eigenvalues --   -0.37647  -0.37340  -0.37076  -0.36790  -0.36285
 Alpha  occ. eigenvalues --   -0.35740  -0.35485  -0.34850  -0.34817  -0.34271
 Alpha  occ. eigenvalues --   -0.33919  -0.33662  -0.33473  -0.33117  -0.32339
 Alpha  occ. eigenvalues --   -0.32072  -0.31238  -0.30957  -0.30592  -0.30271
 Alpha  occ. eigenvalues --   -0.28544  -0.27640  -0.26932  -0.26368  -0.26123
 Alpha  occ. eigenvalues --   -0.25627  -0.25313  -0.23590  -0.23304  -0.22011
 Alpha  occ. eigenvalues --   -0.17594
 Alpha virt. eigenvalues --   -0.10220  -0.04820  -0.03144  -0.02567  -0.00229
 Alpha virt. eigenvalues --   -0.00102   0.01197   0.01923   0.03283   0.03746
 Alpha virt. eigenvalues --    0.04773   0.05314   0.05707   0.06171   0.06570

 Mulliken charges:
               1
     1  O   -0.186515
     2  O   -0.163987
     3  O   -0.304946
     4  O   -0.243772
     5  O   -0.215095
     6  O   -0.263031
     7  N   -0.133623
     8  N   -0.008965
     9  N   -0.041737
    10  N   -0.275582
    11  C   -0.141312
    12  C    0.093371
    13  C   -0.186211
    14  C    0.054729
    15  C   -0.092860
    16  C   -0.006291
    17  C   -0.057858
    18  C   -0.148421
    19  C    0.190187
    20  C    0.079009
    21  C    0.051569
    22  C    0.075102
    23  C   -0.028560
    24  C    0.220684
    25  C   -0.026551
    26  C    0.015373
    27  C    0.018445
    28  C    0.055027
    29  C   -0.035881
    30  C    0.089924
    31  C   -0.159039
    32  C    0.048001
    33  C   -0.170638
    34  C    0.078041
    35  C   -0.114605
    36  C   -0.216940
    37  C    0.141593
    38  C   -0.018415
    39  C    0.174788
    40  C    0.150275
    41  C    0.141286
    42  C    0.098758
    43  C   -0.058075
    44  H    0.175216
    45  H    0.014599
    46  H   -0.024359
    47  H   -0.027895
    48  H   -0.002981
    49  H    0.007234
    50  H   -0.016316
    51  H   -0.021518
    52  H    0.093281
    53  H    0.069586
    54  H    0.031672
    55  H    0.011238
    56  H    0.131981
    57  H    0.064658
    58  H    0.045069
    59  H    0.035561
    60  H    0.047144
    61  H    0.042351
    62  H   -0.013466
    63  H    0.033863
    64  H    0.031201
    65  H    0.026450
    66  H    0.035623
    67  H    0.034082
    68  H   -0.012534
    69  H    0.111283
    70  H   -0.005574
    71  H    0.038469
    72  H   -0.015289
    73  H    0.017322
    74  H    0.035683
    75  H    0.021450
    76  H    0.022954
    77  H    0.019824
    78  H    0.025876
    79  H    0.020670
    80  H    0.178497
    81  H    0.239840
 Sum of Mulliken charges =  -0.00000

 Dipole moment (field-independent basis, Debye):
    X=             -3.3597    Y=             -0.3991    Z=             -0.3958  Tot=              3.4063
 Quadrupole moment (field-independent basis, Debye-Ang):
   XX=           -249.8406   YY=           -245.7610   ZZ=           -250.2921
   XY=             13.7247   XZ=             10.1492   YZ=            -13.4662

 Normal termination of Gaussian 16 at Mon Jul  1 13:04:23 2019.
