 Gaussian 16, Revision A.03,
 Gaussian 16:  ES64L-G16RevA.03 25-Dec-2016

 --------------------------
 # td=(NStates=1) B3LYP/SVP
 --------------------------

 --
 TD
 --
 Symbolic Z-matrix:
 Charge =  0 Multiplicity = 1

                         Standard orientation:
 ---------------------------------------------------------------------
 Center     Atomic      Atomic             Coordinates (Angstroms)
 Number     Number       Type             X           Y           Z
 ---------------------------------------------------------------------
      1          8           0        4.056806   -4.872086   -1.932836
      2          8           0       -3.030690   -4.597677   -1.302620
      3          8           0       -7.017530   -1.566388   -1.727083
      4          8           0       -3.958480   -3.062515    0.230083
      5          8           0       -7.683855   -0.289687    0.037394
      6          8           0        2.994427    2.170397    0.327901
      7          7           0        0.308906   -0.502971    0.655340
      8          7           0       -1.524907    1.872456    0.367579
      9          7           0        3.235241   -3.096238   -0.684871
     10          7           0        0.826215    2.906484    0.182319
     11          6           0       -0.613676   -2.403419    1.447482
     12          6           0       -0.914396   -1.054330    0.998585
     13          6           0        0.715397   -2.619489    1.372431
     14          6           0        1.333095   -1.426243    0.740136
     15          6           0       -3.717498    1.593396    0.312275
     16          6           0       -2.540899    0.875773    0.614635
     17          6           0       -2.215994   -0.422347    0.881475
     18          6           0       -3.440809    2.893564   -0.097991
     19          6           0       -1.641770   -3.299128    1.941734
     20          6           0        5.359169   -2.885204   -1.427425
     21          6           0        3.502421   -1.916506   -0.179636
     22          6           0       -2.056881    3.090227   -0.014653
     23          6           0        4.987737   -1.684481   -0.483012
     24          6           0       -4.980119    0.856529    0.278614
     25          6           0        2.617040   -1.099636    0.429325
     26          6           0        1.494865   -3.825562    1.968656
     27          6           0        4.143862   -3.759455   -1.410287
     28          6           0       -2.025907   -4.343074    0.915906
     29          6           0       -5.350646   -0.149190   -0.865477
     30          6           0       -4.495193    3.883814   -0.604242
     31          6           0       -1.260492    4.189240   -0.266015
     32          6           0        6.665021   -3.538164   -0.986289
     33          6           0        5.818108   -0.659866   -0.041590
     34          6           0        0.215883    4.078608   -0.156831
     35          6           0        1.158067    5.126525   -0.470448
     36          6           0        2.425251    4.535556   -0.283972
     37          6           0       -3.095460   -3.897108   -0.096448
     38          6           0        5.499997    0.600207    0.761245
     39          6           0       -6.827964   -0.615942   -0.737321
     40          6           0        3.796461    5.134938   -0.369384
     41          6           0        2.189546    3.180626    0.179228
     42          6           0        0.859981    6.496018   -0.831242
     43          6           0        4.567147    5.227447    1.009274
     44          1           0        0.362683    0.500995    0.191524
     45          1           0       -3.100642   -1.110004    0.988666
     46          1           0       -2.535202   -2.785203    2.298931
     47          1           0       -1.205804   -3.939159    2.846123
     48          1           0        5.197163   -2.302674   -2.318152
     49          1           0       -5.224719    0.285190    1.220492
     50          1           0       -5.939044    1.362385    0.245390
     51          1           0        2.909798   -0.071166    0.438016
     52          1           0       -0.428545    1.843234    0.758166
     53          1           0        1.599886   -4.520702    1.027863
     54          1           0        2.394564   -3.582758    2.246370
     55          1           0        0.732132   -4.457746    2.644378
     56          1           0        2.186489   -3.659902   -0.533822
     57          1           0       -1.188886   -4.888445    0.556791
     58          1           0       -2.412444   -5.199520    1.495762
     59          1           0       -4.912757   -1.014044   -0.955024
     60          1           0       -5.194574    0.446121   -1.834850
     61          1           0       -4.472919    4.945316   -0.205568
     62          1           0       -5.550527    3.411316   -0.480967
     63          1           0       -4.297255    4.102194   -1.687185
     64          1           0       -1.748726    5.193542   -0.628190
     65          1           0        7.487357   -3.018848   -1.453629
     66          1           0        6.528108   -4.644181   -1.380820
     67          1           0        6.588321   -3.473474    0.061899
     68          1           0        6.923955   -1.056679   -0.326461
     69          1           0        5.191880    1.610032    0.046736
     70          1           0        6.370957    0.909413    1.262358
     71          1           0        4.816229    0.396665    1.525608
     72          1           0        3.738690    6.262399   -0.689579
     73          1           0        4.345225    4.617835   -1.109632
     74          1           0        0.493073    6.736839   -1.911954
     75          1           0        1.779300    7.231883   -0.855127
     76          1           0        0.365415    7.121572   -0.000685
     77          1           0        3.911773    5.819449    1.658832
     78          1           0        5.727114    5.579348    0.870256
     79          1           0        4.522592    4.214406    1.396071
     80          1           0       -3.857773   -4.390115   -1.787984
     81          1           0       -7.934562   -1.969945   -1.498301
 ---------------------------------------------------------------------

 SCF Done:  E(RB3LYP) =  -1949.10684284     A.U. after   20 cycles

 Excitation energies and oscillator strengths:

 Excited State   1:      Singlet-A      1.6102 eV  770.01 nm  f=0.2767  <S**2>=0.000
     156 ->157         0.71172
     156 <-157        -0.13943
 This state for optimization and/or second-order correction.
 Total Energy, E(TD-HF/TD-DFT) =  -1949.04767021
 Copying the excited state density for this state as the 1-particle RhoCI density.

 The electronic state is 1-A.
 Alpha  occ. eigenvalues --  -19.20694 -19.18328 -19.15683 -19.13971 -19.11267
 Alpha  occ. eigenvalues --  -19.09521 -14.39091 -14.38364 -14.34719 -14.28744
 Alpha  occ. eigenvalues --  -10.35212 -10.32412 -10.29161 -10.25904 -10.24489
 Alpha  occ. eigenvalues --  -10.24057 -10.23555 -10.22967 -10.22857 -10.22384
 Alpha  occ. eigenvalues --  -10.21940 -10.21722 -10.21706 -10.21348 -10.21325
 Alpha  occ. eigenvalues --  -10.20804 -10.20802 -10.20622 -10.20355 -10.20299
 Alpha  occ. eigenvalues --  -10.20276 -10.20091 -10.19957 -10.19952 -10.19801
 Alpha  occ. eigenvalues --  -10.19694 -10.19435 -10.19349 -10.19288 -10.19068
 Alpha  occ. eigenvalues --  -10.18683 -10.18398 -10.17547  -1.09625  -1.08980
 Alpha  occ. eigenvalues --   -1.03901  -1.02046  -1.00750  -0.97939  -0.97730
 Alpha  occ. eigenvalues --   -0.97243  -0.95499  -0.90470  -0.83582  -0.81768
 Alpha  occ. eigenvalues --   -0.81333  -0.80882  -0.79348  -0.79113  -0.78204
 Alpha  occ. eigenvalues --   -0.76686  -0.75977  -0.75031  -0.74011  -0.72363
 Alpha  occ. eigenvalues --   -0.70934  -0.69734  -0.68613  -0.68456  -0.68186
 Alpha  occ. eigenvalues --   -0.66760  -0.65713  -0.64540  -0.63387  -0.61693
 Alpha  occ. eigenvalues --   -0.60956  -0.59650  -0.58279  -0.57584  -0.57383
 Alpha  occ. eigenvalues --   -0.55317  -0.55107  -0.54214  -0.53097  -0.52917
 Alpha  occ. eigenvalues --   -0.52407  -0.51833  -0.51367  -0.50397  -0.49397
 Alpha  occ. eigenvalues --   -0.49275  -0.48654  -0.48445  -0.48344  -0.48133
 Alpha  occ. eigenvalues --   -0.47683  -0.46751  -0.45927  -0.45778  -0.45429
 Alpha  occ. eigenvalues --   -0.44591  -0.44322  -0.43845  -0.43714  -0.43652
 Alpha  occ. eigenvalues --   -0.43323  -0.42989  -0.42841  -0.42523  -0.42117
 Alpha  occ. eigenvalues --   -0.41831  -0.41606  -0.41387  -0.40961  -0.40278
 Alpha  occ. eigenvalues --   -0.40146  -0.40083  -0.39921  -0.39647  -0.39580
 Alpha  occ. eigenvalues --   -0.39140  -0.39047  -0.38725  -0.38401  -0.38141
 Alpha  occ. eigenvalues --   -0.38054  -0.37600  -0.37170  -0.36896  -0.36421
 Alpha  occ. eigenvalues --   -0.36102  -0.35943  -0.35758  -0.35601  -0.35300
 Alpha  occ. eigenvalues --   -0.34302  -0.33925  -0.33847  -0.33323  -0.32631
 Alpha  occ. eigenvalues --   -0.32373  -0.31979  -0.31416  -0.30690  -0.29616
 Alpha  occ. eigenvalues --   -0.29037  -0.26907  -0.26692  -0.26501  -0.25938
 Alpha  occ. eigenvalues --   -0.24995  -0.24359  -0.23748  -0.22883  -0.21425
 Alpha  occ. eigenvalues --   -0.17354
 Alpha virt. eigenvalues --   -0.10954  -0.06908  -0.04095  -0.03464  -0.00056
 Alpha virt. eigenvalues --    0.00149   0.00698   0.01843   0.03039   0.03717
 Alpha virt. eigenvalues --    0.04183   0.04344   0.04574   0.05332   0.05589

 Mulliken charges:
               1
     1  O   -0.231739
     2  O   -0.204589
     3  O   -0.242982
     4  O   -0.246199
     5  O   -0.206622
     6  O   -0.289781
     7  N   -0.117573
     8  N   -0.246702
     9  N   -0.099998
    10  N   -0.307270
    11  C   -0.046008
    12  C    0.056938
    13  C   -0.214027
    14  C    0.113485
    15  C    0.029156
    16  C    0.084053
    17  C   -0.059459
    18  C   -0.108558
    19  C    0.040302
    20  C   -0.029638
    21  C    0.070614
    22  C    0.140871
    23  C   -0.122850
    24  C    0.001272
    25  C   -0.126732
    26  C    0.157389
    27  C    0.080777
    28  C    0.066385
    29  C    0.052647
    30  C    0.055986
    31  C   -0.144460
    32  C    0.079969
    33  C   -0.170619
    34  C    0.065325
    35  C   -0.045473
    36  C   -0.152871
    37  C    0.194256
    38  C    0.095464
    39  C    0.135902
    40  C    0.066224
    41  C    0.177053
    42  C   -0.004641
    43  C   -0.038051
    44  H    0.183251
    45  H    0.029079
    46  H    0.019098
    47  H    0.015852
    48  H    0.042622
    49  H    0.014741
    50  H   -0.001780
    51  H    0.006253
    52  H    0.207400
    53  H    0.009054
    54  H   -0.007151
    55  H    0.034235
    56  H    0.198444
    57  H   -0.007701
    58  H    0.033364
    59  H   -0.028950
    60  H    0.045810
    61  H    0.026453
    62  H    0.038003
    63  H    0.021071
    64  H    0.009971
    65  H    0.034558
    66  H    0.053530
    67  H    0.018213
    68  H    0.013154
    69  H    0.098369
    70  H   -0.012715
    71  H    0.019121
    72  H    0.002320
    73  H    0.006484
    74  H    0.048922
    75  H    0.005241
    76  H    0.039371
    77  H    0.015327
    78  H    0.039763
    79  H    0.027873
    80  H    0.196350
    81  H    0.197775
 Sum of Mulliken charges =  -0.00000

 Dipole moment (field-independent basis, Debye):
    X=             -1.8711    Y=             -0.6893    Z=             -0.2759  Tot=              2.0131
 Quadrupole moment (field-independent basis, Debye-Ang):
   XX=           -253.4655   YY=           -235.2364   ZZ=           -256.9178
   XY=             20.7197   XZ=             14.8281   YZ=            -16.5010

 Normal termination of Gaussian 16 at Fri Jun 28 02:50:14 2019.
