 Gaussian 16, Revision A.03,
 Gaussian 16:  ES64L-G16RevA.03 25-Dec-2016

 --------------------------
 # td=(NStates=1) B3LYP/SVP
 --------------------------

 --
 TD
 --
 Symbolic Z-matrix:
 Charge =  0 Multiplicity = 1

                         Standard orientation:
 ---------------------------------------------------------------------
 Center     Atomic      Atomic             Coordinates (Angstroms)
 Number     Number       Type             X           Y           Z
 ---------------------------------------------------------------------
      1          8           0        4.329784   -4.748473   -1.863818
      2          8           0       -2.981711   -4.956040   -1.086997
      3          8           0       -6.916840   -1.726646   -1.793064
      4          8           0       -3.671285   -3.281543   -0.024077
      5          8           0       -7.756126   -0.625927   -0.057587
      6          8           0        3.018007    2.497063    0.389026
      7          7           0        0.333379   -0.505574    0.643048
      8          7           0       -1.585285    1.844946    0.449230
      9          7           0        3.429612   -3.014500   -0.627142
     10          7           0        0.688510    2.869400    0.144011
     11          6           0       -0.607234   -2.351551    1.442159
     12          6           0       -0.792258   -1.056028    0.946080
     13          6           0        0.808561   -2.622619    1.236758
     14          6           0        1.444900   -1.428461    0.826450
     15          6           0       -3.771819    1.415394    0.365469
     16          6           0       -2.473343    0.817092    0.520724
     17          6           0       -2.139126   -0.472041    0.819614
     18          6           0       -3.664937    2.724825   -0.030627
     19          6           0       -1.553654   -3.452168    1.972411
     20          6           0        5.655946   -2.677716   -1.290068
     21          6           0        3.729768   -1.840107   -0.182436
     22          6           0       -2.227775    2.974569    0.044227
     23          6           0        5.093305   -1.501390   -0.400634
     24          6           0       -5.143062    0.746527    0.423514
     25          6           0        2.772748   -1.059635    0.421690
     26          6           0        1.488008   -3.927492    1.708878
     27          6           0        4.538223   -3.632259   -1.345218
     28          6           0       -1.876093   -4.553682    0.929162
     29          6           0       -5.362779   -0.176569   -0.758155
     30          6           0       -4.666221    3.717273   -0.412523
     31          6           0       -1.449900    4.025691   -0.318136
     32          6           0        6.889550   -3.359655   -0.753839
     33          6           0        5.884344   -0.396734   -0.162227
     34          6           0        0.000868    3.960772   -0.286240
     35          6           0        0.907047    5.150504   -0.479202
     36          6           0        2.173694    4.678650   -0.326437
     37          6           0       -2.855829   -4.125439   -0.095372
     38          6           0        5.443776    0.811363    0.636231
     39          6           0       -6.830232   -0.766721   -0.811401
     40          6           0        3.382031    5.393877   -0.324537
     41          6           0        2.042252    3.247270    0.103842
     42          6           0        0.463818    6.516593   -0.850886
     43          6           0        4.120097    5.803066    0.975108
     44          1           0        0.433555    0.342168   -0.004299
     45          1           0       -3.082511   -1.190377    0.949360
     46          1           0       -2.475628   -2.979083    2.110243
     47          1           0       -1.160744   -3.722959    2.771177
     48          1           0        5.760691   -2.120822   -2.356787
     49          1           0       -4.900177   -0.025015    1.161776
     50          1           0       -6.007272    1.356462    0.694767
     51          1           0        2.780921    0.177733    0.268497
     52          1           0       -0.520592    1.924872    0.617090
     53          1           0        1.513365   -4.616629    0.910757
     54          1           0        2.626134   -3.711518    1.978624
     55          1           0        0.843761   -4.478305    2.542447
     56          1           0        2.458713   -3.440399   -0.755199
     57          1           0       -0.898027   -4.869269    0.440893
     58          1           0       -2.249373   -5.396304    1.349089
     59          1           0       -4.731893   -0.993202   -0.752530
     60          1           0       -5.403057    0.442383   -1.740282
     61          1           0       -4.834506    4.557127    0.194242
     62          1           0       -5.653021    3.217295   -0.329452
     63          1           0       -4.512792    3.872623   -1.589839
     64          1           0       -1.818468    4.988604   -0.889631
     65          1           0        8.085263   -2.849138   -0.733013
     66          1           0        7.082541   -4.156137   -1.409084
     67          1           0        6.959235   -3.832366    0.288277
     68          1           0        6.922218   -0.460073   -0.533777
     69          1           0        4.641959    1.482586    0.036151
     70          1           0        6.254678    1.434440    0.905905
     71          1           0        5.010513    0.599422    1.725071
     72          1           0        3.489992    6.434140   -1.010214
     73          1           0        4.161712    4.763149   -0.892751
     74          1           0       -0.169466    6.689367   -1.633308
     75          1           0        1.324678    7.216975   -0.922057
     76          1           0       -0.148103    7.004251    0.137584
     77          1           0        3.369109    6.280043    1.680427
     78          1           0        5.132405    6.513665    0.878338
     79          1           0        4.587202    4.741837    1.242280
     80          1           0       -3.721026   -4.500327   -1.677718
     81          1           0       -7.938177   -1.823792   -1.691214
 ---------------------------------------------------------------------

 SCF Done:  E(RB3LYP) =  -1949.06419588     A.U. after   16 cycles

 Excitation energies and oscillator strengths:

 Excited State   1:      Singlet-A      1.4804 eV  837.51 nm  f=0.2419  <S**2>=0.000
     156 ->157         0.71123
     156 <-157        -0.12174
 This state for optimization and/or second-order correction.
 Total Energy, E(TD-HF/TD-DFT) =  -1949.00979248
 Copying the excited state density for this state as the 1-particle RhoCI density.

 The electronic state is 1-A.
 Alpha  occ. eigenvalues --  -19.18949 -19.18045 -19.13640 -19.13341 -19.12375
 Alpha  occ. eigenvalues --  -19.10824 -14.37438 -14.37106 -14.34857 -14.30154
 Alpha  occ. eigenvalues --  -10.32312 -10.32243 -10.30568 -10.27440 -10.23602
 Alpha  occ. eigenvalues --  -10.23599 -10.23385 -10.23024 -10.23010 -10.22940
 Alpha  occ. eigenvalues --  -10.22818 -10.21672 -10.21258 -10.21228 -10.21033
 Alpha  occ. eigenvalues --  -10.20910 -10.20551 -10.20531 -10.20528 -10.20441
 Alpha  occ. eigenvalues --  -10.20392 -10.20222 -10.20208 -10.20102 -10.19966
 Alpha  occ. eigenvalues --  -10.19915 -10.19615 -10.19356 -10.19177 -10.18998
 Alpha  occ. eigenvalues --  -10.18951 -10.18604 -10.17681  -1.13351  -1.09790
 Alpha  occ. eigenvalues --   -1.03255  -1.01701  -1.00085  -1.00014  -0.98702
 Alpha  occ. eigenvalues --   -0.97814  -0.96797  -0.91717  -0.82820  -0.82282
 Alpha  occ. eigenvalues --   -0.81942  -0.81081  -0.80513  -0.78690  -0.77703
 Alpha  occ. eigenvalues --   -0.77337  -0.76163  -0.75103  -0.73395  -0.71908
 Alpha  occ. eigenvalues --   -0.71345  -0.69661  -0.69286  -0.68853  -0.68056
 Alpha  occ. eigenvalues --   -0.67210  -0.65225  -0.63939  -0.62254  -0.60821
 Alpha  occ. eigenvalues --   -0.60024  -0.58882  -0.57689  -0.56991  -0.56178
 Alpha  occ. eigenvalues --   -0.55957  -0.55616  -0.54736  -0.53813  -0.53392
 Alpha  occ. eigenvalues --   -0.52638  -0.52277  -0.51320  -0.50858  -0.50426
 Alpha  occ. eigenvalues --   -0.49663  -0.49401  -0.49035  -0.48227  -0.48045
 Alpha  occ. eigenvalues --   -0.47428  -0.46648  -0.46311  -0.45811  -0.45340
 Alpha  occ. eigenvalues --   -0.45010  -0.44333  -0.44178  -0.43812  -0.43755
 Alpha  occ. eigenvalues --   -0.43482  -0.43238  -0.43094  -0.42862  -0.42534
 Alpha  occ. eigenvalues --   -0.41941  -0.41807  -0.41688  -0.40791  -0.40738
 Alpha  occ. eigenvalues --   -0.40504  -0.40364  -0.40075  -0.39906  -0.39477
 Alpha  occ. eigenvalues --   -0.39372  -0.39085  -0.38858  -0.38609  -0.38352
 Alpha  occ. eigenvalues --   -0.38244  -0.37685  -0.37425  -0.37036  -0.36969
 Alpha  occ. eigenvalues --   -0.36469  -0.36249  -0.35053  -0.34433  -0.34011
 Alpha  occ. eigenvalues --   -0.33649  -0.33544  -0.33390  -0.33295  -0.32777
 Alpha  occ. eigenvalues --   -0.32424  -0.32168  -0.30275  -0.29630  -0.29376
 Alpha  occ. eigenvalues --   -0.28705  -0.28506  -0.27079  -0.26500  -0.25481
 Alpha  occ. eigenvalues --   -0.25196  -0.24794  -0.24513  -0.23590  -0.21122
 Alpha  occ. eigenvalues --   -0.16758
 Alpha virt. eigenvalues --   -0.10629  -0.06080  -0.04356  -0.02721  -0.00096
 Alpha virt. eigenvalues --    0.00271   0.02540   0.02934   0.03348   0.03443
 Alpha virt. eigenvalues --    0.04229   0.04509   0.05076   0.05441   0.05697

 Mulliken charges:
               1
     1  O   -0.221800
     2  O   -0.180819
     3  O   -0.229078
     4  O   -0.215822
     5  O   -0.222651
     6  O   -0.255591
     7  N   -0.065004
     8  N   -0.110915
     9  N   -0.097646
    10  N   -0.314896
    11  C   -0.191460
    12  C    0.034949
    13  C   -0.190367
    14  C    0.060662
    15  C   -0.094430
    16  C    0.097719
    17  C   -0.146203
    18  C   -0.126276
    19  C    0.299430
    20  C   -0.063680
    21  C    0.087313
    22  C    0.137349
    23  C   -0.022905
    24  C    0.121791
    25  C   -0.180551
    26  C    0.046162
    27  C    0.139857
    28  C    0.042843
    29  C    0.013596
    30  C    0.118277
    31  C   -0.160390
    32  C   -0.009669
    33  C   -0.117551
    34  C    0.035249
    35  C   -0.078275
    36  C   -0.056936
    37  C    0.087433
    38  C    0.002231
    39  C    0.126321
    40  C   -0.069216
    41  C    0.190206
    42  C    0.079326
    43  C   -0.074406
    44  H    0.164723
    45  H    0.056569
    46  H   -0.022328
    47  H   -0.076452
    48  H    0.090377
    49  H   -0.001853
    50  H    0.030758
    51  H    0.076007
    52  H    0.166472
    53  H    0.005447
    54  H    0.054594
    55  H    0.033321
    56  H    0.164363
    57  H    0.033903
    58  H    0.013858
    59  H    0.033640
    60  H    0.038586
    61  H    0.025161
    62  H   -0.010030
    63  H    0.045934
    64  H    0.007455
    65  H    0.031345
    66  H    0.017373
    67  H    0.039403
    68  H    0.001302
    69  H    0.107694
    70  H   -0.015876
    71  H    0.045002
    72  H    0.015179
    73  H    0.017822
    74  H    0.011147
    75  H    0.016478
    76  H    0.032224
    77  H    0.034933
    78  H    0.033500
    79  H    0.052552
    80  H    0.217015
    81  H    0.188226
 Sum of Mulliken charges =  -0.00000

 Dipole moment (field-independent basis, Debye):
    X=             -1.8102    Y=              1.0653    Z=             -1.6582  Tot=              2.6761
 Quadrupole moment (field-independent basis, Debye-Ang):
   XX=           -248.8577   YY=           -241.2861   ZZ=           -256.4684
   XY=              4.1731   XZ=              9.8192   YZ=            -14.9277

 Normal termination of Gaussian 16 at Thu Jun 27 01:59:14 2019.
