 Gaussian 16, Revision A.03,
 Gaussian 16:  ES64L-G16RevA.03 25-Dec-2016

 --------------------------
 # td=(NStates=1) B3LYP/SVP
 --------------------------

 --
 TD
 --
 Symbolic Z-matrix:
 Charge =  0 Multiplicity = 1

                         Standard orientation:
 ---------------------------------------------------------------------
 Center     Atomic      Atomic             Coordinates (Angstroms)
 Number     Number       Type             X           Y           Z
 ---------------------------------------------------------------------
      1          8           0       -4.406771   -4.864209    1.757091
      2          8           0        2.933960   -4.800550    1.195676
      3          8           0        6.914684   -1.647957    1.934894
      4          8           0        3.705787   -3.192927   -0.180351
      5          8           0        7.566611   -0.580355   -0.012496
      6          8           0       -3.008784    2.543085   -0.482236
      7          7           0       -0.388921   -0.466143   -0.671980
      8          7           0        1.618141    1.852085   -0.462185
      9          7           0       -3.316826   -3.105723    0.636354
     10          7           0       -0.737826    2.978008   -0.281146
     11          6           0        0.605049   -2.385347   -1.363424
     12          6           0        0.896176   -1.128085   -1.028072
     13          6           0       -0.848158   -2.579403   -1.148115
     14          6           0       -1.391788   -1.380141   -0.650316
     15          6           0        3.722236    1.440068   -0.360472
     16          6           0        2.578526    0.840728   -0.659612
     17          6           0        2.194041   -0.477512   -0.860524
     18          6           0        3.562233    2.774117    0.030526
     19          6           0        1.572949   -3.451059   -1.909612
     20          6           0       -5.518143   -2.725239    1.283082
     21          6           0       -3.604734   -1.830068    0.174984
     22          6           0        2.162730    3.014586   -0.061245
     23          6           0       -5.051310   -1.550105    0.389934
     24          6           0        5.131392    0.731959   -0.385576
     25          6           0       -2.701979   -0.995207   -0.349119
     26          6           0       -1.493830   -3.749703   -1.692507
     27          6           0       -4.377276   -3.781108    1.264826
     28          6           0        1.954971   -4.514544   -0.928565
     29          6           0        5.375624   -0.178023    0.920688
     30          6           0        4.715126    3.719574    0.332948
     31          6           0        1.360790    4.068861    0.179159
     32          6           0       -6.892639   -3.397735    0.687473
     33          6           0       -5.846280   -0.475135    0.174291
     34          6           0       -0.100022    4.009609    0.244122
     35          6           0       -0.983693    5.177231    0.597051
     36          6           0       -2.232049    4.717670    0.272056
     37          6           0        2.961742   -4.114110    0.062635
     38          6           0       -5.429817    0.757513   -0.475614
     39          6           0        6.782310   -0.798592    0.933930
     40          6           0       -3.550302    5.294141    0.452149
     41          6           0       -2.060366    3.307876   -0.178668
     42          6           0       -0.548019    6.560872    0.913710
     43          6           0       -4.320731    5.438270   -0.951612
     44          1           0       -0.460901    0.666343   -0.534762
     45          1           0        2.925459   -1.323194   -1.168616
     46          1           0        2.537730   -2.898549   -2.087388
     47          1           0        1.214122   -3.879858   -2.870694
     48          1           0       -5.854923   -2.312066    2.269598
     49          1           0        5.262960    0.054301   -1.329887
     50          1           0        5.881697    1.484528   -0.495989
     51          1           0       -2.710319    0.061927   -0.152320
     52          1           0        0.573915    1.916129   -0.617542
     53          1           0       -1.271251   -4.674753   -0.992152
     54          1           0       -2.546364   -3.493280   -1.602230
     55          1           0       -1.085093   -4.105401   -2.546030
     56          1           0       -2.374426   -3.519494    0.566052
     57          1           0        1.126251   -5.163116   -0.530743
     58          1           0        2.537882   -5.338835   -1.541448
     59          1           0        4.748937   -1.087082    0.853145
     60          1           0        5.332919    0.721143    1.702793
     61          1           0        4.845663    4.648181   -0.125505
     62          1           0        5.751020    3.202344    0.234391
     63          1           0        4.653565    4.047270    1.477101
     64          1           0        1.813718    5.054358    0.385427
     65          1           0       -7.841434   -2.714286    0.945974
     66          1           0       -7.058438   -4.385680    1.365466
     67          1           0       -6.628766   -3.717976   -0.369491
     68          1           0       -6.815804   -0.411024    0.624122
     69          1           0       -4.595194    1.284128    0.170863
     70          1           0       -6.153439    1.502787   -0.795645
     71          1           0       -4.849965    0.447396   -1.413916
     72          1           0       -3.225872    6.355641    0.898446
     73          1           0       -4.119805    4.711880    1.328098
     74          1           0        0.066574    6.562546    1.945617
     75          1           0       -1.505173    7.242020    1.178962
     76          1           0        0.048178    6.874885    0.060876
     77          1           0       -3.908745    6.078257   -1.863302
     78          1           0       -5.320631    5.859558   -0.916025
     79          1           0       -4.374179    4.470553   -1.358849
     80          1           0        3.848546   -4.776002    1.613599
     81          1           0        7.917156   -1.961604    1.981009
 ---------------------------------------------------------------------

 SCF Done:  E(RB3LYP) =  -1949.12932592     A.U. after   17 cycles

 Excitation energies and oscillator strengths:

 Excited State   1:      Singlet-A      1.7110 eV  724.64 nm  f=0.2785  <S**2>=0.000
     156 ->157         0.70688
     156 <-157        -0.10943
 This state for optimization and/or second-order correction.
 Total Energy, E(TD-HF/TD-DFT) =  -1949.06644878
 Copying the excited state density for this state as the 1-particle RhoCI density.

 The electronic state is 1-A.
 Alpha  occ. eigenvalues --  -19.20582 -19.20366 -19.14178 -19.12089 -19.12049
 Alpha  occ. eigenvalues --  -19.09935 -14.37601 -14.36654 -14.34312 -14.29615
 Alpha  occ. eigenvalues --  -10.33593 -10.32060 -10.29825 -10.26126 -10.24625
 Alpha  occ. eigenvalues --  -10.23476 -10.22853 -10.22770 -10.22691 -10.22377
 Alpha  occ. eigenvalues --  -10.22327 -10.22226 -10.21442 -10.21397 -10.21126
 Alpha  occ. eigenvalues --  -10.20953 -10.20890 -10.20560 -10.20424 -10.20135
 Alpha  occ. eigenvalues --  -10.19911 -10.19797 -10.19628 -10.19495 -10.19415
 Alpha  occ. eigenvalues --  -10.19388 -10.19048 -10.18599 -10.18577 -10.18319
 Alpha  occ. eigenvalues --  -10.18022 -10.17610 -10.17295  -1.11939  -1.09652
 Alpha  occ. eigenvalues --   -1.04917  -1.02884  -1.00183  -0.99191  -0.98140
 Alpha  occ. eigenvalues --   -0.96187  -0.95114  -0.92719  -0.82641  -0.81643
 Alpha  occ. eigenvalues --   -0.80902  -0.80489  -0.80033  -0.78853  -0.78293
 Alpha  occ. eigenvalues --   -0.75942  -0.75566  -0.74586  -0.74202  -0.72363
 Alpha  occ. eigenvalues --   -0.70638  -0.68961  -0.68580  -0.68296  -0.67146
 Alpha  occ. eigenvalues --   -0.66538  -0.64918  -0.63828  -0.62814  -0.62128
 Alpha  occ. eigenvalues --   -0.61143  -0.59343  -0.59142  -0.57143  -0.56269
 Alpha  occ. eigenvalues --   -0.55359  -0.54655  -0.54362  -0.53770  -0.53063
 Alpha  occ. eigenvalues --   -0.52411  -0.52220  -0.51110  -0.50776  -0.49438
 Alpha  occ. eigenvalues --   -0.48873  -0.48578  -0.48569  -0.47786  -0.47482
 Alpha  occ. eigenvalues --   -0.47028  -0.46419  -0.45955  -0.45640  -0.45296
 Alpha  occ. eigenvalues --   -0.44888  -0.44413  -0.44103  -0.43813  -0.43589
 Alpha  occ. eigenvalues --   -0.43223  -0.43118  -0.42778  -0.42382  -0.42262
 Alpha  occ. eigenvalues --   -0.41802  -0.41654  -0.41146  -0.40520  -0.40207
 Alpha  occ. eigenvalues --   -0.40104  -0.39933  -0.39673  -0.39247  -0.39047
 Alpha  occ. eigenvalues --   -0.38929  -0.38570  -0.38347  -0.38191  -0.37784
 Alpha  occ. eigenvalues --   -0.37376  -0.37127  -0.36928  -0.36678  -0.36564
 Alpha  occ. eigenvalues --   -0.36130  -0.35595  -0.34772  -0.34517  -0.34174
 Alpha  occ. eigenvalues --   -0.34001  -0.33944  -0.33481  -0.33427  -0.32866
 Alpha  occ. eigenvalues --   -0.32197  -0.32065  -0.31682  -0.30415  -0.29948
 Alpha  occ. eigenvalues --   -0.28739  -0.27180  -0.26845  -0.26690  -0.25061
 Alpha  occ. eigenvalues --   -0.24470  -0.24153  -0.23775  -0.23143  -0.21284
 Alpha  occ. eigenvalues --   -0.17617
 Alpha virt. eigenvalues --   -0.10546  -0.06143  -0.04540  -0.01840  -0.00570
 Alpha virt. eigenvalues --    0.00191   0.01735   0.02380   0.03229   0.03663
 Alpha virt. eigenvalues --    0.04120   0.04422   0.04888   0.05569   0.06208

 Mulliken charges:
               1
     1  O   -0.169424
     2  O   -0.171108
     3  O   -0.193501
     4  O   -0.228420
     5  O   -0.265761
     6  O   -0.257223
     7  N   -0.215583
     8  N   -0.137857
     9  N   -0.152610
    10  N   -0.269505
    11  C   -0.073161
    12  C    0.022757
    13  C   -0.242554
    14  C    0.094362
    15  C   -0.075735
    16  C    0.147143
    17  C   -0.058926
    18  C   -0.077853
    19  C    0.105298
    20  C   -0.162939
    21  C    0.138409
    22  C    0.116982
    23  C    0.049563
    24  C    0.063857
    25  C   -0.099655
    26  C    0.151039
    27  C    0.187934
    28  C   -0.008766
    29  C   -0.028436
    30  C    0.050262
    31  C   -0.147664
    32  C   -0.048972
    33  C   -0.133261
    34  C    0.056367
    35  C   -0.101124
    36  C   -0.148878
    37  C    0.118300
    38  C    0.023273
    39  C    0.141072
    40  C    0.016113
    41  C    0.160522
    42  C    0.037597
    43  C   -0.015560
    44  H    0.193947
    45  H    0.043741
    46  H    0.017703
    47  H    0.017313
    48  H    0.048736
    49  H    0.024932
    50  H   -0.000051
    51  H    0.007736
    52  H    0.149074
    53  H    0.004340
    54  H    0.029740
    55  H   -0.020994
    56  H    0.141342
    57  H    0.031480
    58  H    0.052301
    59  H    0.062011
    60  H    0.062140
    61  H    0.011622
    62  H    0.023434
    63  H    0.020864
    64  H   -0.033409
    65  H    0.046485
    66  H    0.046532
    67  H    0.038215
    68  H   -0.017276
    69  H    0.088436
    70  H    0.008467
    71  H    0.037404
    72  H    0.001935
    73  H    0.053679
    74  H    0.040917
    75  H    0.043205
    76  H    0.050228
    77  H    0.017232
    78  H    0.004183
    79  H    0.026020
    80  H    0.209874
    81  H    0.220088
 Sum of Mulliken charges =  -0.00000

 Dipole moment (field-independent basis, Debye):
    X=              3.4859    Y=             -0.6886    Z=              1.7021  Tot=              3.9400
 Quadrupole moment (field-independent basis, Debye-Ang):
   XX=           -247.3130   YY=           -233.1299   ZZ=           -253.9698
   XY=            -25.2332   XZ=             17.0981   YZ=             12.0731

 Normal termination of Gaussian 16 at Fri Jun 28 20:55:57 2019.
