 Gaussian 16, Revision A.03,
 Gaussian 16:  ES64L-G16RevA.03 25-Dec-2016

 --------------------------
 # td=(NStates=1) B3LYP/SVP
 --------------------------

 --
 TD
 --
 Symbolic Z-matrix:
 Charge =  0 Multiplicity = 1

                         Standard orientation:
 ---------------------------------------------------------------------
 Center     Atomic      Atomic             Coordinates (Angstroms)
 Number     Number       Type             X           Y           Z
 ---------------------------------------------------------------------
      1          8           0        4.288306   -4.847505   -1.840623
      2          8           0       -2.711718   -4.889351   -1.175230
      3          8           0       -7.128287   -1.452555   -2.004034
      4          8           0       -3.816966   -3.268028   -0.012747
      5          8           0       -7.613559   -0.673090    0.047817
      6          8           0        3.043564    2.445885    0.389393
      7          7           0        0.242110   -0.605650    0.524598
      8          7           0       -1.535490    1.789232    0.404652
      9          7           0        3.350735   -3.190237   -0.601449
     10          7           0        0.700895    2.942467    0.075772
     11          6           0       -0.658855   -2.318689    1.491249
     12          6           0       -0.878234   -1.096934    0.991968
     13          6           0        0.751486   -2.585069    1.315314
     14          6           0        1.294370   -1.459118    0.719958
     15          6           0       -3.739037    1.527377    0.266122
     16          6           0       -2.480072    0.765303    0.526850
     17          6           0       -2.211208   -0.534985    0.817206
     18          6           0       -3.557671    2.837684   -0.041725
     19          6           0       -1.695739   -3.373692    2.047857
     20          6           0        5.559596   -2.678758   -1.369565
     21          6           0        3.630987   -1.913010   -0.183817
     22          6           0       -2.100152    3.038611   -0.015540
     23          6           0        4.975203   -1.683153   -0.549634
     24          6           0       -5.012956    0.847304    0.367539
     25          6           0        2.649871   -1.096185    0.328692
     26          6           0        1.481904   -3.815052    1.892060
     27          6           0        4.368500   -3.785225   -1.325186
     28          6           0       -2.103076   -4.496986    1.119822
     29          6           0       -5.369001   -0.047576   -0.860330
     30          6           0       -4.532135    3.902688   -0.455064
     31          6           0       -1.285104    4.196620   -0.289902
     32          6           0        6.823479   -3.362423   -0.825340
     33          6           0        5.718423   -0.520576   -0.213016
     34          6           0        0.126683    4.120807   -0.220779
     35          6           0        1.112751    5.171995   -0.404257
     36          6           0        2.321694    4.691828   -0.217314
     37          6           0       -3.038421   -4.171680    0.025014
     38          6           0        5.398249    0.594424    0.682277
     39          6           0       -6.753457   -0.725452   -0.855643
     40          6           0        3.654454    5.297987   -0.231556
     41          6           0        2.072159    3.185689    0.056560
     42          6           0        0.625548    6.587591   -0.865578
     43          6           0        4.233424    5.665716    1.125118
     44          1           0        0.521677    0.167043    0.038543
     45          1           0       -2.980121   -1.304223    0.933794
     46          1           0       -2.476025   -2.606291    2.446473
     47          1           0       -1.086190   -3.835044    2.906254
     48          1           0        5.729623   -2.261586   -2.311424
     49          1           0       -4.986218    0.152007    1.408117
     50          1           0       -5.693860    1.564819    0.565557
     51          1           0        3.065648    0.010242    0.455893
     52          1           0       -0.459309    1.863825    0.687542
     53          1           0        1.182828   -4.822586    1.231040
     54          1           0        2.598041   -3.722693    1.732893
     55          1           0        1.085740   -4.080121    2.943298
     56          1           0        2.484307   -3.684822   -0.684391
     57          1           0       -1.210568   -4.961791    0.723046
     58          1           0       -2.606586   -5.385812    1.646756
     59          1           0       -4.780878   -1.126600   -0.999048
     60          1           0       -5.266511    0.539156   -1.986599
     61          1           0       -4.102384    5.000301   -0.106297
     62          1           0       -5.626725    3.570892    0.410851
     63          1           0       -4.706953    3.778625   -1.653051
     64          1           0       -1.988604    4.870376   -0.839787
     65          1           0        7.792286   -2.736427   -0.998159
     66          1           0        7.030746   -4.210336   -1.487104
     67          1           0        6.712545   -3.643125    0.129643
     68          1           0        6.721590   -0.474450   -0.987216
     69          1           0        4.701236    1.456150    0.331972
     70          1           0        6.555629    1.001990    0.786867
     71          1           0        4.632987    0.450699    1.443535
     72          1           0        3.491248    6.217295   -0.976072
     73          1           0        4.211695    4.696874   -0.765775
     74          1           0        0.114147    6.565313   -1.878212
     75          1           0        1.557434    7.365336   -1.041833
     76          1           0        0.005452    7.111320    0.055302
     77          1           0        3.502989    6.570873    1.629315
     78          1           0        5.225613    5.859261    0.985742
     79          1           0        4.277789    4.685167    1.680396
     80          1           0       -3.163731   -4.575390   -2.050820
     81          1           0       -8.167032   -1.742167   -1.564800
 ---------------------------------------------------------------------

 SCF Done:  E(RB3LYP) =  -1948.98289975     A.U. after   16 cycles

 Excitation energies and oscillator strengths:

 Excited State   1:      Singlet-A      1.6078 eV  771.13 nm  f=0.1983  <S**2>=0.000
     156 ->157         0.70536
 This state for optimization and/or second-order correction.
 Total Energy, E(TD-HF/TD-DFT) =  -1948.92381334
 Copying the excited state density for this state as the 1-particle RhoCI density.

 The electronic state is 1-A.
 Alpha  occ. eigenvalues --  -19.17972 -19.17657 -19.15064 -19.12806 -19.11684
 Alpha  occ. eigenvalues --  -19.11465 -14.36869 -14.36255 -14.35847 -14.30293
 Alpha  occ. eigenvalues --  -10.33795 -10.32530 -10.28840 -10.27961 -10.25691
 Alpha  occ. eigenvalues --  -10.25456 -10.24796 -10.24108 -10.23913 -10.23692
 Alpha  occ. eigenvalues --  -10.22733 -10.22712 -10.22540 -10.22411 -10.22385
 Alpha  occ. eigenvalues --  -10.21794 -10.21698 -10.21491 -10.21356 -10.21319
 Alpha  occ. eigenvalues --  -10.21152 -10.20375 -10.19907 -10.19490 -10.19320
 Alpha  occ. eigenvalues --  -10.19138 -10.18990 -10.18958 -10.18920 -10.18889
 Alpha  occ. eigenvalues --  -10.18631 -10.18558 -10.18181  -1.08983  -1.06300
 Alpha  occ. eigenvalues --   -1.05235  -1.00788  -1.00507  -0.99851  -0.96596
 Alpha  occ. eigenvalues --   -0.96271  -0.95941  -0.93078  -0.82709  -0.82503
 Alpha  occ. eigenvalues --   -0.82309  -0.81407  -0.80695  -0.78774  -0.78571
 Alpha  occ. eigenvalues --   -0.76553  -0.76244  -0.75405  -0.74091  -0.72480
 Alpha  occ. eigenvalues --   -0.70762  -0.69703  -0.68921  -0.68350  -0.67830
 Alpha  occ. eigenvalues --   -0.66908  -0.65187  -0.63326  -0.63202  -0.62239
 Alpha  occ. eigenvalues --   -0.60468  -0.59722  -0.58340  -0.56297  -0.56015
 Alpha  occ. eigenvalues --   -0.55929  -0.55427  -0.53775  -0.53297  -0.52995
 Alpha  occ. eigenvalues --   -0.52396  -0.52309  -0.51911  -0.49891  -0.49083
 Alpha  occ. eigenvalues --   -0.48860  -0.48466  -0.48107  -0.47613  -0.47410
 Alpha  occ. eigenvalues --   -0.46899  -0.46239  -0.45746  -0.45670  -0.45274
 Alpha  occ. eigenvalues --   -0.45051  -0.44636  -0.44356  -0.44040  -0.43530
 Alpha  occ. eigenvalues --   -0.43450  -0.43190  -0.42736  -0.42469  -0.42195
 Alpha  occ. eigenvalues --   -0.42053  -0.41419  -0.41288  -0.40850  -0.40766
 Alpha  occ. eigenvalues --   -0.40135  -0.40020  -0.39823  -0.39512  -0.39134
 Alpha  occ. eigenvalues --   -0.38972  -0.38726  -0.38574  -0.38271  -0.38070
 Alpha  occ. eigenvalues --   -0.37857  -0.37602  -0.37128  -0.36797  -0.36632
 Alpha  occ. eigenvalues --   -0.36256  -0.35957  -0.35491  -0.35368  -0.34683
 Alpha  occ. eigenvalues --   -0.34273  -0.34027  -0.33902  -0.33500  -0.33059
 Alpha  occ. eigenvalues --   -0.32889  -0.32758  -0.30894  -0.30237  -0.29843
 Alpha  occ. eigenvalues --   -0.28755  -0.27673  -0.26484  -0.25865  -0.25774
 Alpha  occ. eigenvalues --   -0.25177  -0.24889  -0.24220  -0.23754  -0.21681
 Alpha  occ. eigenvalues --   -0.18178
 Alpha virt. eigenvalues --   -0.11220  -0.06072  -0.04706  -0.02454  -0.00943
 Alpha virt. eigenvalues --   -0.00012   0.00377   0.01460   0.02393   0.02872
 Alpha virt. eigenvalues --    0.03337   0.03403   0.03652   0.04571   0.04817

 Mulliken charges:
               1
     1  O   -0.171111
     2  O   -0.300399
     3  O   -0.313087
     4  O   -0.186656
     5  O   -0.280112
     6  O   -0.267171
     7  N    0.052052
     8  N   -0.207281
     9  N   -0.109410
    10  N   -0.304598
    11  C   -0.164164
    12  C    0.044650
    13  C   -0.142881
    14  C    0.018781
    15  C   -0.096132
    16  C    0.176184
    17  C   -0.106208
    18  C   -0.060157
    19  C    0.072748
    20  C   -0.068320
    21  C    0.109069
    22  C    0.023332
    23  C   -0.059817
    24  C    0.147886
    25  C   -0.159272
    26  C   -0.006157
    27  C    0.091343
    28  C    0.075288
    29  C   -0.108205
    30  C   -0.086930
    31  C   -0.092813
    32  C    0.101645
    33  C   -0.129099
    34  C    0.124206
    35  C   -0.049402
    36  C   -0.197589
    37  C    0.151433
    38  C   -0.004164
    39  C    0.197975
    40  C    0.111266
    41  C    0.193641
    42  C   -0.014603
    43  C    0.038826
    44  H    0.092965
    45  H    0.013092
    46  H    0.042122
    47  H    0.017140
    48  H    0.016465
    49  H    0.048160
    50  H   -0.044161
    51  H    0.029214
    52  H    0.189607
    53  H    0.025677
    54  H    0.046846
    55  H    0.044886
    56  H    0.121823
    57  H    0.027168
    58  H    0.055335
    59  H    0.101303
    60  H    0.075294
    61  H    0.073500
    62  H    0.065124
    63  H    0.085186
    64  H   -0.000746
    65  H    0.015790
    66  H    0.018777
    67  H   -0.012831
    68  H    0.022638
    69  H    0.093833
    70  H    0.044221
    71  H    0.026304
    72  H   -0.002474
    73  H   -0.042377
    74  H    0.049408
    75  H    0.030947
    76  H    0.053172
    77  H    0.045773
    78  H   -0.007520
    79  H    0.027668
    80  H    0.218819
    81  H    0.247263
 Sum of Mulliken charges =  -0.00000

 Dipole moment (field-independent basis, Debye):
    X=             -1.5813    Y=              2.0889    Z=             -0.9247  Tot=              2.7783
 Quadrupole moment (field-independent basis, Debye-Ang):
   XX=           -264.5849   YY=           -244.1868   ZZ=           -255.1876
   XY=             11.0448   XZ=              7.0392   YZ=            -15.1396

 Normal termination of Gaussian 16 at Mon Jul  1 18:19:25 2019.
