 Gaussian 16, Revision A.03,
 Gaussian 16:  ES64L-G16RevA.03 25-Dec-2016

 --------------------------
 # td=(NStates=1) B3LYP/SVP
 --------------------------

 --
 TD
 --
 Symbolic Z-matrix:
 Charge =  0 Multiplicity = 1

                         Standard orientation:
 ---------------------------------------------------------------------
 Center     Atomic      Atomic             Coordinates (Angstroms)
 Number     Number       Type             X           Y           Z
 ---------------------------------------------------------------------
      1          8           0        4.508558   -4.919135   -1.571398
      2          8           0       -2.666319   -5.018181   -1.095026
      3          8           0       -6.953444   -1.616897   -2.051008
      4          8           0       -3.573849   -3.277899    0.033835
      5          8           0       -7.568939   -0.594431   -0.033708
      6          8           0        2.978924    2.549900    0.446002
      7          7           0        0.229378   -0.542556    0.521313
      8          7           0       -1.649318    1.816249    0.402520
      9          7           0        3.347209   -3.027264   -0.617596
     10          7           0        0.707957    2.882799    0.115994
     11          6           0       -0.597907   -2.406617    1.403812
     12          6           0       -0.946271   -1.061490    1.051560
     13          6           0        0.848360   -2.534058    1.216403
     14          6           0        1.319429   -1.320806    0.692939
     15          6           0       -3.856053    1.442997    0.481011
     16          6           0       -2.636103    0.842341    0.609300
     17          6           0       -2.313147   -0.492601    0.957998
     18          6           0       -3.736597    2.742329    0.005121
     19          6           0       -1.383669   -3.442227    2.032486
     20          6           0        5.539597   -2.616019   -1.447090
     21          6           0        3.622241   -1.681577   -0.273421
     22          6           0       -2.260746    3.042631   -0.012218
     23          6           0        5.077816   -1.363481   -0.568288
     24          6           0       -5.160571    0.580191    0.423375
     25          6           0        2.611177   -0.839297    0.256673
     26          6           0        1.727784   -3.647784    1.766397
     27          6           0        4.393333   -3.746952   -1.296621
     28          6           0       -1.888377   -4.575145    1.100704
     29          6           0       -5.320204   -0.333987   -0.885244
     30          6           0       -4.673235    3.709492   -0.428247
     31          6           0       -1.403850    4.018868   -0.306837
     32          6           0        6.883428   -3.130733   -0.983071
     33          6           0        5.833169   -0.389939   -0.232607
     34          6           0       -0.015080    4.013457   -0.225889
     35          6           0        0.923521    5.141717   -0.615885
     36          6           0        2.182195    4.669966   -0.215294
     37          6           0       -2.802405   -4.224287   -0.040479
     38          6           0        5.365684    0.698177    0.744710
     39          6           0       -6.741523   -0.874177   -0.933564
     40          6           0        3.552761    5.336903   -0.319564
     41          6           0        1.978239    3.302611    0.129736
     42          6           0        0.545627    6.563527   -0.908207
     43          6           0        4.074305    5.482608    1.066625
     44          1           0        0.498567    0.280321    0.183414
     45          1           0       -3.127265   -1.272220    0.881518
     46          1           0       -2.290206   -2.879055    2.425147
     47          1           0       -0.964413   -3.981406    2.919213
     48          1           0        5.540065   -2.308333   -2.466481
     49          1           0       -5.152370   -0.185101    1.223495
     50          1           0       -6.009829    1.148404    0.589912
     51          1           0        2.730410    0.229630    0.242190
     52          1           0       -0.658051    1.726077    0.568091
     53          1           0        2.016673   -4.560768    1.133760
     54          1           0        2.569286   -3.143172    2.282386
     55          1           0        1.269347   -4.033214    2.734782
     56          1           0        2.434982   -3.499599   -0.752178
     57          1           0       -0.943749   -5.027343    0.983807
     58          1           0       -2.244027   -5.410113    1.847872
     59          1           0       -4.853574   -1.220800   -0.897972
     60          1           0       -5.240672    0.336237   -1.838103
     61          1           0       -4.568027    4.641543    0.279583
     62          1           0       -5.640807    3.280683   -0.267165
     63          1           0       -4.601175    3.875256   -1.545378
     64          1           0       -2.013313    4.926577   -0.472324
     65          1           0        7.933553   -2.480210   -1.321934
     66          1           0        6.893256   -3.988809   -1.649166
     67          1           0        6.770583   -3.625743    0.035167
     68          1           0        6.801461   -0.043771   -0.781512
     69          1           0        4.731062    1.449418    0.450142
     70          1           0        6.129048    1.388405    1.240094
     71          1           0        4.943605   -0.111922    1.626678
     72          1           0        3.362808    6.436390   -0.703228
     73          1           0        4.269604    4.941160   -0.913843
     74          1           0       -0.085147    6.591377   -1.851884
     75          1           0        1.416049    7.177759   -0.996098
     76          1           0       -0.161008    6.894069   -0.080743
     77          1           0        3.373753    5.970549    1.804745
     78          1           0        4.959639    6.360681    1.129192
     79          1           0        4.428039    4.538527    1.491746
     80          1           0       -3.273873   -4.674039   -1.811927
     81          1           0       -7.947892   -2.078715   -1.986126
 ---------------------------------------------------------------------

 SCF Done:  E(RB3LYP) =  -1949.09524899     A.U. after   20 cycles

 Excitation energies and oscillator strengths:

 Excited State   1:      Singlet-A      1.7134 eV  723.63 nm  f=0.3104  <S**2>=0.000
     156 ->157         0.70704
     156 <-157        -0.12566
 This state for optimization and/or second-order correction.
 Total Energy, E(TD-HF/TD-DFT) =  -1949.03228441
 Copying the excited state density for this state as the 1-particle RhoCI density.

 The electronic state is 1-A.
 Alpha  occ. eigenvalues --  -19.21174 -19.20339 -19.14853 -19.13286 -19.12768
 Alpha  occ. eigenvalues --  -19.08851 -14.37712 -14.36782 -14.35122 -14.28986
 Alpha  occ. eigenvalues --  -10.34605 -10.32561 -10.30582 -10.25642 -10.25040
 Alpha  occ. eigenvalues --  -10.24111 -10.24103 -10.23700 -10.23003 -10.22691
 Alpha  occ. eigenvalues --  -10.22343 -10.21662 -10.20968 -10.20848 -10.20684
 Alpha  occ. eigenvalues --  -10.20536 -10.20535 -10.20376 -10.20257 -10.20174
 Alpha  occ. eigenvalues --  -10.20039 -10.20020 -10.19849 -10.19515 -10.19508
 Alpha  occ. eigenvalues --  -10.19375 -10.19206 -10.19031 -10.18960 -10.18759
 Alpha  occ. eigenvalues --  -10.18704 -10.18117 -10.17253  -1.12115  -1.07906
 Alpha  occ. eigenvalues --   -1.04382  -1.02616  -0.99126  -0.99104  -0.98271
 Alpha  occ. eigenvalues --   -0.96284  -0.94115  -0.90828  -0.82726  -0.82132
 Alpha  occ. eigenvalues --   -0.81273  -0.80936  -0.79546  -0.78693  -0.77736
 Alpha  occ. eigenvalues --   -0.77679  -0.75951  -0.75279  -0.73970  -0.72945
 Alpha  occ. eigenvalues --   -0.71314  -0.69544  -0.69004  -0.68370  -0.67709
 Alpha  occ. eigenvalues --   -0.66702  -0.65442  -0.63268  -0.62972  -0.62021
 Alpha  occ. eigenvalues --   -0.60208  -0.58901  -0.58756  -0.56425  -0.56238
 Alpha  occ. eigenvalues --   -0.55764  -0.55734  -0.55073  -0.53724  -0.52992
 Alpha  occ. eigenvalues --   -0.52942  -0.51982  -0.51183  -0.50592  -0.49839
 Alpha  occ. eigenvalues --   -0.49129  -0.49008  -0.48320  -0.48220  -0.47640
 Alpha  occ. eigenvalues --   -0.47547  -0.46750  -0.45569  -0.45336  -0.45155
 Alpha  occ. eigenvalues --   -0.44715  -0.44470  -0.44335  -0.44028  -0.43777
 Alpha  occ. eigenvalues --   -0.43427  -0.43285  -0.42622  -0.42440  -0.42241
 Alpha  occ. eigenvalues --   -0.42115  -0.41639  -0.41614  -0.40906  -0.40599
 Alpha  occ. eigenvalues --   -0.40572  -0.40141  -0.40046  -0.39559  -0.39452
 Alpha  occ. eigenvalues --   -0.39411  -0.38946  -0.38268  -0.37903  -0.37662
 Alpha  occ. eigenvalues --   -0.37372  -0.37158  -0.36942  -0.36879  -0.36486
 Alpha  occ. eigenvalues --   -0.36127  -0.36100  -0.35572  -0.34955  -0.34560
 Alpha  occ. eigenvalues --   -0.34398  -0.33300  -0.32826  -0.32436  -0.32373
 Alpha  occ. eigenvalues --   -0.31801  -0.31622  -0.30569  -0.29750  -0.28785
 Alpha  occ. eigenvalues --   -0.27725  -0.27618  -0.27231  -0.26225  -0.25675
 Alpha  occ. eigenvalues --   -0.25053  -0.24511  -0.23622  -0.23115  -0.21733
 Alpha  occ. eigenvalues --   -0.18021
 Alpha virt. eigenvalues --   -0.11218  -0.06484  -0.04320  -0.02611  -0.00503
 Alpha virt. eigenvalues --   -0.00453   0.00540   0.01547   0.02561   0.03273
 Alpha virt. eigenvalues --    0.04124   0.04154   0.04834   0.05242   0.06005

 Mulliken charges:
               1
     1  O   -0.186893
     2  O   -0.159931
     3  O   -0.252454
     4  O   -0.234893
     5  O   -0.268733
     6  O   -0.291737
     7  N    0.009616
     8  N   -0.149264
     9  N   -0.182308
    10  N   -0.255068
    11  C   -0.088351
    12  C    0.078479
    13  C   -0.201784
    14  C    0.026615
    15  C   -0.060961
    16  C    0.088125
    17  C   -0.067800
    18  C   -0.115282
    19  C    0.042412
    20  C   -0.114091
    21  C    0.102699
    22  C    0.092147
    23  C    0.094061
    24  C    0.108848
    25  C   -0.054733
    26  C    0.059034
    27  C    0.164532
    28  C    0.004836
    29  C    0.041645
    30  C    0.096442
    31  C   -0.128319
    32  C    0.020858
    33  C   -0.185527
    34  C    0.119822
    35  C   -0.129357
    36  C   -0.125692
    37  C    0.191204
    38  C   -0.009968
    39  C    0.145229
    40  C    0.161202
    41  C    0.138630
    42  C    0.099866
    43  C   -0.077045
    44  H    0.071062
    45  H    0.054726
    46  H    0.010327
    47  H    0.012340
    48  H    0.025802
    49  H    0.011620
    50  H   -0.003436
    51  H    0.009737
    52  H    0.123909
    53  H    0.043338
    54  H    0.025900
    55  H   -0.001749
    56  H    0.152530
    57  H   -0.004097
    58  H    0.046115
    59  H    0.003772
    60  H    0.053141
    61  H    0.052091
    62  H   -0.005985
    63  H    0.042894
    64  H   -0.032102
    65  H    0.049650
    66  H    0.014219
    67  H    0.027694
    68  H    0.026266
    69  H    0.039233
    70  H    0.000876
    71  H    0.040578
    72  H   -0.008489
    73  H   -0.007275
    74  H    0.023785
    75  H    0.014066
    76  H    0.038171
    77  H    0.010757
    78  H    0.003471
    79  H    0.045999
    80  H    0.202348
    81  H    0.240601
 Sum of Mulliken charges =  -0.00000

 Dipole moment (field-independent basis, Debye):
    X=             -4.6141    Y=             -0.2399    Z=             -2.5363  Tot=              5.2707
 Quadrupole moment (field-independent basis, Debye-Ang):
   XX=           -256.5762   YY=           -236.5374   ZZ=           -250.9320
   XY=             17.4552   XZ=             13.4881   YZ=             -8.6830

 Normal termination of Gaussian 16 at Thu Jun 27 18:41:39 2019.
