 Gaussian 16, Revision A.03,
 Gaussian 16:  ES64L-G16RevA.03 25-Dec-2016

 --------------------------
 # td=(NStates=1) B3LYP/SVP
 --------------------------

 --
 TD
 --
 Symbolic Z-matrix:
 Charge =  0 Multiplicity = 1

                         Standard orientation:
 ---------------------------------------------------------------------
 Center     Atomic      Atomic             Coordinates (Angstroms)
 Number     Number       Type             X           Y           Z
 ---------------------------------------------------------------------
      1          8           0        4.243540   -4.901312   -1.950955
      2          8           0       -2.722662   -4.903173   -1.089519
      3          8           0       -7.171993   -1.341055   -1.893424
      4          8           0       -3.794400   -3.206803    0.055972
      5          8           0       -7.619072   -0.785788    0.288504
      6          8           0        3.005209    2.411802    0.450175
      7          7           0        0.231514   -0.561332    0.432966
      8          7           0       -1.553944    1.797577    0.386900
      9          7           0        3.251298   -3.084472   -0.707817
     10          7           0        0.787643    3.005156    0.141034
     11          6           0       -0.611615   -2.432534    1.319327
     12          6           0       -0.992596   -1.179217    0.912231
     13          6           0        0.766096   -2.598308    1.158155
     14          6           0        1.339183   -1.371528    0.612826
     15          6           0       -3.833070    1.553742    0.203842
     16          6           0       -2.529836    0.851557    0.497620
     17          6           0       -2.280862   -0.482129    0.849532
     18          6           0       -3.464193    2.889329   -0.126732
     19          6           0       -1.599343   -3.398992    2.042977
     20          6           0        5.466676   -2.817658   -1.291934
     21          6           0        3.569440   -1.759595   -0.346657
     22          6           0       -2.089900    3.091338   -0.101067
     23          6           0        5.080187   -1.637117   -0.401386
     24          6           0       -5.137142    0.868177    0.280124
     25          6           0        2.644849   -0.890931    0.147580
     26          6           0        1.548869   -3.677071    1.794619
     27          6           0        4.285594   -3.771739   -1.361973
     28          6           0       -2.070072   -4.521399    1.171624
     29          6           0       -5.440331   -0.156784   -0.876247
     30          6           0       -4.439437    3.896908   -0.509407
     31          6           0       -1.365256    4.072297   -0.357461
     32          6           0        6.841276   -3.423755   -0.889164
     33          6           0        5.854293   -0.650158    0.012674
     34          6           0        0.110027    4.102409   -0.269464
     35          6           0        1.052905    5.180624   -0.451293
     36          6           0        2.278036    4.686714   -0.126001
     37          6           0       -3.022616   -4.162580    0.023045
     38          6           0        5.575483    0.615934    0.844831
     39          6           0       -6.824563   -0.823252   -0.683912
     40          6           0        3.612334    5.321917   -0.249662
     41          6           0        2.145592    3.238858    0.171545
     42          6           0        0.548662    6.659022   -0.863401
     43          6           0        4.344518    5.472592    1.082469
     44          1           0        0.499002    0.441113    0.022408
     45          1           0       -3.273783   -1.030743    0.846591
     46          1           0       -2.625350   -2.863717    2.456500
     47          1           0       -0.966388   -3.955828    3.060892
     48          1           0        5.331859   -2.284087   -2.379724
     49          1           0       -5.173776    0.224871    1.198449
     50          1           0       -5.706664    1.616081    0.605031
     51          1           0        2.921645    0.181677    0.196380
     52          1           0       -0.620166    1.658411    0.542232
     53          1           0        1.646141   -4.546268    0.986106
     54          1           0        2.703483   -3.395335    2.041613
     55          1           0        1.143299   -4.158069    2.629327
     56          1           0        2.310158   -3.540498   -0.688856
     57          1           0       -1.063342   -5.009379    0.913914
     58          1           0       -2.524034   -5.362979    1.807422
     59          1           0       -4.798322   -1.008897   -0.689833
     60          1           0       -5.277902    0.350900   -1.925938
     61          1           0       -4.154207    4.731009    0.172263
     62          1           0       -5.514016    3.393620   -0.445056
     63          1           0       -4.295816    4.218271   -1.619864
     64          1           0       -1.939472    5.072172   -0.574595
     65          1           0        7.661856   -2.801379   -1.155039
     66          1           0        6.877130   -4.335293   -1.381618
     67          1           0        6.918516   -3.603839    0.211428
     68          1           0        6.882520   -0.786262   -0.267143
     69          1           0        4.778904    1.261324    0.274243
     70          1           0        6.438083    1.017881    1.206146
     71          1           0        4.874566    0.341656    1.558401
     72          1           0        3.800297    6.302753   -0.767002
     73          1           0        4.181600    4.599491   -0.915914
     74          1           0        0.017898    6.718459   -1.975199
     75          1           0        1.300049    7.346890   -1.110097
     76          1           0       -0.029448    6.800818    0.204207
     77          1           0        4.101753    6.265692    1.684204
     78          1           0        5.468906    5.544975    0.816358
     79          1           0        4.332144    4.504931    1.909793
     80          1           0       -3.190588   -4.650058   -1.811160
     81          1           0       -7.756219   -2.028265   -1.610015
 ---------------------------------------------------------------------

 SCF Done:  E(RB3LYP) =  -1949.05137323     A.U. after   18 cycles

 Excitation energies and oscillator strengths:

 Excited State   1:      Singlet-A      1.5602 eV  794.67 nm  f=0.2494  <S**2>=0.000
     156 ->157         0.71063
     156 <-157        -0.14446
 This state for optimization and/or second-order correction.
 Total Energy, E(TD-HF/TD-DFT) =  -1948.99403716
 Copying the excited state density for this state as the 1-particle RhoCI density.

 The electronic state is 1-A.
 Alpha  occ. eigenvalues --  -19.19632 -19.18691 -19.15395 -19.13775 -19.12012
 Alpha  occ. eigenvalues --  -19.10926 -14.37700 -14.37449 -14.34796 -14.28931
 Alpha  occ. eigenvalues --  -10.34866 -10.33254 -10.29501 -10.27319 -10.24360
 Alpha  occ. eigenvalues --  -10.24236 -10.23786 -10.23758 -10.23719 -10.23435
 Alpha  occ. eigenvalues --  -10.23114 -10.22518 -10.22419 -10.22263 -10.21540
 Alpha  occ. eigenvalues --  -10.21436 -10.21296 -10.21262 -10.20769 -10.20493
 Alpha  occ. eigenvalues --  -10.20272 -10.19924 -10.19842 -10.19795 -10.19786
 Alpha  occ. eigenvalues --  -10.19690 -10.19653 -10.19290 -10.19151 -10.19082
 Alpha  occ. eigenvalues --  -10.18893 -10.18112 -10.17127  -1.11263  -1.10049
 Alpha  occ. eigenvalues --   -1.02878  -1.02591  -1.00359  -0.99678  -0.96629
 Alpha  occ. eigenvalues --   -0.95660  -0.93896  -0.92674  -0.83082  -0.82188
 Alpha  occ. eigenvalues --   -0.81720  -0.81162  -0.79343  -0.78818  -0.77679
 Alpha  occ. eigenvalues --   -0.77451  -0.76192  -0.74738  -0.74174  -0.72471
 Alpha  occ. eigenvalues --   -0.71283  -0.69664  -0.69419  -0.68397  -0.68332
 Alpha  occ. eigenvalues --   -0.67035  -0.65937  -0.65511  -0.62449  -0.61664
 Alpha  occ. eigenvalues --   -0.60998  -0.60082  -0.58751  -0.56774  -0.56371
 Alpha  occ. eigenvalues --   -0.55739  -0.54971  -0.54008  -0.53645  -0.53546
 Alpha  occ. eigenvalues --   -0.52392  -0.51840  -0.51476  -0.50355  -0.49842
 Alpha  occ. eigenvalues --   -0.49649  -0.48610  -0.48592  -0.48274  -0.48115
 Alpha  occ. eigenvalues --   -0.47054  -0.46660  -0.46372  -0.46026  -0.45440
 Alpha  occ. eigenvalues --   -0.45172  -0.44630  -0.44183  -0.43776  -0.43623
 Alpha  occ. eigenvalues --   -0.43566  -0.43051  -0.42453  -0.42310  -0.41915
 Alpha  occ. eigenvalues --   -0.41771  -0.41642  -0.41531  -0.40906  -0.40814
 Alpha  occ. eigenvalues --   -0.40776  -0.40355  -0.40301  -0.39474  -0.39420
 Alpha  occ. eigenvalues --   -0.38945  -0.38755  -0.38410  -0.38284  -0.38014
 Alpha  occ. eigenvalues --   -0.37865  -0.37413  -0.37310  -0.36982  -0.36905
 Alpha  occ. eigenvalues --   -0.36568  -0.36001  -0.35074  -0.34915  -0.34787
 Alpha  occ. eigenvalues --   -0.34461  -0.33841  -0.33803  -0.33500  -0.33112
 Alpha  occ. eigenvalues --   -0.32475  -0.32421  -0.31533  -0.30496  -0.30406
 Alpha  occ. eigenvalues --   -0.28705  -0.27713  -0.27063  -0.26162  -0.25027
 Alpha  occ. eigenvalues --   -0.24893  -0.24687  -0.24276  -0.23179  -0.22001
 Alpha  occ. eigenvalues --   -0.17727
 Alpha virt. eigenvalues --   -0.11619  -0.06424  -0.04161  -0.03050  -0.01845
 Alpha virt. eigenvalues --   -0.00175   0.01446   0.02853   0.03235   0.03830
 Alpha virt. eigenvalues --    0.04172   0.04556   0.05245   0.05709   0.05907

 Mulliken charges:
               1
     1  O   -0.271607
     2  O   -0.142160
     3  O   -0.165848
     4  O   -0.227651
     5  O   -0.253481
     6  O   -0.200865
     7  N   -0.203978
     8  N   -0.100057
     9  N   -0.161632
    10  N   -0.293867
    11  C   -0.037577
    12  C    0.111340
    13  C   -0.179990
    14  C    0.078187
    15  C   -0.082493
    16  C    0.013382
    17  C   -0.036545
    18  C   -0.131971
    19  C   -0.045459
    20  C   -0.126410
    21  C    0.093161
    22  C    0.256057
    23  C    0.020608
    24  C    0.117696
    25  C   -0.097555
    26  C    0.041712
    27  C    0.170508
    28  C   -0.007031
    29  C    0.011470
    30  C    0.031160
    31  C   -0.201902
    32  C    0.114169
    33  C   -0.186678
    34  C    0.060208
    35  C   -0.093807
    36  C   -0.155930
    37  C    0.182242
    38  C    0.132605
    39  C    0.155641
    40  C    0.066994
    41  C    0.174059
    42  C    0.032263
    43  C   -0.058293
    44  H    0.180614
    45  H    0.021784
    46  H    0.050210
    47  H    0.042693
    48  H    0.072502
    49  H    0.015733
    50  H   -0.034249
    51  H    0.013999
    52  H    0.071479
    53  H    0.014968
    54  H    0.055730
    55  H   -0.002761
    56  H    0.152669
    57  H    0.037948
    58  H    0.050729
    59  H    0.048769
    60  H    0.068882
    61  H    0.040141
    62  H    0.043809
    63  H    0.041886
    64  H    0.005020
    65  H    0.012937
    66  H    0.009642
    67  H    0.020184
    68  H   -0.028995
    69  H    0.079667
    70  H   -0.001629
    71  H   -0.001689
    72  H    0.006287
    73  H    0.023188
    74  H    0.047893
    75  H    0.004172
    76  H    0.074760
    77  H    0.000591
    78  H    0.015544
    79  H    0.038764
    80  H    0.145037
    81  H    0.160414
 Sum of Mulliken charges =  -0.00000

 Dipole moment (field-independent basis, Debye):
    X=             -1.8753    Y=              2.1649    Z=             -0.9836  Tot=              3.0284
 Quadrupole moment (field-independent basis, Debye-Ang):
   XX=           -260.6793   YY=           -237.8148   ZZ=           -256.1651
   XY=             21.3647   XZ=             15.8565   YZ=            -15.1430

 Normal termination of Gaussian 16 at Wed Jul  3 20:28:45 2019.
