 Gaussian 16, Revision A.03,
 Gaussian 16:  ES64L-G16RevA.03 25-Dec-2016

 --------------------------
 # td=(NStates=1) B3LYP/SVP
 --------------------------

 --
 TD
 --
 Symbolic Z-matrix:
 Charge =  0 Multiplicity = 1

                         Standard orientation:
 ---------------------------------------------------------------------
 Center     Atomic      Atomic             Coordinates (Angstroms)
 Number     Number       Type             X           Y           Z
 ---------------------------------------------------------------------
      1          8           0        4.204688   -4.853363   -1.731681
      2          8           0       -2.831348   -4.704832   -1.184146
      3          8           0       -6.761943   -1.621350   -1.827907
      4          8           0       -3.828221   -3.165911    0.080667
      5          8           0       -7.469094   -0.714760    0.162891
      6          8           0        3.009567    2.312031    0.343480
      7          7           0        0.232538   -0.485223    0.559692
      8          7           0       -1.541594    1.977772    0.376714
      9          7           0        3.226233   -3.109919   -0.693309
     10          7           0        0.779197    2.913885    0.043405
     11          6           0       -0.667338   -2.403587    1.394142
     12          6           0       -1.056158   -1.034178    0.950265
     13          6           0        0.658087   -2.616325    1.227537
     14          6           0        1.233289   -1.413149    0.798757
     15          6           0       -3.729834    1.604502    0.251747
     16          6           0       -2.480876    0.990359    0.540666
     17          6           0       -2.235364   -0.469335    0.817274
     18          6           0       -3.541156    2.973356   -0.075105
     19          6           0       -1.690920   -3.367540    1.955920
     20          6           0        5.376501   -2.835762   -1.319825
     21          6           0        3.488890   -1.864133   -0.170880
     22          6           0       -2.028418    3.069144   -0.081868
     23          6           0        4.902624   -1.687869   -0.454467
     24          6           0       -5.184824    0.968992    0.268422
     25          6           0        2.488364   -0.985683    0.306539
     26          6           0        1.513596   -3.829097    1.791971
     27          6           0        4.217779   -3.803754   -1.296991
     28          6           0       -2.089296   -4.517488    1.112415
     29          6           0       -5.366425   -0.043855   -0.862290
     30          6           0       -4.559325    3.921730   -0.492968
     31          6           0       -1.187628    4.169797   -0.293012
     32          6           0        6.711055   -3.500239   -0.832954
     33          6           0        5.684187   -0.656548   -0.131108
     34          6           0        0.156534    4.047573   -0.393104
     35          6           0        1.134366    5.135823   -0.522506
     36          6           0        2.389169    4.577347   -0.242512
     37          6           0       -2.988309   -4.001878    0.032138
     38          6           0        5.504351    0.539622    0.789936
     39          6           0       -6.701386   -0.729529   -0.793512
     40          6           0        3.740910    5.294086   -0.234547
     41          6           0        2.147201    3.157764    0.060604
     42          6           0        0.763017    6.474357   -0.820801
     43          6           0        4.355308    5.310530    1.254962
     44          1           0        0.195947    0.375129    0.002296
     45          1           0       -3.093319   -0.940542    1.122690
     46          1           0       -2.564135   -2.818141    2.185171
     47          1           0       -1.349875   -3.755471    2.880724
     48          1           0        5.543384   -2.564685   -2.359884
     49          1           0       -5.163661    0.281066    1.150651
     50          1           0       -5.990280    1.662738    0.301336
     51          1           0        2.831882    0.290315    0.193141
     52          1           0       -0.504109    2.001553    0.586654
     53          1           0        1.292789   -4.620387    1.044109
     54          1           0        2.665219   -3.683950    1.776209
     55          1           0        0.996433   -4.210200    2.665857
     56          1           0        2.381035   -3.631622   -0.773843
     57          1           0       -1.085994   -4.779059    0.544408
     58          1           0       -2.535716   -5.286661    1.674018
     59          1           0       -4.712217   -0.900528   -0.901024
     60          1           0       -5.277694    0.485760   -1.853714
     61          1           0       -4.096590    4.969195   -0.091512
     62          1           0       -5.554686    3.609773    0.104403
     63          1           0       -4.635440    3.916042   -1.596522
     64          1           0       -1.528215    5.114979   -0.752358
     65          1           0        7.555613   -2.828564   -1.349434
     66          1           0        6.739221   -4.270142   -1.793512
     67          1           0        6.799584   -3.718408    0.096935
     68          1           0        6.698230   -0.713890   -0.648005
     69          1           0        5.284677    1.471114    0.135179
     70          1           0        6.363063    1.035661    1.380736
     71          1           0        4.609816    0.060930    1.340646
     72          1           0        3.647930    6.149492   -0.807405
     73          1           0        4.540341    4.481856   -0.737509
     74          1           0        0.424132    6.792907   -1.773373
     75          1           0        1.536738    7.123818   -0.710642
     76          1           0        0.161413    6.831968   -0.082967
     77          1           0        3.639552    6.056938    1.805136
     78          1           0        5.440525    5.996457    1.130094
     79          1           0        4.612169    4.385310    1.625613
     80          1           0       -3.458196   -4.153511   -1.794860
     81          1           0       -7.621208   -2.157565   -1.680457
 ---------------------------------------------------------------------

 SCF Done:  E(RB3LYP) =  -1949.05441539     A.U. after   20 cycles

 Excitation energies and oscillator strengths:

 Excited State   1:      Singlet-A      1.6478 eV  752.44 nm  f=0.3366  <S**2>=0.000
     156 ->157         0.70889
     156 <-157        -0.14411
 This state for optimization and/or second-order correction.
 Total Energy, E(TD-HF/TD-DFT) =  -1948.99386120
 Copying the excited state density for this state as the 1-particle RhoCI density.

 The electronic state is 1-A.
 Alpha  occ. eigenvalues --  -19.18471 -19.18440 -19.15420 -19.12791 -19.12248
 Alpha  occ. eigenvalues --  -19.08880 -14.37563 -14.37541 -14.35269 -14.26896
 Alpha  occ. eigenvalues --  -10.33568 -10.31763 -10.28701 -10.25773 -10.25027
 Alpha  occ. eigenvalues --  -10.24849 -10.23508 -10.23078 -10.22656 -10.22573
 Alpha  occ. eigenvalues --  -10.22106 -10.21581 -10.21192 -10.21119 -10.20960
 Alpha  occ. eigenvalues --  -10.20780 -10.20459 -10.20396 -10.20244 -10.20135
 Alpha  occ. eigenvalues --  -10.20119 -10.19996 -10.19965 -10.19890 -10.19700
 Alpha  occ. eigenvalues --  -10.19624 -10.19610 -10.19475 -10.19021 -10.18578
 Alpha  occ. eigenvalues --  -10.17912 -10.17423 -10.16416  -1.10713  -1.08983
 Alpha  occ. eigenvalues --   -1.08273  -1.00852  -0.99719  -0.99526  -0.99005
 Alpha  occ. eigenvalues --   -0.98270  -0.97110  -0.90160  -0.84366  -0.82521
 Alpha  occ. eigenvalues --   -0.82032  -0.80958  -0.79427  -0.78972  -0.78305
 Alpha  occ. eigenvalues --   -0.77274  -0.77034  -0.75059  -0.74325  -0.72293
 Alpha  occ. eigenvalues --   -0.71086  -0.70279  -0.69074  -0.68371  -0.67604
 Alpha  occ. eigenvalues --   -0.66836  -0.66434  -0.65126  -0.62279  -0.60891
 Alpha  occ. eigenvalues --   -0.59605  -0.58895  -0.58439  -0.58160  -0.57477
 Alpha  occ. eigenvalues --   -0.56103  -0.54914  -0.54764  -0.53385  -0.53190
 Alpha  occ. eigenvalues --   -0.52760  -0.51677  -0.51403  -0.50727  -0.50174
 Alpha  occ. eigenvalues --   -0.49328  -0.49093  -0.48752  -0.48595  -0.47727
 Alpha  occ. eigenvalues --   -0.47701  -0.47239  -0.46871  -0.45768  -0.45448
 Alpha  occ. eigenvalues --   -0.45211  -0.44866  -0.44588  -0.44357  -0.44121
 Alpha  occ. eigenvalues --   -0.43882  -0.43562  -0.42988  -0.42761  -0.42547
 Alpha  occ. eigenvalues --   -0.42245  -0.41960  -0.41768  -0.41552  -0.41093
 Alpha  occ. eigenvalues --   -0.40778  -0.40438  -0.40328  -0.39857  -0.39698
 Alpha  occ. eigenvalues --   -0.39562  -0.39532  -0.38812  -0.38593  -0.38321
 Alpha  occ. eigenvalues --   -0.38064  -0.37735  -0.37493  -0.37040  -0.36782
 Alpha  occ. eigenvalues --   -0.36348  -0.36264  -0.35725  -0.35331  -0.35130
 Alpha  occ. eigenvalues --   -0.33508  -0.33273  -0.32962  -0.32530  -0.32270
 Alpha  occ. eigenvalues --   -0.32213  -0.31571  -0.30878  -0.30675  -0.30423
 Alpha  occ. eigenvalues --   -0.28046  -0.27270  -0.26993  -0.26620  -0.26145
 Alpha  occ. eigenvalues --   -0.25212  -0.23659  -0.23079  -0.22168  -0.20968
 Alpha  occ. eigenvalues --   -0.17027
 Alpha virt. eigenvalues --   -0.10635  -0.05964  -0.04238  -0.02078  -0.00153
 Alpha virt. eigenvalues --    0.00314   0.02156   0.02855   0.03576   0.04294
 Alpha virt. eigenvalues --    0.04507   0.04585   0.05265   0.05425   0.05683

 Mulliken charges:
               1
     1  O   -0.112110
     2  O   -0.256849
     3  O   -0.226546
     4  O   -0.191180
     5  O   -0.241771
     6  O   -0.261571
     7  N   -0.147112
     8  N   -0.016390
     9  N   -0.089618
    10  N   -0.353209
    11  C   -0.114398
    12  C    0.140945
    13  C   -0.178458
    14  C    0.122765
    15  C   -0.104694
    16  C   -0.000745
    17  C   -0.017663
    18  C   -0.135719
    19  C    0.145275
    20  C   -0.100407
    21  C    0.088861
    22  C    0.028663
    23  C   -0.012919
    24  C    0.158780
    25  C   -0.188979
    26  C    0.098409
    27  C    0.055130
    28  C    0.054404
    29  C   -0.039764
    30  C    0.017521
    31  C   -0.111316
    32  C    0.075758
    33  C   -0.155305
    34  C    0.079588
    35  C   -0.131855
    36  C   -0.145718
    37  C    0.116483
    38  C    0.024333
    39  C    0.155724
    40  C    0.049349
    41  C    0.158847
    42  C    0.230573
    43  C   -0.035981
    44  H    0.142333
    45  H   -0.037163
    46  H   -0.008054
    47  H   -0.011263
    48  H    0.033351
    49  H    0.013108
    50  H   -0.002156
    51  H    0.154123
    52  H    0.151708
    53  H    0.010245
    54  H    0.067581
    55  H    0.018208
    56  H    0.109993
    57  H    0.054237
    58  H    0.040261
    59  H    0.044863
    60  H    0.030561
    61  H    0.043995
    62  H    0.052126
    63  H    0.045828
    64  H   -0.018532
    65  H    0.025496
    66  H    0.041184
    67  H   -0.022082
    68  H   -0.005408
    69  H    0.067741
    70  H    0.031665
    71  H    0.057429
    72  H   -0.010942
    73  H    0.025249
    74  H    0.009943
    75  H   -0.061036
    76  H   -0.015350
    77  H    0.034807
    78  H    0.012133
    79  H    0.038196
    80  H    0.205385
    81  H    0.199106
 Sum of Mulliken charges =  -0.00000

 Dipole moment (field-independent basis, Debye):
    X=             -0.7369    Y=             -1.4960    Z=             -0.8599  Tot=              1.8763
 Quadrupole moment (field-independent basis, Debye-Ang):
   XX=           -254.5354   YY=           -242.2754   ZZ=           -252.6701
   XY=             10.1971   XZ=             10.8825   YZ=            -16.7787

 Normal termination of Gaussian 16 at Sun Jun 30 11:33:50 2019.
