 Gaussian 16, Revision A.03,
 Gaussian 16:  ES64L-G16RevA.03 25-Dec-2016

 --------------------------
 # td=(NStates=1) B3LYP/SVP
 --------------------------

 --
 TD
 --
 Symbolic Z-matrix:
 Charge =  0 Multiplicity = 1

                         Standard orientation:
 ---------------------------------------------------------------------
 Center     Atomic      Atomic             Coordinates (Angstroms)
 Number     Number       Type             X           Y           Z
 ---------------------------------------------------------------------
      1          8           0        4.429135   -4.732475   -1.773204
      2          8           0       -2.679323   -4.959611   -1.105237
      3          8           0       -6.918662   -1.883913   -1.695820
      4          8           0       -3.724572   -3.383049   -0.000967
      5          8           0       -7.720393   -0.459461   -0.080749
      6          8           0        2.918768    2.390433    0.421206
      7          7           0        0.261562   -0.445343    0.558702
      8          7           0       -1.580002    1.794620    0.356337
      9          7           0        3.438469   -3.016296   -0.685732
     10          7           0        0.731917    2.901368   -0.053066
     11          6           0       -0.503836   -2.377239    1.427830
     12          6           0       -0.879122   -1.107013    0.919923
     13          6           0        0.849582   -2.566041    1.218303
     14          6           0        1.319915   -1.390142    0.752768
     15          6           0       -3.821493    1.489439    0.257105
     16          6           0       -2.503891    0.818204    0.625773
     17          6           0       -2.219326   -0.485455    0.879902
     18          6           0       -3.622078    2.717615   -0.111384
     19          6           0       -1.508496   -3.409898    2.041413
     20          6           0        5.600877   -2.681164   -1.241996
     21          6           0        3.659460   -1.717558   -0.184572
     22          6           0       -2.130063    2.930353   -0.023384
     23          6           0        5.074536   -1.386747   -0.515108
     24          6           0       -5.196649    0.694676    0.417059
     25          6           0        2.668860   -0.903666    0.338929
     26          6           0        1.660918   -3.685791    1.711255
     27          6           0        4.509974   -3.663243   -1.213856
     28          6           0       -1.859256   -4.534860    1.097246
     29          6           0       -5.364250   -0.369486   -0.798458
     30          6           0       -4.675071    3.796173   -0.420533
     31          6           0       -1.472366    4.089381   -0.357798
     32          6           0        6.854360   -3.452686   -0.706081
     33          6           0        5.796302   -0.335558   -0.247626
     34          6           0        0.062748    4.047337   -0.368540
     35          6           0        0.904095    5.192155   -0.477123
     36          6           0        2.101509    4.737378   -0.282846
     37          6           0       -2.833885   -4.169707   -0.089151
     38          6           0        5.337014    0.811170    0.542035
     39          6           0       -6.850710   -0.815866   -0.864608
     40          6           0        3.506574    5.503619   -0.194980
     41          6           0        2.081801    3.238208    0.054422
     42          6           0        0.504540    6.597633   -0.794111
     43          6           0        4.011843    5.493179    1.201499
     44          1           0        0.323885    0.448840    0.100556
     45          1           0       -3.014256   -1.181026    0.975340
     46          1           0       -2.671540   -3.170473    2.423100
     47          1           0       -1.016934   -3.786119    2.881156
     48          1           0        5.843014   -2.441362   -2.270867
     49          1           0       -5.224667   -0.107873    1.335965
     50          1           0       -6.000119    1.287138    0.346331
     51          1           0        2.946434    0.160804    0.396257
     52          1           0       -0.578248    1.761447    0.449341
     53          1           0        1.554123   -4.465366    0.938733
     54          1           0        2.810507   -3.449863    1.771632
     55          1           0        1.185848   -4.138082    2.610134
     56          1           0        2.528750   -3.413463   -0.721831
     57          1           0       -1.023545   -4.968115    0.582941
     58          1           0       -2.284663   -5.425704    1.570072
     59          1           0       -4.878975   -1.399520   -0.699344
     60          1           0       -5.157726    0.096125   -1.759683
     61          1           0       -4.627311    4.509585    0.447975
     62          1           0       -5.705855    3.441101   -0.482820
     63          1           0       -4.296782    4.171748   -1.411355
     64          1           0       -1.935011    4.978917   -0.611056
     65          1           0        7.876866   -2.807530   -0.997511
     66          1           0        6.875581   -4.441449   -1.298522
     67          1           0        6.864275   -3.656951    0.265429
     68          1           0        6.936830   -0.293746   -0.573663
     69          1           0        4.735175    1.393573   -0.269938
     70          1           0        6.198083    1.588182    1.053888
     71          1           0        4.665494    0.377642    1.287904
     72          1           0        3.219782    6.500788   -0.653934
     73          1           0        4.153777    4.887065   -0.895377
     74          1           0        0.285189    6.676064   -1.904311
     75          1           0        1.563849    7.287747   -0.558932
     76          1           0       -0.449057    7.012521   -0.303418
     77          1           0        3.451031    6.233697    1.781567
     78          1           0        5.182895    5.899580    1.038522
     79          1           0        4.161424    4.436890    1.657374
     80          1           0       -3.476808   -4.676014   -1.797404
     81          1           0       -7.811077   -2.369026   -1.619596
 ---------------------------------------------------------------------

 SCF Done:  E(RB3LYP) =  -1949.12528774     A.U. after   16 cycles

 Excitation energies and oscillator strengths:

 Excited State   1:      Singlet-A      1.5888 eV  780.38 nm  f=0.1610  <S**2>=0.000
     156 ->157         0.70501
 This state for optimization and/or second-order correction.
 Total Energy, E(TD-HF/TD-DFT) =  -1949.06690159
 Copying the excited state density for this state as the 1-particle RhoCI density.

 The electronic state is 1-A.
 Alpha  occ. eigenvalues --  -19.20657 -19.18781 -19.13597 -19.12833 -19.11729
 Alpha  occ. eigenvalues --  -19.09697 -14.36762 -14.36616 -14.35798 -14.29488
 Alpha  occ. eigenvalues --  -10.32715 -10.32056 -10.27711 -10.27557 -10.24733
 Alpha  occ. eigenvalues --  -10.24379 -10.23558 -10.23489 -10.22588 -10.22546
 Alpha  occ. eigenvalues --  -10.22474 -10.21472 -10.21189 -10.21107 -10.20888
 Alpha  occ. eigenvalues --  -10.20762 -10.20657 -10.20519 -10.20347 -10.20216
 Alpha  occ. eigenvalues --  -10.20070 -10.19829 -10.19742 -10.19611 -10.19567
 Alpha  occ. eigenvalues --  -10.19505 -10.19426 -10.19187 -10.18939 -10.18879
 Alpha  occ. eigenvalues --  -10.18596 -10.18474 -10.18403  -1.12263  -1.08531
 Alpha  occ. eigenvalues --   -1.03185  -1.02173  -1.01355  -1.00101  -0.99968
 Alpha  occ. eigenvalues --   -0.97028  -0.94397  -0.92618  -0.82473  -0.81923
 Alpha  occ. eigenvalues --   -0.81081  -0.80942  -0.80159  -0.78831  -0.77341
 Alpha  occ. eigenvalues --   -0.76370  -0.76236  -0.75426  -0.73974  -0.71831
 Alpha  occ. eigenvalues --   -0.71193  -0.69158  -0.68971  -0.67886  -0.67518
 Alpha  occ. eigenvalues --   -0.66875  -0.65271  -0.64034  -0.62064  -0.60863
 Alpha  occ. eigenvalues --   -0.60210  -0.59498  -0.58768  -0.57979  -0.57783
 Alpha  occ. eigenvalues --   -0.56401  -0.55289  -0.54783  -0.54029  -0.52553
 Alpha  occ. eigenvalues --   -0.52078  -0.51611  -0.50430  -0.50101  -0.49156
 Alpha  occ. eigenvalues --   -0.48994  -0.48677  -0.48157  -0.47790  -0.47303
 Alpha  occ. eigenvalues --   -0.46684  -0.46451  -0.46018  -0.45712  -0.45376
 Alpha  occ. eigenvalues --   -0.45203  -0.44518  -0.44214  -0.44067  -0.43762
 Alpha  occ. eigenvalues --   -0.43495  -0.43096  -0.42637  -0.42451  -0.42119
 Alpha  occ. eigenvalues --   -0.41951  -0.41704  -0.41402  -0.41154  -0.40881
 Alpha  occ. eigenvalues --   -0.40635  -0.40397  -0.40230  -0.39621  -0.39300
 Alpha  occ. eigenvalues --   -0.39163  -0.39046  -0.38891  -0.38710  -0.38160
 Alpha  occ. eigenvalues --   -0.37886  -0.37698  -0.37416  -0.36549  -0.36356
 Alpha  occ. eigenvalues --   -0.35536  -0.35287  -0.34956  -0.34776  -0.34745
 Alpha  occ. eigenvalues --   -0.34345  -0.34090  -0.33811  -0.33513  -0.32925
 Alpha  occ. eigenvalues --   -0.32503  -0.31229  -0.30887  -0.30084  -0.29140
 Alpha  occ. eigenvalues --   -0.28457  -0.27955  -0.26832  -0.26026  -0.25392
 Alpha  occ. eigenvalues --   -0.25307  -0.25096  -0.24777  -0.24062  -0.21641
 Alpha  occ. eigenvalues --   -0.17534
 Alpha virt. eigenvalues --   -0.10643  -0.05386  -0.02729  -0.00296   0.00168
 Alpha virt. eigenvalues --    0.00828   0.00857   0.02600   0.02954   0.03896
 Alpha virt. eigenvalues --    0.04106   0.04789   0.05083   0.05175   0.06094

 Mulliken charges:
               1
     1  O   -0.218318
     2  O   -0.185199
     3  O   -0.220512
     4  O   -0.217587
     5  O   -0.238985
     6  O   -0.215355
     7  N   -0.097340
     8  N   -0.007417
     9  N   -0.090642
    10  N   -0.317943
    11  C   -0.104490
    12  C    0.007844
    13  C   -0.164949
    14  C    0.080764
    15  C   -0.064305
    16  C    0.093725
    17  C   -0.012753
    18  C   -0.163963
    19  C    0.104164
    20  C   -0.046297
    21  C    0.068769
    22  C    0.102008
    23  C    0.054704
    24  C    0.136130
    25  C   -0.083341
    26  C    0.085885
    27  C    0.098308
    28  C    0.008265
    29  C   -0.083845
    30  C    0.094298
    31  C   -0.099725
    32  C    0.020926
    33  C   -0.214326
    34  C    0.056442
    35  C   -0.058189
    36  C   -0.227066
    37  C    0.102760
    38  C    0.000107
    39  C    0.148898
    40  C    0.071745
    41  C    0.185517
    42  C    0.002942
    43  C   -0.038385
    44  H    0.121261
    45  H   -0.024754
    46  H    0.046412
    47  H   -0.016975
    48  H    0.034322
    49  H    0.052296
    50  H   -0.026295
    51  H    0.009516
    52  H    0.118638
    53  H    0.011318
    54  H    0.057754
    55  H    0.017410
    56  H    0.109770
    57  H    0.000171
    58  H    0.033542
    59  H    0.087259
    60  H    0.028443
    61  H    0.046028
    62  H    0.022683
    63  H    0.039560
    64  H   -0.058539
    65  H    0.023459
    66  H    0.051016
    67  H   -0.017823
    68  H    0.010945
    69  H    0.079020
    70  H    0.034624
    71  H    0.042658
    72  H    0.003756
    73  H    0.024062
    74  H    0.041706
    75  H    0.050124
    76  H    0.044758
    77  H    0.023658
    78  H    0.020472
    79  H    0.068330
    80  H    0.233567
    81  H    0.202573
 Sum of Mulliken charges =  -0.00000

 Dipole moment (field-independent basis, Debye):
    X=             -3.5827    Y=              1.9285    Z=             -1.0681  Tot=              4.2067
 Quadrupole moment (field-independent basis, Debye-Ang):
   XX=           -258.2370   YY=           -233.7557   ZZ=           -254.6405
   XY=             23.4064   XZ=             16.4001   YZ=            -13.1830

 Normal termination of Gaussian 16 at Mon Jul  1 13:36:03 2019.
