 Gaussian 16, Revision A.03,
 Gaussian 16:  ES64L-G16RevA.03 25-Dec-2016

 --------------------------
 # td=(NStates=1) B3LYP/SVP
 --------------------------

 --
 TD
 --
 Symbolic Z-matrix:
 Charge =  0 Multiplicity = 1

                         Standard orientation:
 ---------------------------------------------------------------------
 Center     Atomic      Atomic             Coordinates (Angstroms)
 Number     Number       Type             X           Y           Z
 ---------------------------------------------------------------------
      1          8           0        4.487521   -4.795554   -1.706969
      2          8           0       -2.991509   -4.862855   -1.080682
      3          8           0       -6.824795   -1.735563   -1.898909
      4          8           0       -3.734153   -3.119542    0.144643
      5          8           0       -7.604832   -0.670762   -0.111506
      6          8           0        2.953030    2.399045    0.484820
      7          7           0        0.238229   -0.498570    0.485949
      8          7           0       -1.613643    1.868151    0.506774
      9          7           0        3.438066   -3.110266   -0.732377
     10          7           0        0.723303    2.916479    0.061259
     11          6           0       -0.637053   -2.453802    1.313092
     12          6           0       -0.885157   -1.110708    0.942040
     13          6           0        0.773419   -2.556682    1.253096
     14          6           0        1.315784   -1.403667    0.658752
     15          6           0       -3.831492    1.520059    0.399904
     16          6           0       -2.478265    0.840449    0.577238
     17          6           0       -2.268355   -0.385916    0.917747
     18          6           0       -3.616966    2.780629    0.062380
     19          6           0       -1.684875   -3.407371    1.991485
     20          6           0        5.720566   -2.701271   -1.214627
     21          6           0        3.681314   -1.838393   -0.246462
     22          6           0       -2.181320    3.027408    0.090965
     23          6           0        5.140077   -1.478386   -0.469918
     24          6           0       -5.190230    0.743387    0.302835
     25          6           0        2.611740   -1.035559    0.296128
     26          6           0        1.457130   -3.856151    1.585108
     27          6           0        4.570695   -3.731875   -1.296935
     28          6           0       -2.035314   -4.632906    1.076867
     29          6           0       -5.335786   -0.220192   -0.835858
     30          6           0       -4.574921    3.813981   -0.465934
     31          6           0       -1.366124    4.052867   -0.246778
     32          6           0        6.981855   -3.344427   -0.815958
     33          6           0        5.947194   -0.471957   -0.072711
     34          6           0        0.037519    4.090744   -0.237134
     35          6           0        0.975298    5.130233   -0.534717
     36          6           0        2.185345    4.649095   -0.251681
     37          6           0       -3.022821   -4.150552   -0.054109
     38          6           0        5.480972    0.824024    0.808232
     39          6           0       -6.600128   -0.822505   -0.898971
     40          6           0        3.560539    5.351743   -0.353245
     41          6           0        2.047237    3.255544    0.201584
     42          6           0        0.517821    6.524955   -0.933666
     43          6           0        4.062824    5.714216    0.967554
     44          1           0        0.488108    0.469322    0.200318
     45          1           0       -3.038482   -1.089150    1.196693
     46          1           0       -2.724097   -2.954072    2.261053
     47          1           0       -1.319991   -3.751787    3.020929
     48          1           0        5.756900   -2.461963   -2.301996
     49          1           0       -5.410416    0.177998    1.367628
     50          1           0       -6.152481    1.399220    0.211142
     51          1           0        3.002252   -0.079841    0.526480
     52          1           0       -0.630561    1.854699    0.601958
     53          1           0        1.262610   -4.513508    0.957600
     54          1           0        2.634739   -3.690498    1.541780
     55          1           0        1.019481   -4.156074    2.517653
     56          1           0        2.660532   -3.803681   -0.548435
     57          1           0       -1.111147   -5.234314    0.713649
     58          1           0       -2.722174   -5.354360    1.565210
     59          1           0       -4.641483   -1.117950   -1.014636
     60          1           0       -5.496368    0.379945   -1.970418
     61          1           0       -4.341037    4.805765    0.221832
     62          1           0       -5.582247    3.296780   -0.534438
     63          1           0       -4.309032    4.287908   -1.350301
     64          1           0       -1.723401    4.933588   -0.726352
     65          1           0        7.559025   -2.506511   -0.900931
     66          1           0        7.350470   -4.286897   -1.550521
     67          1           0        7.054039   -3.614558    0.244024
     68          1           0        6.874497   -0.584362   -0.467393
     69          1           0        4.612925    1.376487    0.218818
     70          1           0        6.234933    1.481353    0.907577
     71          1           0        5.005235    0.421503    1.723905
     72          1           0        3.380016    6.149724   -0.982444
     73          1           0        4.187499    4.735160   -0.953765
     74          1           0       -0.050274    6.547777   -1.804772
     75          1           0        1.445484    7.183293   -1.027354
     76          1           0       -0.279362    6.766322   -0.249313
     77          1           0        3.540291    6.632715    1.465738
     78          1           0        5.203390    6.045674    0.887689
     79          1           0        3.879245    4.730659    1.695291
     80          1           0       -3.828462   -4.625341   -1.791046
     81          1           0       -7.725558   -2.101828   -1.873081
 ---------------------------------------------------------------------

 SCF Done:  E(RB3LYP) =  -1949.04832624     A.U. after   17 cycles

 Excitation energies and oscillator strengths:

 Excited State   1:      Singlet-A      1.4558 eV  851.67 nm  f=0.1878  <S**2>=0.000
     156 ->157         0.70990
     156 <-157        -0.10547
 This state for optimization and/or second-order correction.
 Total Energy, E(TD-HF/TD-DFT) =  -1948.99482757
 Copying the excited state density for this state as the 1-particle RhoCI density.

 The electronic state is 1-A.
 Alpha  occ. eigenvalues --  -19.22771 -19.17228 -19.13052 -19.11114 -19.11068
 Alpha  occ. eigenvalues --  -19.09917 -14.36652 -14.36065 -14.35369 -14.28313
 Alpha  occ. eigenvalues --  -10.33764 -10.31856 -10.27713 -10.26010 -10.24593
 Alpha  occ. eigenvalues --  -10.24283 -10.23042 -10.23008 -10.22983 -10.22976
 Alpha  occ. eigenvalues --  -10.22966 -10.22580 -10.22049 -10.21706 -10.21371
 Alpha  occ. eigenvalues --  -10.21211 -10.20621 -10.20480 -10.20228 -10.19969
 Alpha  occ. eigenvalues --  -10.19878 -10.19766 -10.19735 -10.19173 -10.19106
 Alpha  occ. eigenvalues --  -10.19076 -10.18831 -10.18827 -10.18408 -10.18021
 Alpha  occ. eigenvalues --  -10.17868 -10.17327 -10.17177  -1.13339  -1.07514
 Alpha  occ. eigenvalues --   -1.07173  -1.00036  -0.99647  -0.98592  -0.96544
 Alpha  occ. eigenvalues --   -0.96077  -0.93720  -0.91470  -0.82971  -0.82053
 Alpha  occ. eigenvalues --   -0.81343  -0.80637  -0.80245  -0.79464  -0.78133
 Alpha  occ. eigenvalues --   -0.76852  -0.76388  -0.75394  -0.74145  -0.71996
 Alpha  occ. eigenvalues --   -0.71667  -0.69837  -0.68875  -0.68692  -0.67826
 Alpha  occ. eigenvalues --   -0.67212  -0.66075  -0.64569  -0.62136  -0.61593
 Alpha  occ. eigenvalues --   -0.61088  -0.59922  -0.58995  -0.57198  -0.56471
 Alpha  occ. eigenvalues --   -0.55659  -0.55462  -0.54837  -0.53499  -0.53268
 Alpha  occ. eigenvalues --   -0.52258  -0.51813  -0.50717  -0.50174  -0.49939
 Alpha  occ. eigenvalues --   -0.49584  -0.49089  -0.48600  -0.48273  -0.47530
 Alpha  occ. eigenvalues --   -0.47430  -0.46359  -0.46075  -0.45768  -0.45312
 Alpha  occ. eigenvalues --   -0.44868  -0.44461  -0.44203  -0.43916  -0.43463
 Alpha  occ. eigenvalues --   -0.43296  -0.43197  -0.43023  -0.42543  -0.42149
 Alpha  occ. eigenvalues --   -0.41809  -0.41517  -0.41298  -0.41235  -0.40966
 Alpha  occ. eigenvalues --   -0.40333  -0.40057  -0.39674  -0.39447  -0.39314
 Alpha  occ. eigenvalues --   -0.38961  -0.38727  -0.38597  -0.38440  -0.37925
 Alpha  occ. eigenvalues --   -0.37763  -0.37434  -0.37098  -0.36915  -0.36775
 Alpha  occ. eigenvalues --   -0.36341  -0.35735  -0.35245  -0.34834  -0.33958
 Alpha  occ. eigenvalues --   -0.33872  -0.33359  -0.33079  -0.32792  -0.32649
 Alpha  occ. eigenvalues --   -0.32396  -0.32253  -0.30153  -0.29523  -0.28586
 Alpha  occ. eigenvalues --   -0.27445  -0.26629  -0.26111  -0.25899  -0.25500
 Alpha  occ. eigenvalues --   -0.24999  -0.24578  -0.24090  -0.23186  -0.21195
 Alpha  occ. eigenvalues --   -0.17105
 Alpha virt. eigenvalues --   -0.10914  -0.05298  -0.03567  -0.02130  -0.01245
 Alpha virt. eigenvalues --   -0.00275   0.02071   0.02699   0.03013   0.04032
 Alpha virt. eigenvalues --    0.04344   0.04576   0.05705   0.05816   0.06159

 Mulliken charges:
               1
     1  O   -0.127803
     2  O   -0.144266
     3  O   -0.218237
     4  O   -0.302590
     5  O   -0.310758
     6  O   -0.267182
     7  N   -0.099029
     8  N   -0.003921
     9  N   -0.167469
    10  N   -0.334973
    11  C   -0.079794
    12  C   -0.008540
    13  C   -0.189613
    14  C    0.144832
    15  C   -0.047325
    16  C    0.155754
    17  C   -0.059374
    18  C   -0.095467
    19  C    0.030943
    20  C   -0.075056
    21  C    0.027785
    22  C    0.131654
    23  C    0.007110
    24  C   -0.012064
    25  C   -0.088317
    26  C    0.156259
    27  C    0.055435
    28  C   -0.028514
    29  C   -0.014690
    30  C    0.109545
    31  C   -0.094642
    32  C    0.077051
    33  C   -0.120340
    34  C    0.040120
    35  C   -0.081903
    36  C   -0.249676
    37  C    0.127479
    38  C    0.059866
    39  C    0.133006
    40  C    0.213147
    41  C    0.179927
    42  C    0.170202
    43  C   -0.078487
    44  H    0.152568
    45  H   -0.000699
    46  H    0.041090
    47  H    0.026510
    48  H    0.035032
    49  H    0.061221
    50  H    0.045006
    51  H   -0.030064
    52  H    0.093453
    53  H   -0.039868
    54  H    0.040492
    55  H    0.004207
    56  H    0.143028
    57  H    0.049532
    58  H    0.038401
    59  H    0.083306
    60  H    0.068618
    61  H    0.029272
    62  H    0.036270
    63  H    0.000943
    64  H   -0.059528
    65  H   -0.019869
    66  H    0.058494
    67  H    0.012571
    68  H   -0.052560
    69  H    0.100301
    70  H   -0.018757
    71  H    0.040280
    72  H   -0.051399
    73  H   -0.001948
    74  H   -0.009889
    75  H    0.037300
    76  H    0.007850
    77  H    0.022638
    78  H    0.026509
    79  H    0.058072
    80  H    0.261973
    81  H    0.189561
 Sum of Mulliken charges =  -0.00000

 Dipole moment (field-independent basis, Debye):
    X=             -2.9382    Y=              0.3540    Z=             -2.3806  Tot=              3.7982
 Quadrupole moment (field-independent basis, Debye-Ang):
   XX=           -260.1228   YY=           -225.0340   ZZ=           -252.5625
   XY=             17.5603   XZ=             15.4157   YZ=            -11.0158

 Normal termination of Gaussian 16 at Tue Jul  2 21:10:14 2019.
