 Gaussian 16, Revision A.03,
 Gaussian 16:  ES64L-G16RevA.03 25-Dec-2016

 --------------------------
 # td=(NStates=1) B3LYP/SVP
 --------------------------

 --
 TD
 --
 Symbolic Z-matrix:
 Charge =  0 Multiplicity = 1

                         Standard orientation:
 ---------------------------------------------------------------------
 Center     Atomic      Atomic             Coordinates (Angstroms)
 Number     Number       Type             X           Y           Z
 ---------------------------------------------------------------------
      1          8           0        3.977795   -4.939438   -1.856904
      2          8           0       -2.966541   -4.554262   -1.177363
      3          8           0       -6.799953   -1.505234   -1.904715
      4          8           0       -3.870048   -2.949955    0.126109
      5          8           0       -7.340852   -0.593121    0.124381
      6          8           0        3.097474    2.204842    0.424864
      7          7           0        0.220087   -0.490979    0.568694
      8          7           0       -1.554931    1.933910    0.460366
      9          7           0        3.149489   -3.157578   -0.802798
     10          7           0        0.841402    2.903643    0.089578
     11          6           0       -0.779325   -2.332404    1.413665
     12          6           0       -1.078851   -1.018432    0.905456
     13          6           0        0.617089   -2.526182    1.224400
     14          6           0        1.227171   -1.339536    0.726863
     15          6           0       -3.811868    1.653108    0.357110
     16          6           0       -2.531667    0.990288    0.608962
     17          6           0       -2.368561   -0.336158    0.902863
     18          6           0       -3.509748    2.981270   -0.141621
     19          6           0       -1.660034   -3.299019    2.036894
     20          6           0        5.318237   -2.935117   -1.392204
     21          6           0        3.456211   -1.901524   -0.219179
     22          6           0       -2.013865    3.086898   -0.029607
     23          6           0        4.912170   -1.736132   -0.541148
     24          6           0       -5.155104    0.941473    0.339194
     25          6           0        2.550737   -1.023780    0.379754
     26          6           0        1.269095   -3.785302    1.935247
     27          6           0        4.114406   -3.787815   -1.381907
     28          6           0       -2.154212   -4.456253    1.074842
     29          6           0       -5.224053   -0.010688   -0.886235
     30          6           0       -4.464064    3.999735   -0.581759
     31          6           0       -1.133751    4.110827   -0.405697
     32          6           0        6.577553   -3.587070   -1.100080
     33          6           0        5.715403   -0.809936    0.089612
     34          6           0        0.296626    4.068225   -0.321298
     35          6           0        1.250730    5.046646   -0.418250
     36          6           0        2.499531    4.518921   -0.256756
     37          6           0       -3.081720   -3.868715   -0.037233
     38          6           0        5.516349    0.387603    0.926616
     39          6           0       -6.595920   -0.722141   -0.772554
     40          6           0        3.900469    5.048868   -0.281398
     41          6           0        2.233386    3.057166    0.087226
     42          6           0        0.866134    6.452171   -0.896527
     43          6           0        4.536350    5.313125    1.159157
     44          1           0        0.411445    0.493536    0.227893
     45          1           0       -3.133274   -0.926729    1.129463
     46          1           0       -2.584992   -2.875850    2.432600
     47          1           0       -1.209664   -3.808589    2.798546
     48          1           0        5.222402   -2.542001   -2.421922
     49          1           0       -5.294262    0.560100    1.471287
     50          1           0       -5.988407    1.776121    0.212558
     51          1           0        3.005935   -0.082653    0.886529
     52          1           0       -0.521538    1.851297    0.645022
     53          1           0        1.387051   -4.569346    1.305052
     54          1           0        2.343682   -3.392165    2.135771
     55          1           0        0.702587   -3.922800    2.924256
     56          1           0        2.208308   -3.630524   -0.625780
     57          1           0       -1.411349   -5.145735    0.685831
     58          1           0       -2.644885   -5.240934    1.678838
     59          1           0       -4.405108   -0.672413   -0.855895
     60          1           0       -4.938156    0.441474   -1.925139
     61          1           0       -4.337316    5.031485   -0.000897
     62          1           0       -5.440244    3.607708   -0.584916
     63          1           0       -4.270864    4.158224   -1.682835
     64          1           0       -1.418023    5.057484   -1.235418
     65          1           0        7.502072   -2.940739   -1.301565
     66          1           0        6.562433   -4.566207   -1.672925
     67          1           0        6.608140   -3.753781   -0.020881
     68          1           0        6.768395   -0.903282   -0.270664
     69          1           0        5.097680    1.197646    0.246190
     70          1           0        6.518382    0.855341    1.282977
     71          1           0        4.669970    0.333664    1.662093
     72          1           0        3.816816    5.999758   -0.983960
     73          1           0        4.585422    4.422036   -0.858166
     74          1           0        0.325584    6.349261   -2.016498
     75          1           0        1.643141    7.162054   -1.375578
     76          1           0        0.464979    6.964879   -0.013267
     77          1           0        4.005450    6.066755    1.773189
     78          1           0        5.586337    5.711051    1.181589
     79          1           0        4.420621    4.319294    1.636078
     80          1           0       -3.700993   -4.435761   -1.782614
     81          1           0       -7.702506   -1.656008   -1.815151
 ---------------------------------------------------------------------

 SCF Done:  E(RB3LYP) =  -1949.14956427     A.U. after   17 cycles

 Excitation energies and oscillator strengths:

 Excited State   1:      Singlet-A      1.7204 eV  720.68 nm  f=0.2421  <S**2>=0.000
     156 ->157         0.70429
     156 <-157        -0.11735
 This state for optimization and/or second-order correction.
 Total Energy, E(TD-HF/TD-DFT) =  -1949.08634183
 Copying the excited state density for this state as the 1-particle RhoCI density.

 The electronic state is 1-A.
 Alpha  occ. eigenvalues --  -19.19720 -19.17760 -19.14330 -19.14313 -19.10582
 Alpha  occ. eigenvalues --  -19.08897 -14.37960 -14.37377 -14.36450 -14.28332
 Alpha  occ. eigenvalues --  -10.34034 -10.32552 -10.27579 -10.26381 -10.24775
 Alpha  occ. eigenvalues --  -10.24768 -10.23580 -10.23355 -10.23225 -10.22182
 Alpha  occ. eigenvalues --  -10.22051 -10.21898 -10.21074 -10.21051 -10.21012
 Alpha  occ. eigenvalues --  -10.21009 -10.20954 -10.20502 -10.20284 -10.20284
 Alpha  occ. eigenvalues --  -10.20180 -10.20146 -10.20045 -10.20039 -10.19951
 Alpha  occ. eigenvalues --  -10.19614 -10.19457 -10.19315 -10.19255 -10.19154
 Alpha  occ. eigenvalues --  -10.18976 -10.18697 -10.18658  -1.11149  -1.10832
 Alpha  occ. eigenvalues --   -1.03133  -1.02588  -1.01963  -0.99562  -0.98872
 Alpha  occ. eigenvalues --   -0.97669  -0.94241  -0.92172  -0.82737  -0.81985
 Alpha  occ. eigenvalues --   -0.81828  -0.80768  -0.78948  -0.78570  -0.76982
 Alpha  occ. eigenvalues --   -0.76804  -0.76294  -0.75196  -0.74009  -0.72039
 Alpha  occ. eigenvalues --   -0.70890  -0.69785  -0.69226  -0.68280  -0.67785
 Alpha  occ. eigenvalues --   -0.66693  -0.65939  -0.64809  -0.63104  -0.62809
 Alpha  occ. eigenvalues --   -0.61381  -0.59325  -0.59016  -0.57805  -0.56634
 Alpha  occ. eigenvalues --   -0.55929  -0.55213  -0.55004  -0.53349  -0.52716
 Alpha  occ. eigenvalues --   -0.52241  -0.52094  -0.51674  -0.50302  -0.49986
 Alpha  occ. eigenvalues --   -0.49481  -0.49320  -0.48789  -0.48361  -0.47628
 Alpha  occ. eigenvalues --   -0.47331  -0.46929  -0.46236  -0.46103  -0.45434
 Alpha  occ. eigenvalues --   -0.44611  -0.44564  -0.44288  -0.43462  -0.43291
 Alpha  occ. eigenvalues --   -0.43108  -0.42659  -0.42577  -0.42316  -0.42229
 Alpha  occ. eigenvalues --   -0.41976  -0.41746  -0.41440  -0.41224  -0.40992
 Alpha  occ. eigenvalues --   -0.40825  -0.40485  -0.40248  -0.39713  -0.39470
 Alpha  occ. eigenvalues --   -0.39272  -0.38997  -0.38919  -0.38363  -0.37917
 Alpha  occ. eigenvalues --   -0.37420  -0.37289  -0.36981  -0.36744  -0.36299
 Alpha  occ. eigenvalues --   -0.36016  -0.35397  -0.35184  -0.34768  -0.34257
 Alpha  occ. eigenvalues --   -0.33931  -0.33633  -0.33497  -0.33235  -0.32914
 Alpha  occ. eigenvalues --   -0.32722  -0.32554  -0.32260  -0.30393  -0.29829
 Alpha  occ. eigenvalues --   -0.29637  -0.27548  -0.25786  -0.25179  -0.24794
 Alpha  occ. eigenvalues --   -0.24602  -0.24148  -0.23632  -0.22979  -0.21494
 Alpha  occ. eigenvalues --   -0.17898
 Alpha virt. eigenvalues --   -0.10858  -0.06405  -0.04100  -0.01897   0.00030
 Alpha virt. eigenvalues --    0.01458   0.02196   0.03111   0.03487   0.03944
 Alpha virt. eigenvalues --    0.04595   0.04813   0.05143   0.06370   0.06512

 Mulliken charges:
               1
     1  O   -0.270470
     2  O   -0.158507
     3  O   -0.182386
     4  O   -0.231976
     5  O   -0.173086
     6  O   -0.260275
     7  N   -0.102681
     8  N   -0.043883
     9  N   -0.062165
    10  N   -0.343012
    11  C   -0.078981
    12  C    0.034524
    13  C   -0.222416
    14  C    0.069275
    15  C   -0.110280
    16  C    0.106826
    17  C    0.026813
    18  C   -0.142687
    19  C    0.181399
    20  C    0.043848
    21  C    0.063834
    22  C    0.104064
    23  C   -0.075720
    24  C    0.025067
    25  C   -0.111020
    26  C    0.077460
    27  C    0.015507
    28  C   -0.010261
    29  C   -0.004895
    30  C    0.118137
    31  C   -0.147130
    32  C    0.057197
    33  C   -0.156152
    34  C    0.034805
    35  C   -0.069092
    36  C   -0.155662
    37  C    0.151949
    38  C    0.048348
    39  C    0.169816
    40  C    0.057635
    41  C    0.175670
    42  C    0.000256
    43  C   -0.016992
    44  H    0.145686
    45  H   -0.063666
    46  H    0.010320
    47  H   -0.047489
    48  H    0.037361
    49  H    0.062346
    50  H    0.028467
    51  H    0.065397
    52  H    0.145405
    53  H    0.001763
    54  H    0.030843
    55  H    0.050028
    56  H    0.151928
    57  H    0.010419
    58  H    0.033838
    59  H    0.021521
    60  H    0.045061
    61  H    0.054808
    62  H   -0.015103
    63  H    0.021016
    64  H    0.035459
    65  H    0.026407
    66  H    0.048774
    67  H    0.007879
    68  H   -0.006336
    69  H    0.073692
    70  H    0.024962
    71  H    0.044887
    72  H    0.000699
    73  H    0.014887
    74  H    0.048659
    75  H    0.019498
    76  H    0.043932
    77  H    0.011905
    78  H    0.021924
    79  H    0.036656
    80  H    0.185697
    81  H    0.137769
 Sum of Mulliken charges =  -0.00000

 Dipole moment (field-independent basis, Debye):
    X=             -3.2612    Y=              1.2243    Z=             -0.4047  Tot=              3.5068
 Quadrupole moment (field-independent basis, Debye-Ang):
   XX=           -245.3094   YY=           -246.9677   ZZ=           -252.3493
   XY=             21.6255   XZ=             16.0030   YZ=            -16.5918

 Normal termination of Gaussian 16 at Sun Jun 30 09:58:33 2019.
