 Gaussian 16, Revision A.03,
 Gaussian 16:  ES64L-G16RevA.03 25-Dec-2016

 --------------------------
 # td=(NStates=1) B3LYP/SVP
 --------------------------

 --
 TD
 --
 Symbolic Z-matrix:
 Charge =  0 Multiplicity = 1

                         Standard orientation:
 ---------------------------------------------------------------------
 Center     Atomic      Atomic             Coordinates (Angstroms)
 Number     Number       Type             X           Y           Z
 ---------------------------------------------------------------------
      1          8           0       -3.882865   -4.874721    1.962600
      2          8           0        3.097917   -4.640319    1.075560
      3          8           0        6.973221   -1.331568    1.928529
      4          8           0        4.022739   -2.976836   -0.320094
      5          8           0        7.562373   -0.252313    0.003138
      6          8           0       -3.165072    2.271002   -0.579663
      7          7           0       -0.284510   -0.484083   -0.733610
      8          7           0        1.509382    1.829437   -0.264074
      9          7           0       -3.148806   -3.079597    0.760079
     10          7           0       -0.933058    2.838611   -0.318333
     11          6           0        0.726654   -2.451303   -1.446873
     12          6           0        0.959505   -1.075690   -1.003961
     13          6           0       -0.693978   -2.553680   -1.325150
     14          6           0       -1.277923   -1.405623   -0.794021
     15          6           0        3.729387    1.574446   -0.239211
     16          6           0        2.447483    0.927276   -0.708027
     17          6           0        2.242516   -0.469613   -0.973412
     18          6           0        3.398751    2.897622    0.219888
     19          6           0        1.728541   -3.362954   -2.124657
     20          6           0       -5.228800   -2.905510    1.539478
     21          6           0       -3.427418   -1.911864    0.228767
     22          6           0        1.978780    3.014724    0.144983
     23          6           0       -4.925268   -1.752253    0.504776
     24          6           0        4.966817    0.955809   -0.306051
     25          6           0       -2.559926   -1.014615   -0.404827
     26          6           0       -1.475355   -3.806382   -1.686232
     27          6           0       -4.043542   -3.761547    1.485520
     28          6           0        2.192685   -4.406419   -1.130444
     29          6           0        5.384739    0.090192    0.841227
     30          6           0        4.335939    3.987884    0.594111
     31          6           0        1.069010    4.135522    0.376323
     32          6           0       -6.526711   -3.700886    1.252170
     33          6           0       -5.772584   -0.834266    0.062929
     34          6           0       -0.293952    3.962179    0.117675
     35          6           0       -1.269463    4.990883    0.555082
     36          6           0       -2.465009    4.416998    0.176797
     37          6           0        3.148542   -3.868528   -0.072465
     38          6           0       -5.487615    0.298611   -0.895529
     39          6           0        6.763977   -0.498428    0.865935
     40          6           0       -3.825646    5.136160    0.183996
     41          6           0       -2.310498    3.137159   -0.248172
     42          6           0       -0.997487    6.402122    1.104513
     43          6           0       -4.438765    5.475744   -1.113087
     44          1           0       -0.200375    0.401249   -0.124345
     45          1           0        3.156981   -1.001381   -1.205952
     46          1           0        2.407283   -2.921992   -2.643195
     47          1           0        1.172485   -3.794736   -3.149920
     48          1           0       -5.322098   -2.570302    2.432382
     49          1           0        5.047789    0.349805   -1.143530
     50          1           0        5.760775    1.809929   -0.683430
     51          1           0       -2.828061    0.020400   -0.493975
     52          1           0        0.362315    1.818251   -0.459501
     53          1           0       -1.109914   -4.585370   -0.913273
     54          1           0       -2.759144   -3.726202   -1.479906
     55          1           0       -1.468470   -4.162297   -2.735892
     56          1           0       -2.181897   -3.496629    0.815248
     57          1           0        1.238569   -4.895456   -0.715005
     58          1           0        2.953511   -5.163881   -1.460667
     59          1           0        4.561708   -0.677501    1.042006
     60          1           0        5.383159    0.543753    1.867693
     61          1           0        3.788619    4.898776    0.430849
     62          1           0        5.550825    3.871667    0.263997
     63          1           0        4.124889    4.173247    1.722535
     64          1           0        1.437572    4.973276    0.926503
     65          1           0       -7.367806   -3.013517    1.286321
     66          1           0       -6.588124   -4.477873    1.902586
     67          1           0       -6.565110   -4.219864    0.308326
     68          1           0       -6.841393   -0.865661    0.298391
     69          1           0       -4.639197    1.262076   -0.710255
     70          1           0       -6.543369    0.866276   -1.170460
     71          1           0       -4.803282   -0.155534   -1.752368
     72          1           0       -3.844552    6.280742    0.505011
     73          1           0       -4.622040    4.687388    0.940326
     74          1           0       -0.268890    6.226916    2.075811
     75          1           0       -1.831478    6.988552    1.232700
     76          1           0       -0.339913    6.986656    0.400348
     77          1           0       -3.709369    6.129775   -1.702712
     78          1           0       -5.391388    6.087716   -1.040744
     79          1           0       -4.584545    4.546508   -1.717869
     80          1           0        3.866250   -4.512454    1.648156
     81          1           0        7.809803   -1.717456    1.842488
 ---------------------------------------------------------------------

 SCF Done:  E(RB3LYP) =  -1949.05595101     A.U. after   19 cycles

 Excitation energies and oscillator strengths:

 Excited State   1:      Singlet-A      1.7128 eV  723.85 nm  f=0.2914  <S**2>=0.000
     156 ->157         0.70532
     156 <-157        -0.11661
 This state for optimization and/or second-order correction.
 Total Energy, E(TD-HF/TD-DFT) =  -1948.99300557
 Copying the excited state density for this state as the 1-particle RhoCI density.

 The electronic state is 1-A.
 Alpha  occ. eigenvalues --  -19.20518 -19.18199 -19.15012 -19.12648 -19.11379
 Alpha  occ. eigenvalues --  -19.09653 -14.38417 -14.38222 -14.35754 -14.28626
 Alpha  occ. eigenvalues --  -10.35217 -10.32091 -10.28974 -10.25644 -10.25345
 Alpha  occ. eigenvalues --  -10.23939 -10.23928 -10.23738 -10.23668 -10.23323
 Alpha  occ. eigenvalues --  -10.22468 -10.22310 -10.22084 -10.22067 -10.21629
 Alpha  occ. eigenvalues --  -10.21279 -10.20887 -10.20699 -10.20585 -10.20567
 Alpha  occ. eigenvalues --  -10.20129 -10.19956 -10.19883 -10.19844 -10.19535
 Alpha  occ. eigenvalues --  -10.19525 -10.19451 -10.19157 -10.19080 -10.18641
 Alpha  occ. eigenvalues --  -10.18157 -10.17714 -10.17602  -1.09905  -1.09432
 Alpha  occ. eigenvalues --   -1.04921  -1.01548  -1.00610  -0.99589  -0.98862
 Alpha  occ. eigenvalues --   -0.97884  -0.97306  -0.91225  -0.83240  -0.82613
 Alpha  occ. eigenvalues --   -0.81746  -0.81360  -0.79403  -0.78939  -0.78430
 Alpha  occ. eigenvalues --   -0.77235  -0.76567  -0.75194  -0.74280  -0.72718
 Alpha  occ. eigenvalues --   -0.71676  -0.70021  -0.69616  -0.68957  -0.68693
 Alpha  occ. eigenvalues --   -0.67265  -0.66515  -0.64039  -0.62648  -0.61876
 Alpha  occ. eigenvalues --   -0.61134  -0.60422  -0.59847  -0.58777  -0.57389
 Alpha  occ. eigenvalues --   -0.56463  -0.56204  -0.54975  -0.53268  -0.53165
 Alpha  occ. eigenvalues --   -0.52125  -0.52013  -0.51372  -0.50196  -0.50042
 Alpha  occ. eigenvalues --   -0.49800  -0.49004  -0.48473  -0.48149  -0.47934
 Alpha  occ. eigenvalues --   -0.47036  -0.46853  -0.46519  -0.45990  -0.45449
 Alpha  occ. eigenvalues --   -0.45166  -0.44725  -0.44422  -0.44199  -0.43879
 Alpha  occ. eigenvalues --   -0.43658  -0.43287  -0.42863  -0.42495  -0.42118
 Alpha  occ. eigenvalues --   -0.41951  -0.41856  -0.41549  -0.41363  -0.41015
 Alpha  occ. eigenvalues --   -0.40787  -0.40508  -0.40185  -0.39784  -0.39656
 Alpha  occ. eigenvalues --   -0.39403  -0.39032  -0.38710  -0.38357  -0.38208
 Alpha  occ. eigenvalues --   -0.37934  -0.37794  -0.37468  -0.37196  -0.36747
 Alpha  occ. eigenvalues --   -0.36333  -0.35768  -0.35591  -0.35033  -0.34035
 Alpha  occ. eigenvalues --   -0.33781  -0.33026  -0.32943  -0.32688  -0.32301
 Alpha  occ. eigenvalues --   -0.32026  -0.31774  -0.30262  -0.29810  -0.29765
 Alpha  occ. eigenvalues --   -0.28056  -0.27358  -0.26827  -0.26343  -0.25930
 Alpha  occ. eigenvalues --   -0.24729  -0.24129  -0.23498  -0.23321  -0.21455
 Alpha  occ. eigenvalues --   -0.18030
 Alpha virt. eigenvalues --   -0.11008  -0.06761  -0.04205  -0.03216   0.00284
 Alpha virt. eigenvalues --    0.00659   0.01070   0.02260   0.03273   0.03379
 Alpha virt. eigenvalues --    0.04100   0.04584   0.04834   0.04991   0.05848

 Mulliken charges:
               1
     1  O   -0.216724
     2  O   -0.201074
     3  O   -0.173521
     4  O   -0.280251
     5  O   -0.210856
     6  O   -0.269735
     7  N   -0.086245
     8  N   -0.168756
     9  N   -0.031975
    10  N   -0.333570
    11  C   -0.104928
    12  C    0.045777
    13  C   -0.156122
    14  C    0.135012
    15  C   -0.132958
    16  C    0.070047
    17  C   -0.028661
    18  C   -0.145098
    19  C    0.167938
    20  C    0.016697
    21  C    0.066176
    22  C    0.068779
    23  C    0.016456
    24  C    0.115410
    25  C   -0.092348
    26  C   -0.059102
    27  C    0.073557
    28  C    0.019872
    29  C   -0.016012
    30  C    0.122080
    31  C   -0.096169
    32  C    0.100401
    33  C   -0.115618
    34  C    0.107558
    35  C   -0.113993
    36  C   -0.088071
    37  C    0.173057
    38  C   -0.149923
    39  C    0.136448
    40  C   -0.009045
    41  C    0.176279
    42  C    0.104665
    43  C   -0.022193
    44  H    0.160923
    45  H    0.020852
    46  H   -0.050681
    47  H    0.031350
    48  H   -0.020825
    49  H   -0.017623
    50  H    0.026128
    51  H    0.001805
    52  H    0.207168
    53  H    0.044855
    54  H    0.058643
    55  H    0.045004
    56  H    0.144441
    57  H    0.054182
    58  H    0.059574
    59  H    0.043849
    60  H    0.023213
    61  H   -0.016989
    62  H    0.076366
    63  H    0.002684
    64  H   -0.035500
    65  H    0.012985
    66  H   -0.002084
    67  H   -0.004426
    68  H   -0.004484
    69  H    0.151957
    70  H    0.028930
    71  H    0.043639
    72  H   -0.002777
    73  H    0.028390
    74  H    0.044810
    75  H    0.000395
    76  H    0.031818
    77  H    0.005919
    78  H    0.019662
    79  H    0.024758
    80  H    0.192391
    81  H    0.155437
 Sum of Mulliken charges =  -0.00000

 Dipole moment (field-independent basis, Debye):
    X=              3.0433    Y=             -1.0479    Z=              1.7399  Tot=              3.6588
 Quadrupole moment (field-independent basis, Debye-Ang):
   XX=           -256.2644   YY=           -235.5786   ZZ=           -254.9511
   XY=            -17.6512   XZ=             11.4615   YZ=             15.4448

 Normal termination of Gaussian 16 at Tue Jul  2 10:09:31 2019.
