 Gaussian 16, Revision A.03,
 Gaussian 16:  ES64L-G16RevA.03 25-Dec-2016

 --------------------------
 # td=(NStates=1) B3LYP/SVP
 --------------------------

 --
 TD
 --
 Symbolic Z-matrix:
 Charge =  0 Multiplicity = 1

                         Standard orientation:
 ---------------------------------------------------------------------
 Center     Atomic      Atomic             Coordinates (Angstroms)
 Number     Number       Type             X           Y           Z
 ---------------------------------------------------------------------
      1          8           0        4.578788   -4.969592   -1.649217
      2          8           0       -2.949800   -4.794186   -1.236486
      3          8           0       -6.977944   -1.616876   -1.889121
      4          8           0       -3.679563   -3.082888   -0.038352
      5          8           0       -7.420522   -0.770636    0.280365
      6          8           0        2.880269    2.490784    0.320493
      7          7           0        0.295308   -0.579445    0.584588
      8          7           0       -1.504221    1.886167    0.485506
      9          7           0        3.395616   -3.116336   -0.599072
     10          7           0        0.725440    2.994577    0.142046
     11          6           0       -0.640547   -2.531899    1.380838
     12          6           0       -0.926082   -1.159550    0.917103
     13          6           0        0.717496   -2.743638    1.211252
     14          6           0        1.310357   -1.561005    0.706099
     15          6           0       -3.783077    1.497632    0.307162
     16          6           0       -2.404475    0.849064    0.676516
     17          6           0       -2.206473   -0.517052    0.938968
     18          6           0       -3.537216    2.748740   -0.140149
     19          6           0       -1.605355   -3.511389    1.905066
     20          6           0        5.563227   -2.723162   -1.361192
     21          6           0        3.640803   -1.868323   -0.194824
     22          6           0       -2.181229    3.051576    0.012633
     23          6           0        5.034124   -1.516737   -0.472154
     24          6           0       -5.098862    0.790448    0.328353
     25          6           0        2.640465   -1.086487    0.453089
     26          6           0        1.440688   -3.940912    1.565085
     27          6           0        4.510219   -3.845319   -1.270661
     28          6           0       -2.147416   -4.619999    0.996256
     29          6           0       -5.398094   -0.093988   -0.925223
     30          6           0       -4.592342    3.750685   -0.565735
     31          6           0       -1.363723    4.083978   -0.324456
     32          6           0        6.928239   -3.157365   -0.870692
     33          6           0        5.789166   -0.451972   -0.105727
     34          6           0        0.034112    4.072217   -0.206143
     35          6           0        0.886202    5.242580   -0.447691
     36          6           0        2.190644    4.795128   -0.231980
     37          6           0       -2.999535   -4.016719   -0.135331
     38          6           0        5.355964    0.690845    0.844650
     39          6           0       -6.674263   -0.787162   -0.684492
     40          6           0        3.551077    5.458012   -0.302468
     41          6           0        2.038427    3.371913    0.074491
     42          6           0        0.590625    6.579033   -0.915403
     43          6           0        4.092553    5.770348    1.150072
     44          1           0        0.578034    0.281877    0.396359
     45          1           0       -3.070193   -1.147527    1.128081
     46          1           0       -2.639359   -3.198937    2.217723
     47          1           0       -0.967235   -4.019533    2.815435
     48          1           0        5.647739   -2.359525   -2.438961
     49          1           0       -5.197421    0.241014    1.261083
     50          1           0       -5.817984    1.688745    0.241547
     51          1           0        2.775180   -0.185125    0.679856
     52          1           0       -0.454925    1.858349    0.824540
     53          1           0        1.582615   -4.776948    0.681137
     54          1           0        2.487060   -3.761961    1.754547
     55          1           0        1.338723   -4.427002    2.589409
     56          1           0        2.567202   -3.635540   -0.765172
     57          1           0       -1.399722   -5.163255    0.283639
     58          1           0       -2.791501   -5.478652    1.528382
     59          1           0       -4.465354   -0.847931   -1.241940
     60          1           0       -5.359825    0.498768   -1.823141
     61          1           0       -4.330529    4.770129    0.029522
     62          1           0       -5.607920    3.344045   -0.313135
     63          1           0       -4.416254    3.986282   -1.562542
     64          1           0       -1.898380    5.091367   -0.645602
     65          1           0        7.625182   -2.554027   -1.041386
     66          1           0        7.180941   -4.087730   -1.560279
     67          1           0        7.114568   -3.368218    0.174633
     68          1           0        6.711986   -0.407521   -0.708387
     69          1           0        4.547135    1.312471    0.367333
     70          1           0        6.414379    1.133782    1.036590
     71          1           0        4.914230    0.078536    1.847921
     72          1           0        3.575178    6.614992   -0.968436
     73          1           0        4.265748    4.928181   -0.915150
     74          1           0        0.333800    6.637150   -2.268486
     75          1           0        1.526364    7.362636   -0.723703
     76          1           0       -0.387859    6.998048   -0.445262
     77          1           0        3.399236    6.377123    1.867686
     78          1           0        5.108829    6.159768    0.895956
     79          1           0        4.252575    4.589434    1.592502
     80          1           0       -3.588596   -4.417016   -1.780505
     81          1           0       -7.922664   -2.180954   -1.484609
 ---------------------------------------------------------------------

 SCF Done:  E(RB3LYP) =  -1949.01638202     A.U. after   23 cycles

 Excitation energies and oscillator strengths:

 Excited State   1:      Singlet-A      1.6437 eV  754.31 nm  f=0.3468  <S**2>=0.000
     156 ->157         0.71268
     156 <-157        -0.14141
 This state for optimization and/or second-order correction.
 Total Energy, E(TD-HF/TD-DFT) =  -1948.95597775
 Copying the excited state density for this state as the 1-particle RhoCI density.

 The electronic state is 1-A.
 Alpha  occ. eigenvalues --  -19.18950 -19.17375 -19.14854 -19.14671 -19.14253
 Alpha  occ. eigenvalues --  -19.09532 -14.37161 -14.37067 -14.35833 -14.28199
 Alpha  occ. eigenvalues --  -10.32989 -10.32791 -10.30981 -10.25626 -10.24881
 Alpha  occ. eigenvalues --  -10.23689 -10.23631 -10.23611 -10.23295 -10.22801
 Alpha  occ. eigenvalues --  -10.22550 -10.22449 -10.22311 -10.22049 -10.21376
 Alpha  occ. eigenvalues --  -10.21301 -10.21128 -10.21019 -10.20825 -10.20704
 Alpha  occ. eigenvalues --  -10.20422 -10.20277 -10.20253 -10.20225 -10.20016
 Alpha  occ. eigenvalues --  -10.19948 -10.19735 -10.19666 -10.19386 -10.19228
 Alpha  occ. eigenvalues --  -10.19186 -10.17689 -10.17634  -1.13295  -1.06334
 Alpha  occ. eigenvalues --   -1.06241  -1.04509  -1.00544  -0.97667  -0.96504
 Alpha  occ. eigenvalues --   -0.96271  -0.95783  -0.92026  -0.82946  -0.82262
 Alpha  occ. eigenvalues --   -0.81179  -0.80919  -0.79463  -0.79057  -0.77959
 Alpha  occ. eigenvalues --   -0.77304  -0.76261  -0.74512  -0.73742  -0.72058
 Alpha  occ. eigenvalues --   -0.70914  -0.69806  -0.69143  -0.68774  -0.67479
 Alpha  occ. eigenvalues --   -0.67103  -0.65130  -0.63969  -0.62754  -0.61772
 Alpha  occ. eigenvalues --   -0.60113  -0.58593  -0.57591  -0.57251  -0.55974
 Alpha  occ. eigenvalues --   -0.55174  -0.54914  -0.54658  -0.53419  -0.53063
 Alpha  occ. eigenvalues --   -0.52108  -0.51299  -0.50696  -0.50630  -0.49592
 Alpha  occ. eigenvalues --   -0.49320  -0.49024  -0.48823  -0.47855  -0.47475
 Alpha  occ. eigenvalues --   -0.47217  -0.47016  -0.46329  -0.45342  -0.45166
 Alpha  occ. eigenvalues --   -0.45039  -0.44852  -0.44379  -0.44096  -0.43838
 Alpha  occ. eigenvalues --   -0.43492  -0.43124  -0.42774  -0.42543  -0.41970
 Alpha  occ. eigenvalues --   -0.41830  -0.41633  -0.41148  -0.40844  -0.40508
 Alpha  occ. eigenvalues --   -0.40284  -0.40083  -0.39718  -0.39413  -0.39261
 Alpha  occ. eigenvalues --   -0.39091  -0.38631  -0.38368  -0.38058  -0.37732
 Alpha  occ. eigenvalues --   -0.37588  -0.37509  -0.37321  -0.37128  -0.36861
 Alpha  occ. eigenvalues --   -0.36502  -0.36328  -0.35783  -0.35246  -0.34903
 Alpha  occ. eigenvalues --   -0.34771  -0.34400  -0.34159  -0.33442  -0.32668
 Alpha  occ. eigenvalues --   -0.31873  -0.31249  -0.30517  -0.29697  -0.29438
 Alpha  occ. eigenvalues --   -0.29322  -0.27967  -0.27252  -0.26248  -0.25613
 Alpha  occ. eigenvalues --   -0.25510  -0.24960  -0.24103  -0.22873  -0.21336
 Alpha  occ. eigenvalues --   -0.17032
 Alpha virt. eigenvalues --   -0.10648  -0.06066  -0.04126  -0.02418  -0.01146
 Alpha virt. eigenvalues --   -0.00438   0.00789   0.01371   0.02547   0.02812
 Alpha virt. eigenvalues --    0.03722   0.04081   0.05005   0.05309   0.06079

 Mulliken charges:
               1
     1  O   -0.152088
     2  O   -0.140204
     3  O   -0.365195
     4  O   -0.172205
     5  O   -0.214795
     6  O   -0.227387
     7  N   -0.047778
     8  N   -0.180994
     9  N   -0.150648
    10  N   -0.248790
    11  C   -0.085273
    12  C    0.066938
    13  C   -0.086304
    14  C    0.073766
    15  C   -0.135581
    16  C    0.092820
    17  C   -0.041816
    18  C   -0.122688
    19  C    0.058113
    20  C   -0.115689
    21  C    0.111637
    22  C    0.148722
    23  C   -0.021643
    24  C    0.090679
    25  C    0.004499
    26  C    0.012351
    27  C    0.176816
    28  C   -0.065448
    29  C   -0.039648
    30  C    0.107088
    31  C   -0.181809
    32  C    0.129546
    33  C   -0.157905
    34  C    0.100095
    35  C   -0.051751
    36  C   -0.108727
    37  C    0.091700
    38  C   -0.013610
    39  C    0.234923
    40  C   -0.018870
    41  C    0.127302
    42  C   -0.072936
    43  C   -0.068187
    44  H    0.071659
    45  H    0.003858
    46  H    0.027503
    47  H    0.039115
    48  H    0.055291
    49  H    0.033046
    50  H    0.018848
    51  H   -0.132965
    52  H    0.193298
    53  H    0.030980
    54  H    0.000523
    55  H    0.028665
    56  H    0.125081
    57  H    0.041128
    58  H    0.073230
    59  H    0.090573
    60  H    0.030807
    61  H    0.040412
    62  H    0.029392
    63  H    0.010766
    64  H   -0.006711
    65  H   -0.065015
    66  H    0.025832
    67  H    0.009771
    68  H   -0.004631
    69  H    0.115920
    70  H    0.032160
    71  H    0.050459
    72  H    0.002254
    73  H    0.024041
    74  H    0.045784
    75  H    0.060528
    76  H    0.039564
    77  H    0.052520
    78  H    0.028837
    79  H    0.055480
    80  H    0.146092
    81  H    0.236876
 Sum of Mulliken charges =  -0.00000

 Dipole moment (field-independent basis, Debye):
    X=             -1.6243    Y=              0.1550    Z=             -0.8868  Tot=              1.8571
 Quadrupole moment (field-independent basis, Debye-Ang):
   XX=           -249.7245   YY=           -244.6200   ZZ=           -255.9208
   XY=             10.8128   XZ=              6.3013   YZ=            -10.6971

 Normal termination of Gaussian 16 at Wed Jul  3 16:24:05 2019.
