 Gaussian 16, Revision A.03,
 Gaussian 16:  ES64L-G16RevA.03 25-Dec-2016

 --------------------------
 # td=(NStates=1) B3LYP/SVP
 --------------------------

 --
 TD
 --
 Symbolic Z-matrix:
 Charge =  0 Multiplicity = 1

                         Standard orientation:
 ---------------------------------------------------------------------
 Center     Atomic      Atomic             Coordinates (Angstroms)
 Number     Number       Type             X           Y           Z
 ---------------------------------------------------------------------
      1          8           0        4.043042   -5.106902   -1.751029
      2          8           0       -3.192232   -4.865266   -1.102433
      3          8           0       -6.986988   -1.400307   -1.864839
      4          8           0       -3.854223   -2.991516   -0.041270
      5          8           0       -7.649960   -0.308231   -0.133011
      6          8           0        3.174538    2.242024    0.492495
      7          7           0        0.217326   -0.545767    0.689486
      8          7           0       -1.556942    2.025786    0.455062
      9          7           0        3.095442   -3.226556   -0.697564
     10          7           0        0.929140    2.898166    0.158232
     11          6           0       -0.759807   -2.439717    1.493258
     12          6           0       -1.007660   -1.068261    1.148540
     13          6           0        0.600114   -2.729243    1.346490
     14          6           0        1.225887   -1.557386    0.818116
     15          6           0       -3.717161    1.674236    0.377081
     16          6           0       -2.515020    1.025876    0.685074
     17          6           0       -2.256021   -0.285927    1.058988
     18          6           0       -3.433245    2.967818   -0.134922
     19          6           0       -1.732865   -3.376953    1.950278
     20          6           0        5.334083   -2.959989   -1.398835
     21          6           0        3.417173   -1.968881   -0.277461
     22          6           0       -2.035389    3.182865    0.045076
     23          6           0        4.836355   -1.784986   -0.547352
     24          6           0       -5.055522    0.981941    0.278706
     25          6           0        2.664432   -1.098691    0.523532
     26          6           0        1.347613   -3.926665    1.831638
     27          6           0        4.112951   -4.008996   -1.303966
     28          6           0       -2.289573   -4.462223    1.008927
     29          6           0       -5.367015    0.088456   -0.840866
     30          6           0       -4.304049    4.079311   -0.642636
     31          6           0       -1.147034    4.227707   -0.256483
     32          6           0        6.715487   -3.671242   -1.067948
     33          6           0        5.697364   -0.788148   -0.148946
     34          6           0        0.356142    4.090808   -0.143464
     35          6           0        1.240769    5.162346   -0.413720
     36          6           0        2.545209    4.575222   -0.268903
     37          6           0       -3.216952   -4.003298   -0.066194
     38          6           0        5.529665    0.385704    0.723848
     39          6           0       -6.749730   -0.480396   -0.893685
     40          6           0        3.913541    5.126086   -0.373787
     41          6           0        2.318076    3.151537    0.160407
     42          6           0        1.033698    6.584086   -0.938137
     43          6           0        4.499080    5.616058    0.935931
     44          1           0        0.348964    0.374530    0.348771
     45          1           0       -3.015536   -0.937067    1.318027
     46          1           0       -2.737454   -2.834629    2.018086
     47          1           0       -1.365905   -4.048852    2.921494
     48          1           0        5.391509   -2.513340   -2.503984
     49          1           0       -5.137208    0.686135    1.442239
     50          1           0       -5.892783    1.753911    0.236429
     51          1           0        3.154400   -0.072590    0.790476
     52          1           0       -0.386149    1.880184    0.765581
     53          1           0        1.292649   -4.664206    1.064682
     54          1           0        2.297335   -3.630967    2.259092
     55          1           0        0.915682   -4.320694    2.544985
     56          1           0        2.157009   -3.866161   -0.746212
     57          1           0       -1.420527   -5.022979    0.556705
     58          1           0       -2.892377   -5.347151    1.410521
     59          1           0       -4.510558   -0.780719   -0.773341
     60          1           0       -5.345157    0.557469   -1.753091
     61          1           0       -4.086031    5.121305   -0.040396
     62          1           0       -5.349111    3.961511   -0.754411
     63          1           0       -3.896898    4.647021   -1.729180
     64          1           0       -1.384707    5.233930   -0.665557
     65          1           0        7.552198   -3.306530   -1.160732
     66          1           0        6.815627   -4.540042   -2.017196
     67          1           0        6.522225   -4.194825   -0.111057
     68          1           0        6.702092   -0.960661   -0.382324
     69          1           0        4.903733    1.155300    0.040433
     70          1           0        6.493496    0.851832    1.025871
     71          1           0        4.877261    0.250335    1.442123
     72          1           0        4.203546    5.916895   -1.135942
     73          1           0        4.402064    4.299534   -0.937633
     74          1           0        0.470698    6.595538   -1.716259
     75          1           0        1.995125    7.133578   -1.159952
     76          1           0        0.663674    7.162539    0.023555
     77          1           0        3.832030    6.596350    1.349566
     78          1           0        5.549995    5.844862    0.785417
     79          1           0        4.653332    4.988055    1.743689
     80          1           0       -3.866772   -4.552432   -1.842139
     81          1           0       -7.779223   -1.891117   -1.705648
 ---------------------------------------------------------------------

 SCF Done:  E(RB3LYP) =  -1948.99225597     A.U. after   18 cycles

 Excitation energies and oscillator strengths:

 Excited State   1:      Singlet-A      1.5831 eV  783.19 nm  f=0.1962  <S**2>=0.000
     155 ->157        -0.13031
     156 ->157         0.69618
     156 <-157        -0.10725
 This state for optimization and/or second-order correction.
 Total Energy, E(TD-HF/TD-DFT) =  -1948.93407911
 Copying the excited state density for this state as the 1-particle RhoCI density.

 The electronic state is 1-A.
 Alpha  occ. eigenvalues --  -19.19915 -19.16331 -19.14493 -19.12710 -19.11724
 Alpha  occ. eigenvalues --  -19.10367 -14.37995 -14.37416 -14.35780 -14.29398
 Alpha  occ. eigenvalues --  -10.33299 -10.31440 -10.29911 -10.26942 -10.24519
 Alpha  occ. eigenvalues --  -10.24406 -10.24026 -10.23681 -10.23460 -10.23457
 Alpha  occ. eigenvalues --  -10.22204 -10.22202 -10.22135 -10.21949 -10.21557
 Alpha  occ. eigenvalues --  -10.20916 -10.20834 -10.20672 -10.20513 -10.20504
 Alpha  occ. eigenvalues --  -10.20235 -10.19929 -10.19921 -10.19906 -10.19864
 Alpha  occ. eigenvalues --  -10.19683 -10.19456 -10.19303 -10.18929 -10.18928
 Alpha  occ. eigenvalues --  -10.18714 -10.18009 -10.16822  -1.10804  -1.09719
 Alpha  occ. eigenvalues --   -1.05353  -1.02309  -0.99619  -0.98406  -0.97919
 Alpha  occ. eigenvalues --   -0.96241  -0.95219  -0.90889  -0.83315  -0.82345
 Alpha  occ. eigenvalues --   -0.80605  -0.80280  -0.79450  -0.78958  -0.77555
 Alpha  occ. eigenvalues --   -0.76989  -0.76004  -0.75255  -0.73916  -0.73382
 Alpha  occ. eigenvalues --   -0.71271  -0.69979  -0.69159  -0.68930  -0.67577
 Alpha  occ. eigenvalues --   -0.66872  -0.65788  -0.63676  -0.63244  -0.61646
 Alpha  occ. eigenvalues --   -0.60766  -0.60153  -0.59173  -0.57636  -0.56839
 Alpha  occ. eigenvalues --   -0.55450  -0.54744  -0.53935  -0.53277  -0.53161
 Alpha  occ. eigenvalues --   -0.52434  -0.51860  -0.50915  -0.50261  -0.49781
 Alpha  occ. eigenvalues --   -0.49340  -0.48550  -0.48516  -0.48093  -0.47415
 Alpha  occ. eigenvalues --   -0.46791  -0.46648  -0.46246  -0.46051  -0.45456
 Alpha  occ. eigenvalues --   -0.45138  -0.44788  -0.44405  -0.44297  -0.43962
 Alpha  occ. eigenvalues --   -0.43491  -0.43069  -0.42924  -0.42704  -0.42385
 Alpha  occ. eigenvalues --   -0.42341  -0.41743  -0.41455  -0.41402  -0.40656
 Alpha  occ. eigenvalues --   -0.40498  -0.40391  -0.40185  -0.39778  -0.39612
 Alpha  occ. eigenvalues --   -0.39511  -0.39079  -0.38726  -0.38391  -0.38134
 Alpha  occ. eigenvalues --   -0.37919  -0.37728  -0.37107  -0.36766  -0.36428
 Alpha  occ. eigenvalues --   -0.36210  -0.35985  -0.35346  -0.34895  -0.34345
 Alpha  occ. eigenvalues --   -0.34232  -0.34063  -0.33579  -0.32517  -0.32046
 Alpha  occ. eigenvalues --   -0.31881  -0.31497  -0.31377  -0.30128  -0.29664
 Alpha  occ. eigenvalues --   -0.27851  -0.27212  -0.26853  -0.25829  -0.25321
 Alpha  occ. eigenvalues --   -0.24669  -0.24042  -0.23658  -0.22651  -0.21054
 Alpha  occ. eigenvalues --   -0.17972
 Alpha virt. eigenvalues --   -0.11276  -0.07125  -0.03878  -0.00828  -0.00310
 Alpha virt. eigenvalues --    0.00721   0.01304   0.02038   0.02237   0.03638
 Alpha virt. eigenvalues --    0.03682   0.04240   0.04663   0.05681   0.05976

 Mulliken charges:
               1
     1  O   -0.169470
     2  O   -0.223164
     3  O   -0.195788
     4  O   -0.206655
     5  O   -0.206089
     6  O   -0.277668
     7  N   -0.111777
     8  N   -0.173228
     9  N   -0.196533
    10  N   -0.312038
    11  C   -0.018620
    12  C    0.009004
    13  C   -0.234164
    14  C    0.060324
    15  C   -0.102434
    16  C    0.131610
    17  C    0.021405
    18  C   -0.066059
    19  C    0.017329
    20  C   -0.136140
    21  C    0.141345
    22  C    0.160571
    23  C   -0.039537
    24  C    0.023087
    25  C   -0.138284
    26  C    0.318328
    27  C    0.144137
    28  C   -0.023240
    29  C    0.065156
    30  C   -0.008626
    31  C   -0.124538
    32  C    0.107769
    33  C   -0.139705
    34  C    0.033469
    35  C   -0.123535
    36  C   -0.154219
    37  C    0.119762
    38  C    0.111835
    39  C    0.100686
    40  C    0.042476
    41  C    0.196076
    42  C    0.146988
    43  C    0.021163
    44  H    0.110620
    45  H   -0.047640
    46  H    0.028267
    47  H    0.042589
    48  H    0.062683
    49  H    0.041377
    50  H    0.003974
    51  H    0.069161
    52  H    0.224736
    53  H   -0.007234
    54  H    0.030032
    55  H   -0.105466
    56  H    0.181439
    57  H    0.025371
    58  H    0.051865
    59  H    0.092151
    60  H    0.003939
    61  H    0.039005
    62  H    0.018334
    63  H    0.028834
    64  H   -0.023708
    65  H   -0.055650
    66  H    0.026892
    67  H    0.026842
    68  H   -0.034965
    69  H    0.088272
    70  H    0.012947
    71  H   -0.012369
    72  H    0.001849
    73  H    0.013053
    74  H   -0.008560
    75  H    0.020617
    76  H    0.038668
    77  H    0.027846
    78  H    0.000473
    79  H    0.002253
    80  H    0.221882
    81  H    0.168609
 Sum of Mulliken charges =  -0.00000

 Dipole moment (field-independent basis, Debye):
    X=             -1.2392    Y=              0.0406    Z=             -0.8565  Tot=              1.5069
 Quadrupole moment (field-independent basis, Debye-Ang):
   XX=           -256.9239   YY=           -233.4609   ZZ=           -253.7160
   XY=             22.1082   XZ=             11.8812   YZ=            -14.1704

 Normal termination of Gaussian 16 at Sun Jun 30 02:22:12 2019.
