 Gaussian 16, Revision A.03,
 Gaussian 16:  ES64L-G16RevA.03 25-Dec-2016

 --------------------------
 # td=(NStates=1) B3LYP/SVP
 --------------------------

 --
 TD
 --
 Symbolic Z-matrix:
 Charge =  0 Multiplicity = 1

                         Standard orientation:
 ---------------------------------------------------------------------
 Center     Atomic      Atomic             Coordinates (Angstroms)
 Number     Number       Type             X           Y           Z
 ---------------------------------------------------------------------
      1          8           0        4.207564   -4.973279   -1.774363
      2          8           0       -3.277623   -4.652514   -1.155841
      3          8           0       -7.007857   -1.307553   -1.905009
      4          8           0       -3.975653   -2.961109    0.130029
      5          8           0       -7.563885   -0.344131    0.132858
      6          8           0        3.104328    2.311557    0.478843
      7          7           0        0.213348   -0.505216    0.564640
      8          7           0       -1.495425    1.836563    0.398011
      9          7           0        3.250998   -3.228628   -0.624643
     10          7           0        0.850731    2.936130    0.124199
     11          6           0       -0.713470   -2.351180    1.501718
     12          6           0       -0.999572   -1.051887    1.007283
     13          6           0        0.707553   -2.666326    1.220114
     14          6           0        1.252881   -1.433037    0.704727
     15          6           0       -3.772974    1.549422    0.263185
     16          6           0       -2.448310    0.904058    0.573858
     17          6           0       -2.206732   -0.453299    0.943587
     18          6           0       -3.452098    2.828544   -0.043404
     19          6           0       -1.631727   -3.391309    2.023739
     20          6           0        5.438718   -2.829876   -1.406648
     21          6           0        3.593155   -1.964858   -0.251351
     22          6           0       -2.019837    3.025894   -0.041429
     23          6           0        4.937630   -1.629859   -0.614191
     24          6           0       -5.057356    0.852561    0.375142
     25          6           0        2.640295   -1.102066    0.326042
     26          6           0        1.433557   -3.806542    1.788711
     27          6           0        4.217170   -3.849401   -1.318937
     28          6           0       -2.257957   -4.385753    0.999073
     29          6           0       -5.349987   -0.001157   -0.890378
     30          6           0       -4.380416    3.825432   -0.552318
     31          6           0       -1.178598    4.170838   -0.277261
     32          6           0        6.696821   -3.493247   -0.963797
     33          6           0        5.765798   -0.656506   -0.185547
     34          6           0        0.257096    4.079711   -0.241287
     35          6           0        1.273897    5.121147   -0.465033
     36          6           0        2.470641    4.570366   -0.215230
     37          6           0       -3.256911   -3.928593   -0.127161
     38          6           0        5.404508    0.356739    0.846226
     39          6           0       -6.758879   -0.602932   -0.721815
     40          6           0        3.763090    5.144980   -0.198315
     41          6           0        2.196241    3.125116    0.168789
     42          6           0        0.924023    6.465636   -1.035094
     43          6           0        4.430243    5.451102    1.111942
     44          1           0        0.508450    0.340278   -0.071071
     45          1           0       -3.120976   -0.962380    0.945348
     46          1           0       -2.459337   -2.916537    2.540163
     47          1           0       -0.997020   -4.097262    2.764091
     48          1           0        5.550739   -2.727733   -2.512712
     49          1           0       -5.046983    0.221817    1.397506
     50          1           0       -5.893624    1.647124    0.587916
     51          1           0        2.724153    0.074465    0.447414
     52          1           0       -0.532933    1.675736    0.496999
     53          1           0        1.239459   -4.554070    1.135881
     54          1           0        2.501487   -3.503867    1.791524
     55          1           0        0.879263   -4.137127    2.704471
     56          1           0        2.372068   -3.541483   -0.546623
     57          1           0       -1.410674   -4.814916    0.378650
     58          1           0       -2.851601   -5.107250    1.574516
     59          1           0       -4.361564   -0.776798   -1.263141
     60          1           0       -5.361129    0.781555   -1.678569
     61          1           0       -4.302875    4.960017   -0.301621
     62          1           0       -5.421852    3.586349   -0.389578
     63          1           0       -4.196087    3.789957   -1.669199
     64          1           0       -1.647686    5.263913   -0.463521
     65          1           0        7.558830   -2.901781   -1.290097
     66          1           0        6.566172   -4.645406   -1.372800
     67          1           0        6.941936   -3.853972    0.157052
     68          1           0        6.734977   -0.617521   -0.614344
     69          1           0        4.896122    1.160576    0.324682
     70          1           0        6.443892    0.884400    1.314706
     71          1           0        4.715601    0.073779    1.600159
     72          1           0        3.703644    6.145009   -0.760594
     73          1           0        4.546113    4.522047   -0.850109
     74          1           0        0.479679    6.293133   -2.142104
     75          1           0        1.831434    7.235536   -0.962794
     76          1           0        0.041848    6.856913   -0.509691
     77          1           0        3.839427    5.994288    1.840269
     78          1           0        5.470417    6.087389    1.178959
     79          1           0        4.742330    4.406863    1.574110
     80          1           0       -3.914905   -4.290663   -1.948463
     81          1           0       -7.912303   -1.650413   -1.724614
 ---------------------------------------------------------------------

 SCF Done:  E(RB3LYP) =  -1949.14156867     A.U. after   17 cycles

 Excitation energies and oscillator strengths:

 Excited State   1:      Singlet-A      1.7349 eV  714.64 nm  f=0.3313  <S**2>=0.000
     156 ->157         0.71004
     156 <-157        -0.13116
 This state for optimization and/or second-order correction.
 Total Energy, E(TD-HF/TD-DFT) =  -1949.07781121
 Copying the excited state density for this state as the 1-particle RhoCI density.

 The electronic state is 1-A.
 Alpha  occ. eigenvalues --  -19.22609 -19.18595 -19.14777 -19.13025 -19.11299
 Alpha  occ. eigenvalues --  -19.09856 -14.38205 -14.37569 -14.36302 -14.28129
 Alpha  occ. eigenvalues --  -10.33614 -10.33246 -10.29159 -10.25797 -10.24951
 Alpha  occ. eigenvalues --  -10.24527 -10.24000 -10.23395 -10.23135 -10.22797
 Alpha  occ. eigenvalues --  -10.22767 -10.22285 -10.21976 -10.21595 -10.20845
 Alpha  occ. eigenvalues --  -10.20609 -10.20454 -10.20388 -10.20261 -10.20237
 Alpha  occ. eigenvalues --  -10.20040 -10.19922 -10.19878 -10.19815 -10.19801
 Alpha  occ. eigenvalues --  -10.19778 -10.19448 -10.19356 -10.19090 -10.19024
 Alpha  occ. eigenvalues --  -10.18630 -10.17633 -10.17629  -1.13660  -1.09376
 Alpha  occ. eigenvalues --   -1.04533  -1.01809  -1.01353  -0.99441  -0.98958
 Alpha  occ. eigenvalues --   -0.97827  -0.96567  -0.91861  -0.82867  -0.82532
 Alpha  occ. eigenvalues --   -0.81996  -0.81466  -0.79969  -0.78743  -0.77296
 Alpha  occ. eigenvalues --   -0.76952  -0.76072  -0.74799  -0.74189  -0.72486
 Alpha  occ. eigenvalues --   -0.71507  -0.70059  -0.69153  -0.68438  -0.67549
 Alpha  occ. eigenvalues --   -0.67289  -0.65411  -0.64790  -0.63023  -0.62124
 Alpha  occ. eigenvalues --   -0.60804  -0.59070  -0.58544  -0.58166  -0.56926
 Alpha  occ. eigenvalues --   -0.56208  -0.55563  -0.54790  -0.54391  -0.53030
 Alpha  occ. eigenvalues --   -0.51916  -0.51484  -0.50528  -0.50334  -0.50073
 Alpha  occ. eigenvalues --   -0.49967  -0.49378  -0.49095  -0.48935  -0.47954
 Alpha  occ. eigenvalues --   -0.46817  -0.46767  -0.45799  -0.45729  -0.45455
 Alpha  occ. eigenvalues --   -0.45077  -0.44905  -0.44740  -0.43954  -0.43615
 Alpha  occ. eigenvalues --   -0.43437  -0.43283  -0.42805  -0.42418  -0.41935
 Alpha  occ. eigenvalues --   -0.41653  -0.41629  -0.41184  -0.41019  -0.40743
 Alpha  occ. eigenvalues --   -0.40331  -0.40052  -0.39684  -0.39445  -0.39362
 Alpha  occ. eigenvalues --   -0.39143  -0.38860  -0.38511  -0.38472  -0.38170
 Alpha  occ. eigenvalues --   -0.38097  -0.37802  -0.37633  -0.37337  -0.37053
 Alpha  occ. eigenvalues --   -0.36422  -0.36197  -0.36028  -0.35356  -0.34898
 Alpha  occ. eigenvalues --   -0.34131  -0.33622  -0.33472  -0.32934  -0.32808
 Alpha  occ. eigenvalues --   -0.32289  -0.31133  -0.30654  -0.29979  -0.29814
 Alpha  occ. eigenvalues --   -0.27998  -0.27013  -0.26546  -0.25957  -0.25539
 Alpha  occ. eigenvalues --   -0.25173  -0.24637  -0.23429  -0.22944  -0.21457
 Alpha  occ. eigenvalues --   -0.17467
 Alpha virt. eigenvalues --   -0.10632  -0.05857  -0.04269  -0.02079  -0.01145
 Alpha virt. eigenvalues --   -0.00013   0.00571   0.02037   0.03205   0.03627
 Alpha virt. eigenvalues --    0.04365   0.04515   0.05090   0.05325   0.05848

 Mulliken charges:
               1
     1  O   -0.207737
     2  O   -0.143757
     3  O   -0.221911
     4  O   -0.266721
     5  O   -0.200716
     6  O   -0.259442
     7  N   -0.165431
     8  N    0.010548
     9  N    0.024604
    10  N   -0.277343
    11  C   -0.120842
    12  C    0.212033
    13  C   -0.237844
    14  C    0.008692
    15  C   -0.046462
    16  C   -0.053356
    17  C   -0.054583
    18  C   -0.100973
    19  C    0.092902
    20  C   -0.072241
    21  C    0.054543
    22  C    0.091663
    23  C    0.043303
    24  C   -0.009147
    25  C   -0.138876
    26  C    0.171390
    27  C    0.089705
    28  C   -0.000811
    29  C   -0.063498
    30  C    0.044557
    31  C   -0.133790
    32  C   -0.050109
    33  C   -0.101852
    34  C    0.054508
    35  C   -0.079722
    36  C   -0.124985
    37  C    0.102279
    38  C    0.051921
    39  C    0.198272
    40  C    0.027492
    41  C    0.159105
    42  C    0.038666
    43  C   -0.057622
    44  H    0.184227
    45  H   -0.019518
    46  H    0.011672
    47  H    0.022151
    48  H    0.038723
    49  H    0.051972
    50  H    0.040706
    51  H    0.067304
    52  H    0.089048
    53  H   -0.016803
    54  H    0.047196
    55  H    0.025402
    56  H    0.076879
    57  H    0.027219
    58  H    0.046743
    59  H    0.088609
    60  H    0.042761
    61  H    0.032424
    62  H    0.004000
    63  H    0.031339
    64  H    0.015295
    65  H    0.025843
    66  H    0.052746
    67  H    0.026418
    68  H   -0.022589
    69  H    0.065580
    70  H    0.017663
    71  H    0.024453
    72  H   -0.008464
    73  H    0.026673
    74  H    0.043754
    75  H    0.044985
    76  H    0.017171
    77  H    0.007368
    78  H    0.019971
    79  H    0.040677
    80  H    0.251292
    81  H    0.172699
 Sum of Mulliken charges =  -0.00000

 Dipole moment (field-independent basis, Debye):
    X=             -4.2496    Y=             -0.7573    Z=             -2.1926  Tot=              4.8415
 Quadrupole moment (field-independent basis, Debye-Ang):
   XX=           -252.8719   YY=           -245.2406   ZZ=           -254.9431
   XY=             18.3525   XZ=             15.7811   YZ=            -10.3845

 Normal termination of Gaussian 16 at Mon Jul  1 19:13:41 2019.
