 Gaussian 16, Revision A.03,
 Gaussian 16:  ES64L-G16RevA.03 25-Dec-2016

 --------------------------
 # td=(NStates=1) B3LYP/SVP
 --------------------------

 --
 TD
 --
 Symbolic Z-matrix:
 Charge =  0 Multiplicity = 1

                         Standard orientation:
 ---------------------------------------------------------------------
 Center     Atomic      Atomic             Coordinates (Angstroms)
 Number     Number       Type             X           Y           Z
 ---------------------------------------------------------------------
      1          8           0        4.408534   -4.831901   -1.843712
      2          8           0       -2.821121   -4.604944   -1.168166
      3          8           0       -6.773764   -1.702068   -1.982122
      4          8           0       -3.859480   -3.192333    0.237647
      5          8           0       -7.422220   -0.827548    0.002818
      6          8           0        2.949172    2.259646    0.317060
      7          7           0        0.215751   -0.475890    0.526670
      8          7           0       -1.634425    1.844933    0.522981
      9          7           0        3.354193   -3.132676   -0.690339
     10          7           0        0.724622    2.860945    0.102674
     11          6           0       -0.639838   -2.364090    1.513746
     12          6           0       -0.947385   -1.100957    0.985861
     13          6           0        0.777244   -2.589080    1.221670
     14          6           0        1.290747   -1.400116    0.680287
     15          6           0       -3.796026    1.496041    0.121973
     16          6           0       -2.480898    0.833918    0.473692
     17          6           0       -2.305170   -0.473699    0.887516
     18          6           0       -3.613654    2.820641   -0.086121
     19          6           0       -1.582389   -3.384884    2.087086
     20          6           0        5.625423   -2.666032   -1.341992
     21          6           0        3.588005   -1.840136   -0.233278
     22          6           0       -2.137165    3.062424    0.004897
     23          6           0        4.972384   -1.470320   -0.572629
     24          6           0       -5.117085    0.787267    0.285908
     25          6           0        2.659311   -1.084783    0.223707
     26          6           0        1.484198   -3.767988    1.666326
     27          6           0        4.456566   -3.673963   -1.368069
     28          6           0       -2.059815   -4.534666    1.163389
     29          6           0       -5.360203   -0.113812   -0.897727
     30          6           0       -4.599497    3.828062   -0.400402
     31          6           0       -1.406735    4.165894   -0.231171
     32          6           0        6.849522   -3.341722   -0.835852
     33          6           0        5.739345   -0.461122   -0.093991
     34          6           0        0.072622    4.073449   -0.140288
     35          6           0        1.091099    5.158639   -0.414573
     36          6           0        2.294493    4.616487   -0.222279
     37          6           0       -2.978341   -3.969963    0.016865
     38          6           0        5.297764    0.632852    0.857867
     39          6           0       -6.597280   -0.874772   -0.910931
     40          6           0        3.715283    5.315236   -0.261919
     41          6           0        2.054871    3.123880    0.141269
     42          6           0        0.518053    6.544593   -0.959122
     43          6           0        4.217625    5.631087    1.129306
     44          1           0        0.228077    0.397552    0.174201
     45          1           0       -3.064212   -1.069270    0.742323
     46          1           0       -2.578007   -2.846285    2.454901
     47          1           0       -1.070098   -3.800684    3.122441
     48          1           0        5.716156   -2.428385   -2.474028
     49          1           0       -5.043956    0.151886    1.141405
     50          1           0       -5.955643    1.349106    0.568449
     51          1           0        2.886291   -0.034307    0.219339
     52          1           0       -0.727722    1.832819    0.489095
     53          1           0        1.271752   -4.667287    1.117013
     54          1           0        2.616312   -3.644671    1.586120
     55          1           0        1.141997   -4.249120    2.569750
     56          1           0        2.323018   -3.546375   -0.526864
     57          1           0       -1.282670   -5.088002    0.825819
     58          1           0       -2.700942   -5.283849    1.850088
     59          1           0       -4.656034   -0.897914   -0.934629
     60          1           0       -5.285588    0.506523   -1.744841
     61          1           0       -4.559915    4.758601    0.067949
     62          1           0       -5.565691    3.437574   -0.405164
     63          1           0       -4.387676    4.171117   -1.503854
     64          1           0       -1.666305    4.887155   -0.583577
     65          1           0        7.827613   -2.711778   -0.652491
     66          1           0        7.165782   -4.024896   -1.610842
     67          1           0        6.719263   -3.644178    0.104319
     68          1           0        6.845986   -0.777560   -0.395461
     69          1           0        4.843735    1.393598    0.243489
     70          1           0        6.255599    1.017523    1.259646
     71          1           0        4.782229    0.315094    1.685642
     72          1           0        3.704842    6.210672   -1.035691
     73          1           0        4.476090    4.688612   -0.565692
     74          1           0       -0.145224    6.295168   -1.746363
     75          1           0        1.264472    7.155083   -1.118840
     76          1           0       -0.179025    6.939445   -0.266067
     77          1           0        3.444707    6.329415    1.662681
     78          1           0        5.131235    6.052093    0.980932
     79          1           0        4.349702    4.668223    1.650731
     80          1           0       -3.456800   -4.052253   -1.831456
     81          1           0       -7.637744   -2.148625   -1.808699
 ---------------------------------------------------------------------

 SCF Done:  E(RB3LYP) =  -1949.05449921     A.U. after   16 cycles

 Excitation energies and oscillator strengths:

 Excited State   1:      Singlet-A      1.5822 eV  783.62 nm  f=0.2153  <S**2>=0.000
     156 ->157         0.70709
     156 <-157        -0.10493
 This state for optimization and/or second-order correction.
 Total Energy, E(TD-HF/TD-DFT) =  -1948.99635449
 Copying the excited state density for this state as the 1-particle RhoCI density.

 The electronic state is 1-A.
 Alpha  occ. eigenvalues --  -19.20297 -19.18690 -19.14600 -19.12404 -19.11313
 Alpha  occ. eigenvalues --  -19.09506 -14.36675 -14.36261 -14.36087 -14.30337
 Alpha  occ. eigenvalues --  -10.33682 -10.31967 -10.28500 -10.27805 -10.25506
 Alpha  occ. eigenvalues --  -10.25410 -10.24020 -10.23325 -10.23114 -10.22397
 Alpha  occ. eigenvalues --  -10.22030 -10.21985 -10.21172 -10.21088 -10.20975
 Alpha  occ. eigenvalues --  -10.20928 -10.20457 -10.20274 -10.20089 -10.19922
 Alpha  occ. eigenvalues --  -10.19752 -10.19629 -10.19403 -10.19399 -10.19250
 Alpha  occ. eigenvalues --  -10.19084 -10.19013 -10.18983 -10.18860 -10.18136
 Alpha  occ. eigenvalues --  -10.18115 -10.16691 -10.16379  -1.10734  -1.09174
 Alpha  occ. eigenvalues --   -1.02034  -1.00791  -1.00360  -0.99996  -0.99603
 Alpha  occ. eigenvalues --   -0.96343  -0.93122  -0.91818  -0.83956  -0.82427
 Alpha  occ. eigenvalues --   -0.81613  -0.80602  -0.79975  -0.79505  -0.79245
 Alpha  occ. eigenvalues --   -0.77357  -0.77204  -0.76109  -0.74575  -0.73319
 Alpha  occ. eigenvalues --   -0.72447  -0.71065  -0.69742  -0.69622  -0.68551
 Alpha  occ. eigenvalues --   -0.66995  -0.65763  -0.64137  -0.63122  -0.61312
 Alpha  occ. eigenvalues --   -0.60171  -0.59867  -0.59593  -0.58600  -0.57506
 Alpha  occ. eigenvalues --   -0.56579  -0.56312  -0.54782  -0.54039  -0.53193
 Alpha  occ. eigenvalues --   -0.52776  -0.51350  -0.51316  -0.50802  -0.50632
 Alpha  occ. eigenvalues --   -0.49854  -0.49577  -0.48612  -0.48141  -0.47975
 Alpha  occ. eigenvalues --   -0.47897  -0.47396  -0.46854  -0.46216  -0.45953
 Alpha  occ. eigenvalues --   -0.45609  -0.44664  -0.44474  -0.44216  -0.44051
 Alpha  occ. eigenvalues --   -0.43821  -0.43661  -0.43303  -0.42985  -0.42850
 Alpha  occ. eigenvalues --   -0.42530  -0.42311  -0.42175  -0.41734  -0.41239
 Alpha  occ. eigenvalues --   -0.40893  -0.40770  -0.40696  -0.40596  -0.40375
 Alpha  occ. eigenvalues --   -0.39647  -0.39426  -0.39181  -0.38803  -0.38571
 Alpha  occ. eigenvalues --   -0.38433  -0.37988  -0.37798  -0.37402  -0.36846
 Alpha  occ. eigenvalues --   -0.36762  -0.35801  -0.35644  -0.34963  -0.34561
 Alpha  occ. eigenvalues --   -0.34156  -0.33993  -0.33779  -0.33486  -0.33273
 Alpha  occ. eigenvalues --   -0.32913  -0.32211  -0.31860  -0.29987  -0.29776
 Alpha  occ. eigenvalues --   -0.28559  -0.27956  -0.26493  -0.26248  -0.25372
 Alpha  occ. eigenvalues --   -0.25061  -0.24574  -0.24325  -0.24129  -0.22088
 Alpha  occ. eigenvalues --   -0.17904
 Alpha virt. eigenvalues --   -0.11360  -0.05974  -0.02940  -0.01919   0.00016
 Alpha virt. eigenvalues --    0.00653   0.01347   0.02015   0.03083   0.04156
 Alpha virt. eigenvalues --    0.04439   0.04617   0.05270   0.05339   0.06443

 Mulliken charges:
               1
     1  O   -0.252818
     2  O   -0.218208
     3  O   -0.206658
     4  O   -0.216168
     5  O   -0.253195
     6  O   -0.230648
     7  N   -0.052387
     8  N    0.054569
     9  N   -0.172700
    10  N   -0.295559
    11  C   -0.097197
    12  C    0.034108
    13  C   -0.172421
    14  C    0.083786
    15  C   -0.116194
    16  C    0.036408
    17  C    0.063561
    18  C   -0.111287
    19  C   -0.039817
    20  C   -0.058589
    21  C    0.119913
    22  C    0.147778
    23  C   -0.042265
    24  C    0.146859
    25  C   -0.086918
    26  C    0.097430
    27  C    0.116901
    28  C    0.087350
    29  C    0.068697
    30  C    0.153394
    31  C    0.131152
    32  C    0.106823
    33  C   -0.192262
    34  C    0.023662
    35  C   -0.112464
    36  C   -0.211179
    37  C    0.137983
    38  C    0.141499
    39  C    0.126586
    40  C    0.073613
    41  C    0.179471
    42  C    0.248479
    43  C    0.021316
    44  H    0.073191
    45  H   -0.068438
    46  H    0.041132
    47  H    0.038401
    48  H    0.049327
    49  H    0.001128
    50  H   -0.006129
    51  H   -0.016219
    52  H    0.024348
    53  H   -0.006125
    54  H    0.048661
    55  H   -0.009110
    56  H    0.175596
    57  H   -0.018560
    58  H    0.061998
    59  H    0.019916
    60  H    0.015381
    61  H    0.003824
    62  H   -0.002473
    63  H    0.020548
    64  H   -0.266912
    65  H    0.013892
    66  H    0.030072
    67  H   -0.018419
    68  H    0.012039
    69  H    0.067603
    70  H   -0.009634
    71  H    0.012950
    72  H    0.017239
    73  H   -0.018777
    74  H    0.008503
    75  H   -0.022103
    76  H   -0.002270
    77  H    0.023352
    78  H   -0.006166
    79  H    0.032115
    80  H    0.227287
    81  H    0.190430
 Sum of Mulliken charges =  -0.00000

 Dipole moment (field-independent basis, Debye):
    X=             -2.9969    Y=              4.0574    Z=             -1.0302  Tot=              5.1483
 Quadrupole moment (field-independent basis, Debye-Ang):
   XX=           -253.4459   YY=           -236.2639   ZZ=           -255.7529
   XY=             13.4857   XZ=             18.9343   YZ=            -16.7787

 Normal termination of Gaussian 16 at Sun Jun 30 07:47:49 2019.
