 Gaussian 16, Revision A.03,
 Gaussian 16:  ES64L-G16RevA.03 25-Dec-2016

 --------------------------
 # td=(NStates=1) B3LYP/SVP
 --------------------------

 --
 TD
 --
 Symbolic Z-matrix:
 Charge =  0 Multiplicity = 1

                         Standard orientation:
 ---------------------------------------------------------------------
 Center     Atomic      Atomic             Coordinates (Angstroms)
 Number     Number       Type             X           Y           Z
 ---------------------------------------------------------------------
      1          8           0        4.383487   -4.696652   -1.992666
      2          8           0       -2.947024   -5.039009   -1.014866
      3          8           0       -6.871682   -1.717869   -1.730509
      4          8           0       -3.748995   -3.275430    0.178917
      5          8           0       -7.765812   -0.459931   -0.090952
      6          8           0        3.037914    2.488311    0.386443
      7          7           0        0.310278   -0.513972    0.565957
      8          7           0       -1.687361    1.707852    0.313557
      9          7           0        3.421776   -3.111767   -0.569803
     10          7           0        0.717410    2.965799    0.105934
     11          6           0       -0.562527   -2.366301    1.419532
     12          6           0       -0.881166   -1.120204    0.839731
     13          6           0        0.859049   -2.547116    1.276270
     14          6           0        1.281752   -1.421442    0.711177
     15          6           0       -3.879378    1.382736    0.266127
     16          6           0       -2.567638    0.824051    0.456860
     17          6           0       -2.199966   -0.460193    0.756943
     18          6           0       -3.714713    2.768858   -0.103628
     19          6           0       -1.460766   -3.381440    1.940932
     20          6           0        5.664614   -2.627224   -1.236828
     21          6           0        3.681015   -1.781416   -0.189747
     22          6           0       -2.115681    2.897863   -0.163785
     23          6           0        5.011616   -1.383834   -0.549538
     24          6           0       -5.153449    0.616458    0.362749
     25          6           0        2.734112   -0.912617    0.494260
     26          6           0        1.597506   -3.682351    1.921322
     27          6           0        4.452000   -3.626499   -1.342581
     28          6           0       -1.832574   -4.550694    0.939959
     29          6           0       -5.323353   -0.277168   -0.757052
     30          6           0       -4.604594    3.811317   -0.534689
     31          6           0       -1.413083    4.074033   -0.407349
     32          6           0        6.964298   -3.382937   -0.782189
     33          6           0        5.813511   -0.303061   -0.300763
     34          6           0        0.012787    4.041144   -0.242872
     35          6           0        0.929326    5.114712   -0.424041
     36          6           0        2.226076    4.706438   -0.284533
     37          6           0       -2.999028   -4.230274    0.040667
     38          6           0        5.532881    0.818753    0.529161
     39          6           0       -6.764834   -0.826832   -0.759539
     40          6           0        3.461444    5.415993   -0.210380
     41          6           0        2.105589    3.269616    0.073312
     42          6           0        0.367171    6.573104   -0.712692
     43          6           0        4.125416    5.342924    1.200347
     44          1           0        0.308324    0.222001   -0.129230
     45          1           0       -2.977734   -1.184487    0.908224
     46          1           0       -2.345507   -2.890835    2.344385
     47          1           0       -1.099771   -3.785470    2.788490
     48          1           0        5.911568   -2.368353   -2.373430
     49          1           0       -5.427734    0.171254    1.344956
     50          1           0       -6.094381    1.283741    0.309065
     51          1           0        2.994455    0.028822    0.494126
     52          1           0       -0.639007    1.672306    0.649833
     53          1           0        1.690876   -4.605712    1.288363
     54          1           0        2.717073   -3.395688    2.118717
     55          1           0        1.025112   -4.030004    2.838957
     56          1           0        2.541629   -3.762833   -0.537143
     57          1           0       -0.878063   -4.774062    0.384976
     58          1           0       -2.178486   -5.428630    1.343648
     59          1           0       -4.563241   -1.227655   -0.728496
     60          1           0       -5.015739    0.325854   -1.650324
     61          1           0       -4.311784    4.800272   -0.092612
     62          1           0       -5.642116    3.597738   -0.131467
     63          1           0       -4.713769    3.893270   -1.725873
     64          1           0       -1.941164    4.978650   -0.605130
     65          1           0        7.967261   -2.683581   -1.045643
     66          1           0        6.922167   -4.212681   -1.232663
     67          1           0        7.198537   -3.615520    0.374449
     68          1           0        6.819894   -0.283662   -0.649624
     69          1           0        4.780230    1.221690   -0.065305
     70          1           0        6.538461    1.453979    0.592004
     71          1           0        4.854175    0.608155    1.346465
     72          1           0        3.300110    6.643377   -0.527329
     73          1           0        4.238995    5.134202   -0.904140
     74          1           0       -0.145721    6.590756   -1.543444
     75          1           0        1.220076    7.276628   -0.662655
     76          1           0       -0.252059    6.831600    0.208329
     77          1           0        3.416361    5.716090    2.083298
     78          1           0        4.920552    5.998750    1.018716
     79          1           0        4.455270    4.283124    1.362155
     80          1           0       -3.852784   -4.920389   -1.671459
     81          1           0       -7.864371   -1.951829   -1.686510
 ---------------------------------------------------------------------

 SCF Done:  E(RB3LYP) =  -1949.06808909     A.U. after   17 cycles

 Excitation energies and oscillator strengths:

 Excited State   1:      Singlet-A      1.6596 eV  747.05 nm  f=0.1908  <S**2>=0.000
     155 ->157         0.12961
     156 ->157         0.69642
 This state for optimization and/or second-order correction.
 Total Energy, E(TD-HF/TD-DFT) =  -1949.00709812
 Copying the excited state density for this state as the 1-particle RhoCI density.

 The electronic state is 1-A.
 Alpha  occ. eigenvalues --  -19.20829 -19.19590 -19.14207 -19.13126 -19.11142
 Alpha  occ. eigenvalues --  -19.10573 -14.37754 -14.36994 -14.36987 -14.28579
 Alpha  occ. eigenvalues --  -10.33476 -10.32677 -10.28879 -10.27057 -10.24914
 Alpha  occ. eigenvalues --  -10.24877 -10.22741 -10.22728 -10.22581 -10.22494
 Alpha  occ. eigenvalues --  -10.21745 -10.21454 -10.21360 -10.21342 -10.21148
 Alpha  occ. eigenvalues --  -10.21119 -10.20951 -10.20726 -10.19898 -10.19690
 Alpha  occ. eigenvalues --  -10.19610 -10.19599 -10.19492 -10.19472 -10.19430
 Alpha  occ. eigenvalues --  -10.19343 -10.19213 -10.18846 -10.18498 -10.18485
 Alpha  occ. eigenvalues --  -10.18377 -10.18129 -10.17111  -1.10429  -1.10077
 Alpha  occ. eigenvalues --   -1.01357  -1.01266  -1.01183  -1.00142  -0.99584
 Alpha  occ. eigenvalues --   -0.98986  -0.93748  -0.92104  -0.82790  -0.82589
 Alpha  occ. eigenvalues --   -0.81449  -0.81313  -0.79593  -0.78805  -0.77628
 Alpha  occ. eigenvalues --   -0.76905  -0.76251  -0.75165  -0.74177  -0.72685
 Alpha  occ. eigenvalues --   -0.71623  -0.69777  -0.69701  -0.69035  -0.67745
 Alpha  occ. eigenvalues --   -0.66679  -0.65296  -0.63375  -0.62464  -0.61017
 Alpha  occ. eigenvalues --   -0.60491  -0.59891  -0.58816  -0.57339  -0.57071
 Alpha  occ. eigenvalues --   -0.56116  -0.55290  -0.55195  -0.54416  -0.53813
 Alpha  occ. eigenvalues --   -0.52599  -0.52076  -0.50860  -0.50213  -0.50017
 Alpha  occ. eigenvalues --   -0.49585  -0.49011  -0.48572  -0.48018  -0.47645
 Alpha  occ. eigenvalues --   -0.47225  -0.46759  -0.46413  -0.45755  -0.45153
 Alpha  occ. eigenvalues --   -0.44820  -0.44543  -0.44262  -0.43852  -0.43768
 Alpha  occ. eigenvalues --   -0.43422  -0.42889  -0.42592  -0.42408  -0.42111
 Alpha  occ. eigenvalues --   -0.41847  -0.41775  -0.41375  -0.40882  -0.40814
 Alpha  occ. eigenvalues --   -0.40748  -0.40439  -0.40330  -0.39913  -0.39584
 Alpha  occ. eigenvalues --   -0.39332  -0.39204  -0.39043  -0.38884  -0.38577
 Alpha  occ. eigenvalues --   -0.38346  -0.37770  -0.37254  -0.37211  -0.36929
 Alpha  occ. eigenvalues --   -0.36577  -0.36202  -0.35639  -0.34928  -0.34064
 Alpha  occ. eigenvalues --   -0.33914  -0.33781  -0.33689  -0.33321  -0.32452
 Alpha  occ. eigenvalues --   -0.32335  -0.32038  -0.31724  -0.29663  -0.29478
 Alpha  occ. eigenvalues --   -0.28669  -0.26777  -0.25959  -0.25383  -0.25226
 Alpha  occ. eigenvalues --   -0.25122  -0.24565  -0.24043  -0.22704  -0.20894
 Alpha  occ. eigenvalues --   -0.17724
 Alpha virt. eigenvalues --   -0.10692  -0.06171  -0.04299  -0.01574  -0.00989
 Alpha virt. eigenvalues --   -0.00698  -0.00172   0.02403   0.02705   0.03146
 Alpha virt. eigenvalues --    0.04258   0.04466   0.04924   0.05256   0.05418

 Mulliken charges:
               1
     1  O   -0.261292
     2  O   -0.239772
     3  O   -0.166652
     4  O   -0.228940
     5  O   -0.281623
     6  O   -0.237859
     7  N   -0.007966
     8  N   -0.007359
     9  N   -0.160274
    10  N   -0.318121
    11  C   -0.128681
    12  C   -0.020234
    13  C   -0.133207
    14  C    0.013269
    15  C   -0.055140
    16  C    0.064785
    17  C   -0.071972
    18  C   -0.126277
    19  C    0.192355
    20  C   -0.102534
    21  C    0.086316
    22  C    0.079360
    23  C    0.016820
    24  C    0.068833
    25  C    0.034275
    26  C    0.040930
    27  C    0.127469
    28  C    0.037041
    29  C   -0.086789
    30  C    0.031495
    31  C   -0.107093
    32  C    0.055260
    33  C   -0.155834
    34  C    0.097513
    35  C   -0.154094
    36  C   -0.090598
    37  C    0.141477
    38  C    0.119229
    39  C    0.167123
    40  C   -0.019829
    41  C    0.171134
    42  C    0.166126
    43  C   -0.019530
    44  H    0.140357
    45  H   -0.008263
    46  H   -0.005294
    47  H   -0.054601
    48  H    0.053384
    49  H    0.019065
    50  H    0.012049
    51  H   -0.113116
    52  H    0.179144
    53  H    0.013271
    54  H    0.051524
    55  H    0.029171
    56  H    0.175789
    57  H    0.048327
    58  H    0.008506
    59  H    0.085507
    60  H    0.048244
    61  H    0.034890
    62  H    0.029332
    63  H    0.057229
    64  H   -0.031413
    65  H    0.028896
    66  H   -0.017206
    67  H    0.028720
    68  H   -0.021392
    69  H    0.046284
    70  H    0.033856
    71  H    0.025667
    72  H    0.005508
    73  H    0.007313
    74  H   -0.007559
    75  H    0.007747
    76  H    0.023187
    77  H    0.032363
    78  H    0.000501
    79  H    0.057743
    80  H    0.250975
    81  H    0.195156
 Sum of Mulliken charges =  -0.00000

 Dipole moment (field-independent basis, Debye):
    X=             -3.1892    Y=              0.2732    Z=             -0.8033  Tot=              3.3002
 Quadrupole moment (field-independent basis, Debye-Ang):
   XX=           -252.7331   YY=           -235.9164   ZZ=           -256.6295
   XY=             23.2375   XZ=             17.4662   YZ=            -13.7188

 Normal termination of Gaussian 16 at Wed Jul  3 15:48:38 2019.
