 Gaussian 16, Revision A.03,
 Gaussian 16:  ES64L-G16RevA.03 25-Dec-2016

 --------------------------
 # td=(NStates=1) B3LYP/SVP
 --------------------------

 --
 TD
 --
 Symbolic Z-matrix:
 Charge =  0 Multiplicity = 1

                         Standard orientation:
 ---------------------------------------------------------------------
 Center     Atomic      Atomic             Coordinates (Angstroms)
 Number     Number       Type             X           Y           Z
 ---------------------------------------------------------------------
      1          8           0        4.309079   -4.940653   -1.709509
      2          8           0       -2.918194   -4.765800   -1.175685
      3          8           0       -6.994035   -1.404588   -2.005880
      4          8           0       -3.772205   -3.143460    0.109356
      5          8           0       -7.410550   -0.763503    0.148406
      6          8           0        2.992249    2.313354    0.396659
      7          7           0        0.225963   -0.458295    0.615100
      8          7           0       -1.541322    1.860773    0.392336
      9          7           0        3.284671   -3.165732   -0.745503
     10          7           0        0.854555    2.909994    0.080141
     11          6           0       -0.636169   -2.342828    1.482932
     12          6           0       -0.932277   -1.050256    1.102760
     13          6           0        0.757599   -2.577418    1.326591
     14          6           0        1.287715   -1.409706    0.693826
     15          6           0       -3.860556    1.569531    0.240906
     16          6           0       -2.532155    0.925356    0.592895
     17          6           0       -2.321513   -0.395385    0.958299
     18          6           0       -3.554467    2.836164   -0.115795
     19          6           0       -1.725667   -3.326052    2.055454
     20          6           0        5.355015   -2.789570   -1.435474
     21          6           0        3.515161   -1.863289   -0.189063
     22          6           0       -2.040503    3.013581    0.017477
     23          6           0        4.945705   -1.660429   -0.574843
     24          6           0       -5.120603    0.798866    0.232682
     25          6           0        2.597752   -1.048851    0.382677
     26          6           0        1.474470   -3.856927    1.897157
     27          6           0        4.306837   -3.769058   -1.349705
     28          6           0       -2.032206   -4.468830    1.143826
     29          6           0       -5.247272   -0.092649   -0.872312
     30          6           0       -4.557559    3.872937   -0.581529
     31          6           0       -1.268293    4.113128   -0.346053
     32          6           0        6.723167   -3.349648   -0.892295
     33          6           0        5.752656   -0.566680   -0.298931
     34          6           0        0.162654    4.027448   -0.213259
     35          6           0        1.111484    5.143101   -0.349556
     36          6           0        2.351344    4.598636   -0.219360
     37          6           0       -2.992048   -4.068575    0.005235
     38          6           0        5.494507    0.651158    0.640379
     39          6           0       -6.692559   -0.748655   -0.898337
     40          6           0        3.693382    5.385282   -0.256731
     41          6           0        2.148092    3.178653    0.094487
     42          6           0        0.684775    6.510447   -0.830017
     43          6           0        4.277550    5.393356    1.186000
     44          1           0        0.409358    0.326967    0.087687
     45          1           0       -3.289533   -1.035098    0.889462
     46          1           0       -2.659388   -2.936512    2.534072
     47          1           0       -1.050355   -3.702986    2.859331
     48          1           0        5.604443   -2.395199   -2.315511
     49          1           0       -5.470212    0.447319    1.275407
     50          1           0       -5.758680    1.733628    0.242652
     51          1           0        2.637642    0.051713   -0.006415
     52          1           0       -0.471644    1.946205    0.658481
     53          1           0        1.422425   -4.677868    0.892298
     54          1           0        2.508063   -3.589552    2.082945
     55          1           0        1.102088   -4.110861    2.846438
     56          1           0        2.472865   -3.702911   -0.606480
     57          1           0       -1.237652   -4.987522    0.545826
     58          1           0       -2.633652   -5.282161    1.708749
     59          1           0       -4.445451   -0.922157   -1.061603
     60          1           0       -5.127190    0.547661   -1.724192
     61          1           0       -4.525427    4.751116    0.355038
     62          1           0       -5.701203    3.521903   -0.768356
     63          1           0       -4.370480    4.102962   -1.616251
     64          1           0       -1.749467    4.955231   -0.763444
     65          1           0        7.607485   -2.870751   -1.016685
     66          1           0        6.931249   -4.026311   -1.611752
     67          1           0        6.520138   -3.868702   -0.011319
     68          1           0        6.754081   -0.806412   -0.966701
     69          1           0        4.991944    1.481735    0.309538
     70          1           0        6.539704    1.127583    0.944650
     71          1           0        5.052638    0.356002    1.317036
     72          1           0        3.601562    6.507424   -0.668270
     73          1           0        4.430603    4.652226   -0.780146
     74          1           0        0.136553    6.311216   -1.683451
     75          1           0        1.719018    7.114176   -0.773397
     76          1           0       -0.121315    7.133070   -0.312336
     77          1           0        3.883838    5.955425    1.909738
     78          1           0        5.355702    5.844726    1.008320
     79          1           0        4.211602    4.238169    1.589623
     80          1           0       -3.629957   -4.374406   -1.692241
     81          1           0       -7.825316   -2.004081   -1.961967
 ---------------------------------------------------------------------

 SCF Done:  E(RB3LYP) =  -1948.99318821     A.U. after   16 cycles

 Excitation energies and oscillator strengths:

 Excited State   1:      Singlet-A      1.6486 eV  752.07 nm  f=0.2263  <S**2>=0.000
     156 ->157         0.70714
 This state for optimization and/or second-order correction.
 Total Energy, E(TD-HF/TD-DFT) =  -1948.93260431
 Copying the excited state density for this state as the 1-particle RhoCI density.

 The electronic state is 1-A.
 Alpha  occ. eigenvalues --  -19.20176 -19.19411 -19.14085 -19.12318 -19.10088
 Alpha  occ. eigenvalues --  -19.09797 -14.36906 -14.36526 -14.36504 -14.29047
 Alpha  occ. eigenvalues --  -10.33328 -10.33102 -10.27851 -10.26320 -10.25041
 Alpha  occ. eigenvalues --  -10.24246 -10.23539 -10.23530 -10.23225 -10.22934
 Alpha  occ. eigenvalues --  -10.22661 -10.22654 -10.22142 -10.21555 -10.21553
 Alpha  occ. eigenvalues --  -10.21371 -10.21292 -10.21205 -10.20969 -10.20708
 Alpha  occ. eigenvalues --  -10.20407 -10.20185 -10.19800 -10.19603 -10.19518
 Alpha  occ. eigenvalues --  -10.19442 -10.19295 -10.19146 -10.18561 -10.18435
 Alpha  occ. eigenvalues --  -10.18320 -10.16309 -10.15622  -1.10801  -1.09500
 Alpha  occ. eigenvalues --   -1.03191  -1.01537  -1.01160  -0.99398  -0.98281
 Alpha  occ. eigenvalues --   -0.96556  -0.94946  -0.93059  -0.83843  -0.82205
 Alpha  occ. eigenvalues --   -0.81764  -0.80542  -0.79613  -0.79182  -0.78149
 Alpha  occ. eigenvalues --   -0.77569  -0.76045  -0.74957  -0.73900  -0.72127
 Alpha  occ. eigenvalues --   -0.70490  -0.70339  -0.69265  -0.68575  -0.68062
 Alpha  occ. eigenvalues --   -0.67795  -0.66074  -0.65341  -0.62534  -0.62240
 Alpha  occ. eigenvalues --   -0.60504  -0.60264  -0.59507  -0.59053  -0.56855
 Alpha  occ. eigenvalues --   -0.56043  -0.55477  -0.54841  -0.53933  -0.53051
 Alpha  occ. eigenvalues --   -0.52280  -0.51314  -0.50687  -0.50527  -0.50306
 Alpha  occ. eigenvalues --   -0.49784  -0.49062  -0.48645  -0.48013  -0.47832
 Alpha  occ. eigenvalues --   -0.47041  -0.46451  -0.46037  -0.45771  -0.45403
 Alpha  occ. eigenvalues --   -0.44449  -0.44339  -0.44214  -0.43792  -0.43503
 Alpha  occ. eigenvalues --   -0.43223  -0.43121  -0.42912  -0.42724  -0.42572
 Alpha  occ. eigenvalues --   -0.42167  -0.42099  -0.41840  -0.41653  -0.41440
 Alpha  occ. eigenvalues --   -0.40718  -0.40551  -0.40408  -0.40142  -0.39982
 Alpha  occ. eigenvalues --   -0.39469  -0.39239  -0.38959  -0.38415  -0.38163
 Alpha  occ. eigenvalues --   -0.37287  -0.37114  -0.36971  -0.36667  -0.36036
 Alpha  occ. eigenvalues --   -0.35980  -0.35708  -0.34974  -0.34648  -0.34311
 Alpha  occ. eigenvalues --   -0.33652  -0.33565  -0.33501  -0.32852  -0.32091
 Alpha  occ. eigenvalues --   -0.31830  -0.31766  -0.31738  -0.29476  -0.29197
 Alpha  occ. eigenvalues --   -0.27991  -0.27300  -0.26647  -0.26309  -0.25550
 Alpha  occ. eigenvalues --   -0.24992  -0.24726  -0.24466  -0.23570  -0.21629
 Alpha  occ. eigenvalues --   -0.17495
 Alpha virt. eigenvalues --   -0.10553  -0.06188  -0.04171  -0.01570  -0.00979
 Alpha virt. eigenvalues --    0.00507   0.02048   0.02234   0.02610   0.02939
 Alpha virt. eigenvalues --    0.04027   0.04265   0.04634   0.05691   0.06439

 Mulliken charges:
               1
     1  O   -0.226007
     2  O   -0.181177
     3  O   -0.188430
     4  O   -0.239336
     5  O   -0.284878
     6  O   -0.234723
     7  N   -0.086982
     8  N   -0.067740
     9  N   -0.078000
    10  N   -0.251886
    11  C   -0.143791
    12  C    0.078753
    13  C   -0.173169
    14  C    0.010850
    15  C   -0.066776
    16  C    0.046286
    17  C   -0.084645
    18  C   -0.133460
    19  C    0.132900
    20  C   -0.025354
    21  C    0.123742
    22  C    0.059928
    23  C   -0.067930
    24  C    0.058736
    25  C   -0.104590
    26  C    0.062599
    27  C    0.098849
    28  C    0.003236
    29  C    0.026223
    30  C   -0.006508
    31  C   -0.094166
    32  C    0.173523
    33  C   -0.168347
    34  C    0.081789
    35  C   -0.107445
    36  C   -0.175617
    37  C    0.115209
    38  C    0.253561
    39  C    0.167670
    40  C    0.040305
    41  C    0.124086
    42  C    0.086773
    43  C   -0.042023
    44  H    0.105240
    45  H    0.066729
    46  H    0.036283
    47  H    0.006201
    48  H   -0.006362
    49  H    0.046093
    50  H    0.005139
    51  H    0.062988
    52  H    0.192242
    53  H    0.058243
    54  H    0.023257
    55  H    0.020323
    56  H    0.099034
    57  H    0.041096
    58  H    0.056020
    59  H    0.075835
    60  H    0.007706
    61  H    0.072019
    62  H    0.039269
    63  H    0.030143
    64  H   -0.044125
    65  H   -0.019854
    66  H   -0.032646
    67  H    0.000906
    68  H    0.009093
    69  H    0.025858
    70  H    0.006765
    71  H   -0.096107
    72  H    0.034265
    73  H    0.033242
    74  H    0.007665
    75  H    0.045036
    76  H    0.018355
    77  H   -0.014935
    78  H    0.019016
    79  H    0.060556
    80  H    0.175260
    81  H    0.222114
 Sum of Mulliken charges =  -0.00000

 Dipole moment (field-independent basis, Debye):
    X=             -4.3605    Y=              1.8926    Z=             -1.8101  Tot=              5.0865
 Quadrupole moment (field-independent basis, Debye-Ang):
   XX=           -250.3181   YY=           -242.5663   ZZ=           -251.9782
   XY=             16.6647   XZ=             17.7918   YZ=            -12.7146

 Normal termination of Gaussian 16 at Mon Jul  1 08:06:51 2019.
