 Gaussian 16, Revision A.03,
 Gaussian 16:  ES64L-G16RevA.03 25-Dec-2016

 --------------------------
 # td=(NStates=1) B3LYP/SVP
 --------------------------

 --
 TD
 --
 Symbolic Z-matrix:
 Charge =  0 Multiplicity = 1

                         Standard orientation:
 ---------------------------------------------------------------------
 Center     Atomic      Atomic             Coordinates (Angstroms)
 Number     Number       Type             X           Y           Z
 ---------------------------------------------------------------------
      1          8           0        3.917297   -5.062906   -1.786869
      2          8           0       -3.156118   -4.737003   -1.074479
      3          8           0       -6.924012   -1.295842   -2.054185
      4          8           0       -3.887344   -3.006461    0.061597
      5          8           0       -7.563108   -0.550937    0.014611
      6          8           0        3.249797    2.355740    0.498955
      7          7           0        0.256028   -0.596347    0.466052
      8          7           0       -1.411502    1.968513    0.405785
      9          7           0        3.111401   -3.264202   -0.670641
     10          7           0        0.958600    2.888821    0.102576
     11          6           0       -0.771569   -2.327087    1.484989
     12          6           0       -0.954777   -0.938986    1.012037
     13          6           0        0.588179   -2.594353    1.316628
     14          6           0        1.175901   -1.493654    0.793352
     15          6           0       -3.711663    1.724789    0.417190
     16          6           0       -2.428109    1.014661    0.584859
     17          6           0       -2.102043   -0.329009    0.925566
     18          6           0       -3.392473    2.949697   -0.102888
     19          6           0       -1.805230   -3.114227    2.159796
     20          6           0        5.332854   -3.029892   -1.396332
     21          6           0        3.523461   -1.934045   -0.210157
     22          6           0       -1.939076    3.127410   -0.162410
     23          6           0        4.856464   -1.754455   -0.608552
     24          6           0       -5.116389    0.955896    0.385752
     25          6           0        2.506363   -1.162350    0.350653
     26          6           0        1.273106   -3.868019    1.816994
     27          6           0        4.154475   -3.920448   -1.345683
     28          6           0       -2.196317   -4.297349    1.106945
     29          6           0       -5.291350    0.014434   -0.732586
     30          6           0       -4.365606    3.994105   -0.657285
     31          6           0       -1.084945    4.198015   -0.439386
     32          6           0        6.502048   -3.762628   -0.778390
     33          6           0        5.797293   -0.751084   -0.370472
     34          6           0        0.315373    3.943097   -0.262980
     35          6           0        1.247675    5.066280   -0.469229
     36          6           0        2.510006    4.598907   -0.306557
     37          6           0       -3.146447   -3.893791    0.058408
     38          6           0        5.438343    0.380853    0.501531
     39          6           0       -6.707737   -0.666536   -0.840142
     40          6           0        3.909476    5.102059   -0.176872
     41          6           0        2.342747    3.165810    0.134363
     42          6           0        0.896990    6.525218   -0.762462
     43          6           0        4.372225    5.470395    1.214696
     44          1           0        0.478299    0.405388    0.215909
     45          1           0       -2.965378   -0.903222    0.970448
     46          1           0       -2.698586   -2.801530    2.510248
     47          1           0       -1.408393   -3.616065    3.060963
     48          1           0        5.480631   -2.853154   -2.401549
     49          1           0       -5.293840    0.397488    1.352587
     50          1           0       -5.832123    1.780258    0.324599
     51          1           0        2.818946   -0.112292    0.496529
     52          1           0       -0.408103    1.924969    0.457209
     53          1           0        1.187174   -4.642558    0.991796
     54          1           0        2.397431   -3.515703    1.936669
     55          1           0        0.806241   -4.314348    2.811163
     56          1           0        2.118631   -3.544065   -0.704929
     57          1           0       -1.421227   -4.725459    0.622260
     58          1           0       -2.626834   -5.185273    1.641099
     59          1           0       -4.455425   -0.777110   -0.925819
     60          1           0       -5.247340    0.564287   -1.691574
     61          1           0       -4.282955    4.972406   -0.156508
     62          1           0       -5.358853    3.570381   -0.613660
     63          1           0       -3.999536    4.289814   -1.702958
     64          1           0       -1.283617    5.045026   -0.831548
     65          1           0        7.574203   -3.261638   -0.906128
     66          1           0        6.472664   -4.737161   -1.316132
     67          1           0        6.445432   -4.019107    0.206481
     68          1           0        6.749678   -0.745777   -0.837477
     69          1           0        5.026155    1.323014    0.010067
     70          1           0        6.267239    0.571308    0.967689
     71          1           0        4.754398    0.171353    1.152532
     72          1           0        4.023257    6.084226   -0.810125
     73          1           0        4.586465    4.223351   -0.666101
     74          1           0        0.313290    6.711617   -1.618359
     75          1           0        1.893534    6.984008   -0.914726
     76          1           0        0.365679    7.104030   -0.018095
     77          1           0        3.681063    6.265280    1.675123
     78          1           0        5.510417    5.795222    1.077496
     79          1           0        4.184786    4.511877    1.757324
     80          1           0       -3.942915   -4.224774   -1.419386
     81          1           0       -7.779758   -1.676551   -1.954824
 ---------------------------------------------------------------------

 SCF Done:  E(RB3LYP) =  -1949.13535460     A.U. after   16 cycles

 Excitation energies and oscillator strengths:

 Excited State   1:      Singlet-A      1.7035 eV  727.81 nm  f=0.3181  <S**2>=0.000
     156 ->157         0.71008
     156 <-157        -0.12951
 This state for optimization and/or second-order correction.
 Total Energy, E(TD-HF/TD-DFT) =  -1949.07275094
 Copying the excited state density for this state as the 1-particle RhoCI density.

 The electronic state is 1-A.
 Alpha  occ. eigenvalues --  -19.18539 -19.17910 -19.15462 -19.13482 -19.11354
 Alpha  occ. eigenvalues --  -19.10257 -14.38175 -14.36185 -14.35532 -14.29342
 Alpha  occ. eigenvalues --  -10.33169 -10.32884 -10.28818 -10.27330 -10.24919
 Alpha  occ. eigenvalues --  -10.24187 -10.23689 -10.23686 -10.22615 -10.22526
 Alpha  occ. eigenvalues --  -10.21972 -10.21821 -10.21659 -10.21417 -10.21322
 Alpha  occ. eigenvalues --  -10.21273 -10.20942 -10.20677 -10.20621 -10.20587
 Alpha  occ. eigenvalues --  -10.20580 -10.20347 -10.20114 -10.20068 -10.19889
 Alpha  occ. eigenvalues --  -10.19814 -10.19394 -10.19156 -10.19086 -10.19015
 Alpha  occ. eigenvalues --  -10.18623 -10.18203 -10.14888  -1.12948  -1.09519
 Alpha  occ. eigenvalues --   -1.01807  -1.01561  -1.01088  -1.00634  -0.99981
 Alpha  occ. eigenvalues --   -0.96991  -0.92960  -0.92945  -0.83694  -0.82572
 Alpha  occ. eigenvalues --   -0.81933  -0.81744  -0.79712  -0.79217  -0.78774
 Alpha  occ. eigenvalues --   -0.78059  -0.77571  -0.75705  -0.74781  -0.72749
 Alpha  occ. eigenvalues --   -0.71215  -0.70784  -0.69589  -0.69176  -0.68036
 Alpha  occ. eigenvalues --   -0.67447  -0.66021  -0.65111  -0.62814  -0.61032
 Alpha  occ. eigenvalues --   -0.60417  -0.59288  -0.59062  -0.57896  -0.57145
 Alpha  occ. eigenvalues --   -0.56787  -0.56176  -0.55550  -0.54255  -0.53470
 Alpha  occ. eigenvalues --   -0.52689  -0.52171  -0.51939  -0.50942  -0.50076
 Alpha  occ. eigenvalues --   -0.49615  -0.49480  -0.49186  -0.48384  -0.48108
 Alpha  occ. eigenvalues --   -0.47264  -0.46995  -0.46758  -0.46357  -0.46140
 Alpha  occ. eigenvalues --   -0.45992  -0.45198  -0.44808  -0.44353  -0.43757
 Alpha  occ. eigenvalues --   -0.43701  -0.43509  -0.43258  -0.42975  -0.42548
 Alpha  occ. eigenvalues --   -0.42178  -0.41820  -0.41685  -0.41368  -0.41041
 Alpha  occ. eigenvalues --   -0.40781  -0.40613  -0.40436  -0.40172  -0.40043
 Alpha  occ. eigenvalues --   -0.39856  -0.39714  -0.39474  -0.39220  -0.38972
 Alpha  occ. eigenvalues --   -0.38750  -0.38490  -0.38313  -0.38155  -0.37606
 Alpha  occ. eigenvalues --   -0.36895  -0.36728  -0.36491  -0.35451  -0.34968
 Alpha  occ. eigenvalues --   -0.34580  -0.34210  -0.33640  -0.33586  -0.33428
 Alpha  occ. eigenvalues --   -0.33023  -0.32945  -0.32022  -0.30856  -0.30605
 Alpha  occ. eigenvalues --   -0.28552  -0.27726  -0.26352  -0.26104  -0.25775
 Alpha  occ. eigenvalues --   -0.25364  -0.25247  -0.24649  -0.23782  -0.22110
 Alpha  occ. eigenvalues --   -0.17704
 Alpha virt. eigenvalues --   -0.10897  -0.06665  -0.05034  -0.01266  -0.00253
 Alpha virt. eigenvalues --    0.00020   0.01325   0.03101   0.04028   0.04517
 Alpha virt. eigenvalues --    0.04688   0.05157   0.05321   0.06323   0.06692

 Mulliken charges:
               1
     1  O   -0.247062
     2  O   -0.236569
     3  O   -0.186924
     4  O   -0.181190
     5  O   -0.223603
     6  O   -0.266234
     7  N   -0.044462
     8  N   -0.121610
     9  N   -0.181989
    10  N   -0.269584
    11  C   -0.080175
    12  C    0.159873
    13  C   -0.176137
    14  C    0.114540
    15  C   -0.073470
    16  C    0.018351
    17  C   -0.077114
    18  C   -0.150342
    19  C    0.169391
    20  C    0.029906
    21  C    0.130532
    22  C    0.172079
    23  C   -0.029583
    24  C    0.109459
    25  C   -0.150652
    26  C    0.013212
    27  C    0.104950
    28  C    0.036193
    29  C   -0.028607
    30  C    0.108376
    31  C   -0.034217
    32  C    0.047688
    33  C   -0.129592
    34  C    0.056455
    35  C   -0.139938
    36  C   -0.151063
    37  C    0.115183
    38  C    0.201296
    39  C    0.148691
    40  C   -0.007952
    41  C    0.177795
    42  C    0.130320
    43  C   -0.011699
    44  H    0.148976
    45  H   -0.034334
    46  H   -0.018732
    47  H    0.001915
    48  H    0.014465
    49  H    0.032028
    50  H    0.007090
    51  H    0.022151
    52  H    0.112074
    53  H    0.044088
    54  H    0.058686
    55  H    0.043576
    56  H    0.139896
    57  H   -0.010016
    58  H    0.048410
    59  H    0.065784
    60  H    0.022335
    61  H    0.021338
    62  H    0.013936
    63  H    0.025987
    64  H   -0.132280
    65  H    0.029205
    66  H    0.031844
    67  H   -0.009284
    68  H   -0.015885
    69  H    0.078374
    70  H   -0.046284
    71  H   -0.040739
    72  H    0.001777
    73  H    0.040126
    74  H    0.003375
    75  H    0.009882
    76  H    0.015485
    77  H    0.022876
    78  H    0.041492
    79  H    0.030982
    80  H    0.172141
    81  H    0.162732
 Sum of Mulliken charges =  -0.00000

 Dipole moment (field-independent basis, Debye):
    X=             -1.6948    Y=              1.3973    Z=              0.3004  Tot=              2.2170
 Quadrupole moment (field-independent basis, Debye-Ang):
   XX=           -247.8708   YY=           -250.4346   ZZ=           -255.6496
   XY=             11.9553   XZ=              9.0675   YZ=            -20.6942

 Normal termination of Gaussian 16 at Sun Jun 30 19:52:31 2019.
