 Gaussian 16, Revision A.03,
 Gaussian 16:  ES64L-G16RevA.03 25-Dec-2016

 --------------------------
 # td=(NStates=1) B3LYP/SVP
 --------------------------

 --
 TD
 --
 Symbolic Z-matrix:
 Charge =  0 Multiplicity = 1

                         Standard orientation:
 ---------------------------------------------------------------------
 Center     Atomic      Atomic             Coordinates (Angstroms)
 Number     Number       Type             X           Y           Z
 ---------------------------------------------------------------------
      1          8           0        4.499429   -4.874598   -1.672262
      2          8           0       -2.657078   -4.984040   -1.107324
      3          8           0       -6.990779   -1.972292   -1.843585
      4          8           0       -3.531881   -3.260789    0.092651
      5          8           0       -7.575287   -0.717397   -0.007534
      6          8           0        2.881349    2.629163    0.284537
      7          7           0        0.212751   -0.501352    0.529803
      8          7           0       -1.649228    1.834921    0.325207
      9          7           0        3.359265   -2.959735   -0.749918
     10          7           0        0.624622    3.067411   -0.000661
     11          6           0       -0.535590   -2.430395    1.385370
     12          6           0       -0.899185   -1.120987    0.911279
     13          6           0        0.791013   -2.523343    1.166099
     14          6           0        1.313661   -1.346890    0.555155
     15          6           0       -3.889804    1.269560    0.281244
     16          6           0       -2.540417    0.776589    0.630196
     17          6           0       -2.155312   -0.406182    1.016757
     18          6           0       -3.738048    2.698142   -0.042669
     19          6           0       -1.384943   -3.379226    2.100343
     20          6           0        5.656132   -2.739888   -1.261318
     21          6           0        3.703907   -1.737568   -0.291180
     22          6           0       -2.258549    2.995535   -0.016970
     23          6           0        5.137286   -1.588722   -0.592543
     24          6           0       -5.121668    0.495594    0.343600
     25          6           0        2.672940   -0.861279    0.187448
     26          6           0        1.785550   -3.647525    1.652667
     27          6           0        4.454054   -3.674580   -1.283044
     28          6           0       -1.879942   -4.531402    1.152111
     29          6           0       -5.359527   -0.408422   -0.843667
     30          6           0       -4.815159    3.653204   -0.550465
     31          6           0       -1.512081    4.106872   -0.295441
     32          6           0        6.972944   -3.315881   -0.660905
     33          6           0        5.888521   -0.504828   -0.139063
     34          6           0       -0.099881    4.115666   -0.238495
     35          6           0        0.817181    5.271004   -0.457051
     36          6           0        2.079228    4.870152   -0.267574
     37          6           0       -2.748868   -4.186150    0.025824
     38          6           0        5.481851    0.795779    0.622316
     39          6           0       -6.700561   -1.055157   -0.818774
     40          6           0        3.427355    5.491008   -0.341232
     41          6           0        1.929765    3.341813    0.094307
     42          6           0        0.389637    6.591670   -0.789557
     43          6           0        4.031410    5.783651    1.176237
     44          1           0        0.350832    0.397639    0.203977
     45          1           0       -2.868327   -1.123686    1.506631
     46          1           0       -2.202756   -2.981789    2.525313
     47          1           0       -0.711190   -3.972316    2.890748
     48          1           0        5.678820   -2.569979   -2.286740
     49          1           0       -5.068525   -0.375703    1.265170
     50          1           0       -5.858841    1.332267    0.485272
     51          1           0        2.661027    0.294318    0.374288
     52          1           0       -0.665362    1.963304    0.446161
     53          1           0        1.756883   -4.431622    0.938702
     54          1           0        2.880240   -3.069498    1.836093
     55          1           0        1.484910   -4.184214    2.661889
     56          1           0        2.381058   -3.471656   -0.772092
     57          1           0       -0.972988   -5.006694    0.859415
     58          1           0       -2.322137   -5.188168    1.794562
     59          1           0       -4.592679   -1.329295   -0.556224
     60          1           0       -5.261746    0.047875   -1.711822
     61          1           0       -4.954934    4.573852    0.156818
     62          1           0       -5.798785    3.165701   -0.411787
     63          1           0       -4.707498    4.109482   -1.458306
     64          1           0       -2.156504    5.008412   -0.713260
     65          1           0        7.820190   -2.611790   -0.947373
     66          1           0        7.088584   -4.207056   -1.128930
     67          1           0        6.920599   -3.339018    0.428497
     68          1           0        6.875834   -0.408819   -0.625744
     69          1           0        4.902356    1.576704   -0.068008
     70          1           0        6.343511    1.118368    1.088558
     71          1           0        4.746911    0.540956    1.348753
     72          1           0        3.424845    6.425818   -0.939595
     73          1           0        4.369255    4.774046   -0.604104
     74          1           0       -0.139730    6.686342   -1.635856
     75          1           0        1.286693    7.358957   -0.877448
     76          1           0       -0.208607    6.987803    0.033477
     77          1           0        3.361770    6.620580    1.484105
     78          1           0        4.994746    6.256838    0.977830
     79          1           0        4.238205    4.809712    1.701802
     80          1           0       -3.372559   -4.830728   -1.726465
     81          1           0       -7.899393   -2.382925   -1.713200
 ---------------------------------------------------------------------

 SCF Done:  E(RB3LYP) =  -1949.10590361     A.U. after   16 cycles

 Excitation energies and oscillator strengths:

 Excited State   1:      Singlet-A      1.8027 eV  687.77 nm  f=0.3562  <S**2>=0.000
     156 ->157         0.70866
     156 <-157        -0.10418
 This state for optimization and/or second-order correction.
 Total Energy, E(TD-HF/TD-DFT) =  -1949.03965587
 Copying the excited state density for this state as the 1-particle RhoCI density.

 The electronic state is 1-A.
 Alpha  occ. eigenvalues --  -19.19075 -19.17824 -19.14529 -19.12324 -19.11397
 Alpha  occ. eigenvalues --  -19.10834 -14.38428 -14.37493 -14.35304 -14.28635
 Alpha  occ. eigenvalues --  -10.33973 -10.32151 -10.29682 -10.26429 -10.25325
 Alpha  occ. eigenvalues --  -10.24220 -10.23310 -10.23254 -10.23189 -10.23099
 Alpha  occ. eigenvalues --  -10.21767 -10.21725 -10.21597 -10.21529 -10.21381
 Alpha  occ. eigenvalues --  -10.20914 -10.20841 -10.20664 -10.20446 -10.20389
 Alpha  occ. eigenvalues --  -10.20249 -10.20159 -10.20001 -10.19978 -10.19447
 Alpha  occ. eigenvalues --  -10.19372 -10.19293 -10.18914 -10.18627 -10.18368
 Alpha  occ. eigenvalues --  -10.18054 -10.17883 -10.17828  -1.09926  -1.06700
 Alpha  occ. eigenvalues --   -1.02699  -1.01850  -1.01790  -0.99783  -0.98528
 Alpha  occ. eigenvalues --   -0.97317  -0.95843  -0.93772  -0.83668  -0.82947
 Alpha  occ. eigenvalues --   -0.82554  -0.81103  -0.79744  -0.79015  -0.77882
 Alpha  occ. eigenvalues --   -0.77363  -0.76230  -0.74745  -0.73673  -0.72198
 Alpha  occ. eigenvalues --   -0.71316  -0.70104  -0.69477  -0.68635  -0.68444
 Alpha  occ. eigenvalues --   -0.67483  -0.65913  -0.64636  -0.62822  -0.62665
 Alpha  occ. eigenvalues --   -0.60999  -0.59475  -0.59132  -0.58378  -0.57996
 Alpha  occ. eigenvalues --   -0.55952  -0.55509  -0.54510  -0.53645  -0.53306
 Alpha  occ. eigenvalues --   -0.52969  -0.52581  -0.51784  -0.51157  -0.50409
 Alpha  occ. eigenvalues --   -0.50061  -0.49785  -0.48623  -0.48159  -0.47764
 Alpha  occ. eigenvalues --   -0.46603  -0.46456  -0.45750  -0.45589  -0.45231
 Alpha  occ. eigenvalues --   -0.45032  -0.44864  -0.44383  -0.44196  -0.43795
 Alpha  occ. eigenvalues --   -0.43348  -0.43082  -0.42658  -0.42469  -0.42044
 Alpha  occ. eigenvalues --   -0.41671  -0.41588  -0.41330  -0.41277  -0.40667
 Alpha  occ. eigenvalues --   -0.40614  -0.40256  -0.39885  -0.39650  -0.39531
 Alpha  occ. eigenvalues --   -0.39346  -0.39173  -0.38817  -0.38614  -0.38363
 Alpha  occ. eigenvalues --   -0.37578  -0.37399  -0.37238  -0.37156  -0.36930
 Alpha  occ. eigenvalues --   -0.36657  -0.36460  -0.36116  -0.35827  -0.35481
 Alpha  occ. eigenvalues --   -0.34499  -0.34456  -0.34195  -0.33784  -0.33508
 Alpha  occ. eigenvalues --   -0.33372  -0.31616  -0.31554  -0.30348  -0.29681
 Alpha  occ. eigenvalues --   -0.27485  -0.27317  -0.26351  -0.26083  -0.25983
 Alpha  occ. eigenvalues --   -0.24800  -0.24435  -0.23744  -0.22887  -0.21498
 Alpha  occ. eigenvalues --   -0.17479
 Alpha virt. eigenvalues --   -0.10133  -0.05824  -0.04486  -0.02263  -0.00692
 Alpha virt. eigenvalues --   -0.00325   0.01532   0.02360   0.03470   0.04067
 Alpha virt. eigenvalues --    0.04257   0.04419   0.04933   0.05134   0.05602

 Mulliken charges:
               1
     1  O   -0.256601
     2  O   -0.205859
     3  O   -0.252187
     4  O   -0.223063
     5  O   -0.250214
     6  O   -0.200887
     7  N    0.002458
     8  N   -0.089547
     9  N   -0.153645
    10  N   -0.233840
    11  C   -0.066299
    12  C   -0.034487
    13  C   -0.181773
    14  C   -0.018088
    15  C   -0.046821
    16  C    0.196499
    17  C   -0.078502
    18  C   -0.130285
    19  C    0.116158
    20  C    0.049854
    21  C    0.114587
    22  C    0.059975
    23  C   -0.081118
    24  C   -0.011355
    25  C   -0.127676
    26  C    0.007525
    27  C    0.096377
    28  C    0.086071
    29  C    0.038049
    30  C    0.102824
    31  C   -0.151663
    32  C    0.122806
    33  C   -0.170653
    34  C    0.093790
    35  C   -0.115506
    36  C   -0.123728
    37  C    0.158983
    38  C    0.088203
    39  C    0.155870
    40  C   -0.033311
    41  C    0.121790
    42  C    0.139527
    43  C   -0.026572
    44  H    0.094398
    45  H   -0.002103
    46  H   -0.024730
    47  H    0.023144
    48  H    0.015390
    49  H    0.047655
    50  H    0.036424
    51  H    0.062850
    52  H    0.107441
    53  H    0.018269
    54  H    0.076613
    55  H    0.029947
    56  H    0.182347
    57  H    0.004820
    58  H    0.013962
    59  H    0.106778
    60  H   -0.007683
    61  H    0.020489
    62  H    0.006859
    63  H    0.012431
    64  H    0.005491
    65  H    0.021030
    66  H    0.007067
    67  H    0.022230
    68  H   -0.000897
    69  H    0.094260
    70  H   -0.004010
    71  H    0.013670
    72  H    0.007733
    73  H    0.038643
    74  H   -0.014100
    75  H    0.009763
    76  H    0.010743
    77  H    0.022043
    78  H    0.004630
    79  H    0.058468
    80  H    0.186657
    81  H    0.203609
 Sum of Mulliken charges =  -0.00000

 Dipole moment (field-independent basis, Debye):
    X=             -1.9287    Y=             -0.2478    Z=             -0.2731  Tot=              1.9637
 Quadrupole moment (field-independent basis, Debye-Ang):
   XX=           -252.6189   YY=           -241.6063   ZZ=           -253.5670
   XY=             18.6625   XZ=             13.0809   YZ=            -13.7648

 Normal termination of Gaussian 16 at Mon Jul  1 09:04:26 2019.
