 Gaussian 16, Revision A.03,
 Gaussian 16:  ES64L-G16RevA.03 25-Dec-2016

 --------------------------
 # td=(NStates=1) B3LYP/SVP
 --------------------------

 --
 TD
 --
 Symbolic Z-matrix:
 Charge =  0 Multiplicity = 1

                         Standard orientation:
 ---------------------------------------------------------------------
 Center     Atomic      Atomic             Coordinates (Angstroms)
 Number     Number       Type             X           Y           Z
 ---------------------------------------------------------------------
      1          8           0        3.961794   -4.799780   -2.029178
      2          8           0       -3.107073   -4.802484   -1.019849
      3          8           0       -6.867050   -1.446379   -2.071905
      4          8           0       -3.797157   -2.869203   -0.009892
      5          8           0       -7.553324   -0.401506   -0.211412
      6          8           0        3.152398    2.296037    0.369890
      7          7           0        0.319439   -0.494930    0.825963
      8          7           0       -1.419457    1.891046    0.563459
      9          7           0        3.068025   -3.174321   -0.693408
     10          7           0        0.867598    2.741895    0.006563
     11          6           0       -0.669828   -2.457409    1.585065
     12          6           0       -0.899415   -1.079187    1.142575
     13          6           0        0.724087   -2.574121    1.410195
     14          6           0        1.240186   -1.437463    0.841199
     15          6           0       -3.664785    1.480959    0.386385
     16          6           0       -2.387496    0.948400    0.713350
     17          6           0       -2.204606   -0.398083    1.084555
     18          6           0       -3.478037    2.872573   -0.008777
     19          6           0       -1.665381   -3.360782    2.125470
     20          6           0        5.299967   -2.818759   -1.365657
     21          6           0        3.480852   -1.914261   -0.236322
     22          6           0       -2.018767    3.087517    0.134641
     23          6           0        4.873901   -1.691847   -0.549838
     24          6           0       -5.090078    0.913484    0.272286
     25          6           0        2.584703   -1.083273    0.482083
     26          6           0        1.393081   -3.899102    1.874994
     27          6           0        4.095610   -3.747181   -1.508072
     28          6           0       -2.269638   -4.323355    1.156098
     29          6           0       -5.301939    0.084336   -1.056148
     30          6           0       -4.468313    3.839694   -0.387026
     31          6           0       -1.162808    4.147682   -0.154748
     32          6           0        6.676969   -3.548842   -1.164807
     33          6           0        5.764296   -0.767991   -0.150379
     34          6           0        0.269842    3.996058   -0.224015
     35          6           0        1.198326    5.130059   -0.464974
     36          6           0        2.426840    4.566121   -0.311740
     37          6           0       -3.059068   -3.822154   -0.037645
     38          6           0        5.382654    0.347012    0.865831
     39          6           0       -6.716102   -0.587041   -1.088002
     40          6           0        3.733270    5.167836   -0.409400
     41          6           0        2.221747    3.154421    0.081570
     42          6           0        0.901143    6.485209   -0.854069
     43          6           0        4.386578    5.408167    0.954065
     44          1           0        0.429958    0.312053    0.027171
     45          1           0       -3.094426   -0.905583    1.206914
     46          1           0       -2.659232   -2.907397    2.274986
     47          1           0       -1.445873   -3.823763    3.169240
     48          1           0        5.354520   -2.417381   -2.378013
     49          1           0       -4.997491    0.249654    1.062473
     50          1           0       -5.864744    1.657349    0.309142
     51          1           0        2.952165    0.039876    0.413187
     52          1           0       -0.375691    1.858740    0.893815
     53          1           0        1.494633   -4.798436    1.170775
     54          1           0        2.572657   -3.503326    1.938451
     55          1           0        0.898053   -4.116913    2.899791
     56          1           0        2.031753   -3.538544   -0.627997
     57          1           0       -1.267879   -4.975800    0.964687
     58          1           0       -2.873349   -5.073577    1.610650
     59          1           0       -4.331747   -0.499510   -1.110089
     60          1           0       -5.253199    0.643634   -2.001141
     61          1           0       -4.217522    4.724001   -0.039713
     62          1           0       -5.499467    3.666035   -0.337376
     63          1           0       -4.440736    3.971006   -1.440817
     64          1           0       -1.609372    5.130462   -0.360222
     65          1           0        7.577024   -3.063023   -1.572599
     66          1           0        6.680515   -4.372608   -1.831809
     67          1           0        6.901589   -3.583624   -0.152763
     68          1           0        6.890982   -0.779004   -0.531231
     69          1           0        4.937387    1.165116    0.306041
     70          1           0        6.060878    0.618714    1.532093
     71          1           0        4.471474    0.145083    1.563186
     72          1           0        3.948096    5.994722   -1.164939
     73          1           0        4.387541    4.150183   -0.781231
     74          1           0        0.587795    6.399706   -2.006275
     75          1           0        1.722655    7.114680   -0.880764
     76          1           0        0.272632    6.983552   -0.159699
     77          1           0        3.826709    6.059870    1.510177
     78          1           0        5.255110    5.897875    0.886655
     79          1           0        4.409366    4.386187    1.371329
     80          1           0       -3.732014   -4.328488   -1.685529
     81          1           0       -7.753437   -1.752903   -2.020275
 ---------------------------------------------------------------------

 SCF Done:  E(RB3LYP) =  -1949.08016331     A.U. after   17 cycles

 Excitation energies and oscillator strengths:

 Excited State   1:      Singlet-A      1.6784 eV  738.71 nm  f=0.3104  <S**2>=0.000
     156 ->157         0.70968
     156 <-157        -0.12864
 This state for optimization and/or second-order correction.
 Total Energy, E(TD-HF/TD-DFT) =  -1949.01848357
 Copying the excited state density for this state as the 1-particle RhoCI density.

 The electronic state is 1-A.
 Alpha  occ. eigenvalues --  -19.20030 -19.19481 -19.15737 -19.12685 -19.11471
 Alpha  occ. eigenvalues --  -19.09256 -14.38057 -14.36787 -14.35574 -14.29194
 Alpha  occ. eigenvalues --  -10.34449 -10.32681 -10.29231 -10.26013 -10.24261
 Alpha  occ. eigenvalues --  -10.23880 -10.23658 -10.22988 -10.22985 -10.22788
 Alpha  occ. eigenvalues --  -10.22332 -10.21833 -10.21355 -10.21209 -10.21032
 Alpha  occ. eigenvalues --  -10.20671 -10.20405 -10.20350 -10.20239 -10.20190
 Alpha  occ. eigenvalues --  -10.19715 -10.19597 -10.19400 -10.19354 -10.19293
 Alpha  occ. eigenvalues --  -10.19243 -10.18894 -10.18530 -10.18444 -10.18338
 Alpha  occ. eigenvalues --  -10.17725 -10.15813 -10.15532  -1.11876  -1.10657
 Alpha  occ. eigenvalues --   -1.05053  -1.02325  -1.00691  -0.99512  -0.97270
 Alpha  occ. eigenvalues --   -0.96473  -0.94351  -0.89540  -0.83529  -0.81965
 Alpha  occ. eigenvalues --   -0.81588  -0.80770  -0.80146  -0.78533  -0.77772
 Alpha  occ. eigenvalues --   -0.76658  -0.76209  -0.75244  -0.73332  -0.72302
 Alpha  occ. eigenvalues --   -0.70801  -0.69774  -0.69633  -0.68195  -0.67944
 Alpha  occ. eigenvalues --   -0.67481  -0.65322  -0.64504  -0.62365  -0.61354
 Alpha  occ. eigenvalues --   -0.60505  -0.59871  -0.58147  -0.57053  -0.56271
 Alpha  occ. eigenvalues --   -0.55928  -0.54568  -0.54540  -0.52996  -0.52658
 Alpha  occ. eigenvalues --   -0.52262  -0.51688  -0.50914  -0.50407  -0.50117
 Alpha  occ. eigenvalues --   -0.49616  -0.49390  -0.48904  -0.48785  -0.47884
 Alpha  occ. eigenvalues --   -0.47150  -0.46996  -0.46699  -0.46200  -0.45420
 Alpha  occ. eigenvalues --   -0.45068  -0.44448  -0.44385  -0.44176  -0.43867
 Alpha  occ. eigenvalues --   -0.43748  -0.43724  -0.43242  -0.42915  -0.42545
 Alpha  occ. eigenvalues --   -0.42237  -0.41934  -0.41728  -0.41701  -0.41055
 Alpha  occ. eigenvalues --   -0.40927  -0.40336  -0.40234  -0.40038  -0.39766
 Alpha  occ. eigenvalues --   -0.39390  -0.39320  -0.38725  -0.38438  -0.38305
 Alpha  occ. eigenvalues --   -0.37705  -0.37369  -0.37107  -0.36436  -0.36107
 Alpha  occ. eigenvalues --   -0.36020  -0.35332  -0.35026  -0.34665  -0.34367
 Alpha  occ. eigenvalues --   -0.34239  -0.33744  -0.32923  -0.32735  -0.32676
 Alpha  occ. eigenvalues --   -0.31911  -0.31505  -0.30699  -0.30520  -0.28944
 Alpha  occ. eigenvalues --   -0.28349  -0.28191  -0.26559  -0.26030  -0.25724
 Alpha  occ. eigenvalues --   -0.24772  -0.24146  -0.23513  -0.22614  -0.20835
 Alpha  occ. eigenvalues --   -0.17198
 Alpha virt. eigenvalues --   -0.10502  -0.05793  -0.04072  -0.02778  -0.00087
 Alpha virt. eigenvalues --    0.00668   0.01629   0.02657   0.03222   0.03876
 Alpha virt. eigenvalues --    0.04579   0.04914   0.05407   0.05889   0.05959

 Mulliken charges:
               1
     1  O   -0.158414
     2  O   -0.221560
     3  O   -0.122284
     4  O   -0.212426
     5  O   -0.247931
     6  O   -0.299185
     7  N   -0.080505
     8  N   -0.130388
     9  N   -0.202508
    10  N   -0.340721
    11  C   -0.037089
    12  C    0.023590
    13  C   -0.174545
    14  C    0.069015
    15  C   -0.160760
    16  C    0.063146
    17  C   -0.001037
    18  C   -0.132167
    19  C    0.072904
    20  C   -0.069173
    21  C    0.060184
    22  C    0.114972
    23  C    0.042139
    24  C    0.190562
    25  C   -0.178707
    26  C   -0.030325
    27  C    0.111464
    28  C   -0.041023
    29  C   -0.048571
    30  C    0.250293
    31  C   -0.141497
    32  C    0.132170
    33  C   -0.187389
    34  C    0.082458
    35  C   -0.127622
    36  C   -0.086647
    37  C    0.185029
    38  C    0.055440
    39  C    0.149757
    40  C   -0.067198
    41  C    0.194208
    42  C    0.151896
    43  C    0.108369
    44  H    0.215261
    45  H   -0.045554
    46  H   -0.001142
    47  H    0.035836
    48  H    0.033924
    49  H   -0.001348
    50  H    0.011783
    51  H    0.076850
    52  H    0.192715
    53  H    0.055473
    54  H    0.054071
    55  H    0.045684
    56  H    0.175246
    57  H    0.035469
    58  H    0.038834
    59  H    0.051367
    60  H    0.020853
    61  H   -0.025666
    62  H   -0.016193
    63  H   -0.012904
    64  H   -0.033512
    65  H   -0.007766
    66  H    0.013142
    67  H    0.007794
    68  H    0.026827
    69  H    0.066206
    70  H   -0.029388
    71  H    0.028989
    72  H    0.016091
    73  H    0.032553
    74  H    0.046538
    75  H   -0.023365
    76  H    0.015311
    77  H   -0.030201
    78  H   -0.028534
    79  H    0.037822
    80  H    0.202185
    81  H    0.160831
 Sum of Mulliken charges =  -0.00000

 Dipole moment (field-independent basis, Debye):
    X=             -2.9747    Y=              0.7580    Z=             -1.4706  Tot=              3.4039
 Quadrupole moment (field-independent basis, Debye-Ang):
   XX=           -245.6035   YY=           -237.7115   ZZ=           -252.0850
   XY=             12.4626   XZ=             12.9098   YZ=            -13.9150

 Normal termination of Gaussian 16 at Sun Jun 30 17:29:18 2019.
