 Gaussian 16, Revision A.03,
 Gaussian 16:  ES64L-G16RevA.03 25-Dec-2016

 --------------------------
 # td=(NStates=1) B3LYP/SVP
 --------------------------

 --
 TD
 --
 Symbolic Z-matrix:
 Charge =  0 Multiplicity = 1

                         Standard orientation:
 ---------------------------------------------------------------------
 Center     Atomic      Atomic             Coordinates (Angstroms)
 Number     Number       Type             X           Y           Z
 ---------------------------------------------------------------------
      1          8           0        4.275558   -4.766821   -2.132829
      2          8           0       -2.809824   -4.944278   -1.042099
      3          8           0       -7.029505   -1.500221   -1.900045
      4          8           0       -3.634667   -3.214854    0.175308
      5          8           0       -7.646610   -0.582385   -0.077951
      6          8           0        3.043150    2.401635    0.329196
      7          7           0        0.295039   -0.538459    0.627262
      8          7           0       -1.586305    1.860050    0.287311
      9          7           0        3.276382   -3.064793   -0.822979
     10          7           0        0.730691    2.859837    0.104735
     11          6           0       -0.655711   -2.362461    1.468594
     12          6           0       -0.895476   -1.042967    1.087798
     13          6           0        0.778535   -2.617165    1.320680
     14          6           0        1.303803   -1.502860    0.712281
     15          6           0       -3.827236    1.408895    0.252505
     16          6           0       -2.508329    0.876402    0.553856
     17          6           0       -2.207437   -0.413613    0.948302
     18          6           0       -3.505872    2.757078   -0.172058
     19          6           0       -1.631454   -3.337521    2.221834
     20          6           0        5.506391   -2.720276   -1.528430
     21          6           0        3.587431   -1.819607   -0.250908
     22          6           0       -2.072562    2.954102   -0.078950
     23          6           0        4.947024   -1.517277   -0.616078
     24          6           0       -5.230651    0.821697    0.238804
     25          6           0        2.589309   -0.985393    0.414875
     26          6           0        1.601826   -3.734637    1.961065
     27          6           0        4.336277   -3.618541   -1.532455
     28          6           0       -1.860358   -4.528324    1.194952
     29          6           0       -5.332248   -0.255578   -0.899421
     30          6           0       -4.625003    3.773037   -0.608123
     31          6           0       -1.304910    4.044278   -0.382838
     32          6           0        6.761496   -3.334393   -0.845596
     33          6           0        5.788577   -0.514502   -0.226442
     34          6           0        0.115591    4.021794   -0.252140
     35          6           0        1.031946    5.166692   -0.319281
     36          6           0        2.255570    4.596930   -0.206164
     37          6           0       -2.893557   -4.163640    0.110407
     38          6           0        5.448915    0.553680    0.818766
     39          6           0       -6.740415   -0.786222   -0.830901
     40          6           0        3.713112    5.331395   -0.263912
     41          6           0        2.118472    3.115504    0.077864
     42          6           0        0.566145    6.595438   -0.785032
     43          6           0        4.151469    5.613789    1.184196
     44          1           0        0.090784    0.549686    0.352963
     45          1           0       -3.055642   -1.106356    1.158464
     46          1           0       -2.502441   -2.797934    2.522289
     47          1           0       -1.125241   -3.607002    3.000100
     48          1           0        5.553893   -2.482529   -2.570806
     49          1           0       -5.171618    0.265280    1.253613
     50          1           0       -5.929928    1.685495    0.129298
     51          1           0        2.692020    0.074040    0.517091
     52          1           0       -0.611471    1.913814    0.675755
     53          1           0        1.493951   -4.762747    1.444559
     54          1           0        2.734290   -3.529545    1.775068
     55          1           0        1.401728   -4.129755    3.049416
     56          1           0        2.411201   -3.647596   -0.535295
     57          1           0       -0.794686   -4.805914    0.707160
     58          1           0       -2.313559   -5.435487    1.670073
     59          1           0       -4.410835   -1.120123   -0.546675
     60          1           0       -5.051583    0.149825   -1.933385
     61          1           0       -4.873948    4.662889    0.108737
     62          1           0       -5.548465    3.358125   -0.588084
     63          1           0       -4.463386    4.196209   -1.703765
     64          1           0       -1.693913    5.106564   -0.646937
     65          1           0        7.684906   -2.568389   -0.605401
     66          1           0        7.063389   -4.023337   -1.688730
     67          1           0        6.306488   -3.608527    0.225947
     68          1           0        6.832082   -0.478842   -0.858506
     69          1           0        4.993473    1.388090    0.246508
     70          1           0        6.329539    0.981576    1.552850
     71          1           0        4.865811    0.033974    1.539979
     72          1           0        3.583406    6.376679   -0.770932
     73          1           0        4.429919    4.722488   -0.739473
     74          1           0        0.182833    6.494649   -1.937951
     75          1           0        1.442860    7.238707   -0.677684
     76          1           0       -0.287040    6.944320    0.015234
     77          1           0        3.535814    6.500132    1.645422
     78          1           0        5.204426    5.881717    1.097361
     79          1           0        4.055874    4.786009    1.959281
     80          1           0       -3.610250   -4.737141   -1.681639
     81          1           0       -7.904145   -1.684499   -1.957147
 ---------------------------------------------------------------------

 SCF Done:  E(RB3LYP) =  -1949.07154238     A.U. after   16 cycles

 Excitation energies and oscillator strengths:

 Excited State   1:      Singlet-A      1.7922 eV  691.79 nm  f=0.3083  <S**2>=0.000
     156 ->157         0.70598
 This state for optimization and/or second-order correction.
 Total Energy, E(TD-HF/TD-DFT) =  -1949.00567947
 Copying the excited state density for this state as the 1-particle RhoCI density.

 The electronic state is 1-A.
 Alpha  occ. eigenvalues --  -19.19132 -19.16752 -19.14766 -19.12147 -19.11300
 Alpha  occ. eigenvalues --  -19.09959 -14.38112 -14.37004 -14.36500 -14.29007
 Alpha  occ. eigenvalues --  -10.33923 -10.31801 -10.29016 -10.26983 -10.25103
 Alpha  occ. eigenvalues --  -10.24003 -10.23790 -10.23494 -10.23290 -10.23125
 Alpha  occ. eigenvalues --  -10.23051 -10.22559 -10.22410 -10.22331 -10.22136
 Alpha  occ. eigenvalues --  -10.21972 -10.21564 -10.21543 -10.21266 -10.20953
 Alpha  occ. eigenvalues --  -10.20766 -10.20661 -10.20264 -10.20210 -10.20161
 Alpha  occ. eigenvalues --  -10.20039 -10.20019 -10.19976 -10.19482 -10.19084
 Alpha  occ. eigenvalues --  -10.19049 -10.18760 -10.18597  -1.11946  -1.09265
 Alpha  occ. eigenvalues --   -1.03338  -1.02011  -1.00918  -1.00748  -0.99945
 Alpha  occ. eigenvalues --   -0.97191  -0.93270  -0.91778  -0.82846  -0.81209
 Alpha  occ. eigenvalues --   -0.81015  -0.80831  -0.78867  -0.78240  -0.77046
 Alpha  occ. eigenvalues --   -0.76548  -0.75951  -0.74618  -0.73743  -0.71721
 Alpha  occ. eigenvalues --   -0.70679  -0.69544  -0.69204  -0.68167  -0.68075
 Alpha  occ. eigenvalues --   -0.67139  -0.65695  -0.64161  -0.62123  -0.61710
 Alpha  occ. eigenvalues --   -0.60318  -0.59286  -0.58733  -0.57836  -0.57383
 Alpha  occ. eigenvalues --   -0.56401  -0.55356  -0.54652  -0.53205  -0.52171
 Alpha  occ. eigenvalues --   -0.51884  -0.51293  -0.50752  -0.50134  -0.50081
 Alpha  occ. eigenvalues --   -0.49178  -0.48424  -0.48146  -0.47751  -0.47687
 Alpha  occ. eigenvalues --   -0.47142  -0.46590  -0.45993  -0.45465  -0.44814
 Alpha  occ. eigenvalues --   -0.44426  -0.43993  -0.43582  -0.43372  -0.43281
 Alpha  occ. eigenvalues --   -0.43046  -0.42360  -0.42132  -0.41924  -0.41658
 Alpha  occ. eigenvalues --   -0.41365  -0.41229  -0.41072  -0.40657  -0.40541
 Alpha  occ. eigenvalues --   -0.40499  -0.40087  -0.39953  -0.39488  -0.39422
 Alpha  occ. eigenvalues --   -0.39285  -0.38987  -0.38916  -0.38683  -0.38429
 Alpha  occ. eigenvalues --   -0.38227  -0.37933  -0.37762  -0.37261  -0.37004
 Alpha  occ. eigenvalues --   -0.36247  -0.35433  -0.35343  -0.35147  -0.34382
 Alpha  occ. eigenvalues --   -0.34152  -0.33788  -0.33544  -0.33480  -0.32651
 Alpha  occ. eigenvalues --   -0.32495  -0.32189  -0.31822  -0.30735  -0.29764
 Alpha  occ. eigenvalues --   -0.28633  -0.28160  -0.26330  -0.25551  -0.25308
 Alpha  occ. eigenvalues --   -0.24776  -0.24467  -0.24336  -0.23557  -0.21316
 Alpha  occ. eigenvalues --   -0.17931
 Alpha virt. eigenvalues --   -0.10531  -0.06226  -0.04872  -0.01832  -0.00671
 Alpha virt. eigenvalues --   -0.00164   0.02282   0.02762   0.02975   0.03597
 Alpha virt. eigenvalues --    0.04027   0.04185   0.04374   0.05305   0.05995

 Mulliken charges:
               1
     1  O   -0.295645
     2  O   -0.255368
     3  O   -0.117140
     4  O   -0.214123
     5  O   -0.217225
     6  O   -0.179635
     7  N   -0.148817
     8  N    0.014447
     9  N   -0.141886
    10  N   -0.365650
    11  C   -0.191032
    12  C    0.005285
    13  C   -0.109319
    14  C    0.112848
    15  C   -0.096237
    16  C    0.063975
    17  C   -0.068489
    18  C   -0.144424
    19  C    0.273334
    20  C    0.015114
    21  C    0.098681
    22  C    0.095563
    23  C   -0.082969
    24  C    0.112125
    25  C   -0.085568
    26  C   -0.022682
    27  C    0.108860
    28  C   -0.067250
    29  C   -0.149536
    30  C    0.084610
    31  C   -0.159075
    32  C   -0.009791
    33  C   -0.169905
    34  C    0.043160
    35  C   -0.096876
    36  C   -0.191257
    37  C    0.162993
    38  C    0.036453
    39  C    0.141639
    40  C    0.087331
    41  C    0.176822
    42  C    0.024038
    43  C   -0.040678
    44  H    0.181914
    45  H    0.021375
    46  H    0.000877
    47  H   -0.055116
    48  H    0.034845
    49  H    0.044179
    50  H    0.037394
    51  H    0.012080
    52  H    0.165187
    53  H    0.019787
    54  H    0.043607
    55  H    0.048285
    56  H    0.168821
    57  H    0.080245
    58  H    0.048976
    59  H    0.120685
    60  H    0.062883
    61  H    0.032612
    62  H   -0.042191
    63  H    0.039114
    64  H   -0.001056
    65  H    0.046717
    66  H    0.054898
    67  H    0.048525
    68  H    0.030541
    69  H    0.083274
    70  H    0.021680
    71  H    0.020765
    72  H    0.015687
    73  H    0.005304
    74  H    0.070197
    75  H    0.024887
    76  H    0.052557
    77  H    0.017552
    78  H    0.012393
    79  H    0.037417
    80  H    0.223867
    81  H    0.132536
 Sum of Mulliken charges =  -0.00000

 Dipole moment (field-independent basis, Debye):
    X=             -2.6520    Y=              1.6726    Z=              0.5484  Tot=              3.1830
 Quadrupole moment (field-independent basis, Debye-Ang):
   XX=           -253.2874   YY=           -244.7821   ZZ=           -254.0990
   XY=             18.6122   XZ=             17.0367   YZ=            -17.9967

 Normal termination of Gaussian 16 at Sun Jun 30 04:40:57 2019.
