 Gaussian 16, Revision A.03,
 Gaussian 16:  ES64L-G16RevA.03 25-Dec-2016

 --------------------------
 # td=(NStates=1) B3LYP/SVP
 --------------------------

 --
 TD
 --
 Symbolic Z-matrix:
 Charge =  0 Multiplicity = 1

                         Standard orientation:
 ---------------------------------------------------------------------
 Center     Atomic      Atomic             Coordinates (Angstroms)
 Number     Number       Type             X           Y           Z
 ---------------------------------------------------------------------
      1          8           0        4.372921   -4.884367   -1.913113
      2          8           0       -2.981997   -4.944006   -1.080835
      3          8           0       -6.911533   -1.528553   -1.843869
      4          8           0       -3.870055   -3.233764    0.137345
      5          8           0       -7.645623   -0.514435   -0.054590
      6          8           0        2.976148    2.474049    0.305943
      7          7           0        0.207371   -0.621635    0.407568
      8          7           0       -1.538251    1.859308    0.339666
      9          7           0        3.404952   -3.169913   -0.581290
     10          7           0        0.776090    2.932832    0.027732
     11          6           0       -0.683566   -2.441833    1.415107
     12          6           0       -0.947491   -1.160394    0.894704
     13          6           0        0.753350   -2.623099    1.279461
     14          6           0        1.248812   -1.453855    0.647405
     15          6           0       -3.781461    1.493519    0.288329
     16          6           0       -2.444357    0.863159    0.508460
     17          6           0       -2.195242   -0.480096    0.785785
     18          6           0       -3.469100    2.750674   -0.108221
     19          6           0       -1.600285   -3.321795    2.080957
     20          6           0        5.571219   -2.806311   -1.334403
     21          6           0        3.588240   -1.855143   -0.248003
     22          6           0       -2.092620    2.975396   -0.041190
     23          6           0        5.010107   -1.633204   -0.619415
     24          6           0       -5.062267    0.805904    0.400288
     25          6           0        2.618148   -1.117895    0.338232
     26          6           0        1.468674   -3.863845    1.789440
     27          6           0        4.386464   -3.774608   -1.289073
     28          6           0       -2.068924   -4.465530    1.122377
     29          6           0       -5.291684   -0.150640   -0.859375
     30          6           0       -4.421003    4.051550   -0.429835
     31          6           0       -1.304799    4.026363   -0.397737
     32          6           0        6.826536   -3.360985   -0.732289
     33          6           0        5.796230   -0.593041   -0.185529
     34          6           0        0.056178    4.028412   -0.325422
     35          6           0        0.998335    5.203445   -0.441823
     36          6           0        2.268454    4.769104   -0.179422
     37          6           0       -3.094971   -4.209428    0.054459
     38          6           0        5.392648    0.683738    0.563839
     39          6           0       -6.717010   -0.702593   -0.857432
     40          6           0        3.630177    5.523789   -0.101515
     41          6           0        2.193785    3.291426    0.021589
     42          6           0        0.599838    6.595513   -0.793291
     43          6           0        4.232308    5.487097    1.292352
     44          1           0        0.187152    0.223974   -0.108667
     45          1           0       -3.155789   -1.216516    0.759261
     46          1           0       -2.377736   -2.882196    2.535637
     47          1           0       -1.098490   -3.837787    3.037016
     48          1           0        5.526659   -2.681155   -2.375872
     49          1           0       -5.433161    0.215592    1.284519
     50          1           0       -5.857460    1.382887    0.519643
     51          1           0        2.947084   -0.035916    0.541608
     52          1           0       -0.466369    1.881374    0.531123
     53          1           0        1.381942   -4.852285    1.129686
     54          1           0        2.468332   -3.486996    2.031871
     55          1           0        0.865764   -4.115564    2.758022
     56          1           0        2.319304   -3.668758   -0.560860
     57          1           0       -1.117174   -4.833968    0.723222
     58          1           0       -2.422430   -5.211309    1.993210
     59          1           0       -4.653255   -1.013831   -0.894239
     60          1           0       -4.914177    0.423305   -1.646724
     61          1           0       -4.474200    4.754787    0.394992
     62          1           0       -5.472191    3.659048   -0.625210
     63          1           0       -4.003943    4.394503   -1.530218
     64          1           0       -1.711291    5.122535   -0.510418
     65          1           0        7.721893   -2.630019   -0.718412
     66          1           0        7.090222   -4.255036   -1.205247
     67          1           0        6.588097   -3.656246    0.183325
     68          1           0        6.912638   -0.470286   -0.506846
     69          1           0        4.811222    1.242304   -0.339180
     70          1           0        6.314293    1.290308    0.743607
     71          1           0        4.787175    0.468502    1.463528
     72          1           0        3.453907    6.518574   -0.503959
     73          1           0        4.455277    4.882194   -0.616972
     74          1           0       -0.015725    6.612242   -1.543971
     75          1           0        1.419365    7.457888   -1.138151
     76          1           0       -0.178906    6.891245   -0.048164
     77          1           0        3.773545    6.426662    1.935419
     78          1           0        5.285724    5.634070    1.182815
     79          1           0        4.154547    4.478638    1.791996
     80          1           0       -3.517864   -4.468119   -1.798253
     81          1           0       -7.852347   -1.808944   -1.864748
 ---------------------------------------------------------------------

 SCF Done:  E(RB3LYP) =  -1949.09865043     A.U. after   16 cycles

 Excitation energies and oscillator strengths:

 Excited State   1:      Singlet-A      1.9359 eV  640.44 nm  f=0.3218  <S**2>=0.000
     156 ->157         0.70371
 This state for optimization and/or second-order correction.
 Total Energy, E(TD-HF/TD-DFT) =  -1949.02750647
 Copying the excited state density for this state as the 1-particle RhoCI density.

 The electronic state is 1-A.
 Alpha  occ. eigenvalues --  -19.20709 -19.18803 -19.14544 -19.12110 -19.11139
 Alpha  occ. eigenvalues --  -19.09855 -14.38097 -14.37801 -14.35720 -14.28129
 Alpha  occ. eigenvalues --  -10.34620 -10.32395 -10.28460 -10.26554 -10.24234
 Alpha  occ. eigenvalues --  -10.23610 -10.23459 -10.22903 -10.22889 -10.22586
 Alpha  occ. eigenvalues --  -10.22381 -10.21901 -10.21676 -10.21429 -10.20935
 Alpha  occ. eigenvalues --  -10.20858 -10.20759 -10.20585 -10.20431 -10.20096
 Alpha  occ. eigenvalues --  -10.19976 -10.19867 -10.19775 -10.19690 -10.19320
 Alpha  occ. eigenvalues --  -10.19274 -10.19272 -10.19097 -10.19043 -10.18863
 Alpha  occ. eigenvalues --  -10.18775 -10.18444 -10.17343  -1.11236  -1.10354
 Alpha  occ. eigenvalues --   -1.04750  -1.00906  -1.00887  -1.00460  -0.99117
 Alpha  occ. eigenvalues --   -0.98906  -0.94629  -0.90470  -0.83078  -0.82553
 Alpha  occ. eigenvalues --   -0.81584  -0.81102  -0.79525  -0.78807  -0.77494
 Alpha  occ. eigenvalues --   -0.77258  -0.76581  -0.75649  -0.74127  -0.72418
 Alpha  occ. eigenvalues --   -0.70890  -0.69695  -0.69439  -0.69244  -0.68667
 Alpha  occ. eigenvalues --   -0.67852  -0.65840  -0.63829  -0.61902  -0.61835
 Alpha  occ. eigenvalues --   -0.61342  -0.60394  -0.58857  -0.58151  -0.57922
 Alpha  occ. eigenvalues --   -0.57244  -0.56026  -0.55768  -0.54312  -0.52920
 Alpha  occ. eigenvalues --   -0.52139  -0.51289  -0.51197  -0.50838  -0.50107
 Alpha  occ. eigenvalues --   -0.49131  -0.48686  -0.48513  -0.48143  -0.47547
 Alpha  occ. eigenvalues --   -0.47483  -0.46675  -0.46360  -0.46030  -0.45263
 Alpha  occ. eigenvalues --   -0.45036  -0.44734  -0.44353  -0.44331  -0.44021
 Alpha  occ. eigenvalues --   -0.43264  -0.42934  -0.42556  -0.42228  -0.42103
 Alpha  occ. eigenvalues --   -0.41766  -0.41515  -0.41348  -0.41194  -0.41021
 Alpha  occ. eigenvalues --   -0.40877  -0.40044  -0.39705  -0.39602  -0.39338
 Alpha  occ. eigenvalues --   -0.39149  -0.39014  -0.38915  -0.38653  -0.38524
 Alpha  occ. eigenvalues --   -0.38208  -0.38015  -0.37741  -0.37654  -0.36938
 Alpha  occ. eigenvalues --   -0.36178  -0.36086  -0.35785  -0.35342  -0.34556
 Alpha  occ. eigenvalues --   -0.34319  -0.33852  -0.33573  -0.33341  -0.32936
 Alpha  occ. eigenvalues --   -0.32599  -0.32021  -0.31733  -0.29852  -0.29605
 Alpha  occ. eigenvalues --   -0.28076  -0.27545  -0.26134  -0.25852  -0.25222
 Alpha  occ. eigenvalues --   -0.24991  -0.24149  -0.24134  -0.23187  -0.21407
 Alpha  occ. eigenvalues --   -0.18072
 Alpha virt. eigenvalues --   -0.10146  -0.05192  -0.03938  -0.03752   0.00040
 Alpha virt. eigenvalues --    0.00580   0.01401   0.02028   0.02889   0.03579
 Alpha virt. eigenvalues --    0.03874   0.04727   0.04854   0.05244   0.05586

 Mulliken charges:
               1
     1  O   -0.282244
     2  O   -0.195654
     3  O   -0.143870
     4  O   -0.261229
     5  O   -0.272077
     6  O   -0.133092
     7  N   -0.001046
     8  N   -0.049046
     9  N   -0.157348
    10  N   -0.377128
    11  C   -0.069015
    12  C    0.014803
    13  C   -0.178516
    14  C    0.065834
    15  C   -0.034975
    16  C    0.041074
    17  C   -0.124599
    18  C   -0.144252
    19  C    0.092322
    20  C    0.044195
    21  C    0.108572
    22  C    0.109707
    23  C   -0.020840
    24  C    0.122217
    25  C   -0.177289
    26  C    0.029273
    27  C    0.072108
    28  C   -0.014160
    29  C   -0.000265
    30  C    0.031317
    31  C   -0.162777
    32  C    0.156771
    33  C   -0.218046
    34  C    0.086769
    35  C   -0.104298
    36  C   -0.196965
    37  C    0.193485
    38  C    0.027396
    39  C    0.140230
    40  C    0.086215
    41  C    0.146625
    42  C    0.159000
    43  C   -0.033059
    44  H    0.109908
    45  H    0.082755
    46  H   -0.029243
    47  H    0.017105
    48  H    0.011737
    49  H    0.017556
    50  H   -0.050639
    51  H    0.039018
    52  H    0.165499
    53  H    0.060297
    54  H    0.043846
    55  H    0.021922
    56  H    0.196847
    57  H    0.026761
    58  H    0.064598
    59  H    0.032823
    60  H    0.020128
    61  H    0.049716
    62  H    0.023529
    63  H    0.051651
    64  H   -0.008167
    65  H    0.030980
    66  H    0.001408
    67  H   -0.031895
    68  H    0.018345
    69  H    0.087103
    70  H    0.012435
    71  H    0.053907
    72  H   -0.004125
    73  H    0.019996
    74  H   -0.044205
    75  H    0.052943
    76  H    0.008707
    77  H    0.023331
    78  H    0.001498
    79  H    0.042529
    80  H    0.215465
    81  H    0.187805
 Sum of Mulliken charges =  -0.00000

 Dipole moment (field-independent basis, Debye):
    X=             -2.3081    Y=              1.7300    Z=             -0.5451  Tot=              2.9355
 Quadrupole moment (field-independent basis, Debye-Ang):
   XX=           -256.5507   YY=           -245.5042   ZZ=           -253.0821
   XY=             21.3465   XZ=             18.7367   YZ=            -15.6357

 Normal termination of Gaussian 16 at Thu Jun 27 15:47:14 2019.
