 Gaussian 16, Revision A.03,
 Gaussian 16:  ES64L-G16RevA.03 25-Dec-2016

 --------------------------
 # td=(NStates=1) B3LYP/SVP
 --------------------------

 --
 TD
 --
 Symbolic Z-matrix:
 Charge =  0 Multiplicity = 1

                         Standard orientation:
 ---------------------------------------------------------------------
 Center     Atomic      Atomic             Coordinates (Angstroms)
 Number     Number       Type             X           Y           Z
 ---------------------------------------------------------------------
      1          8           0        4.084183   -4.808156   -1.897319
      2          8           0       -3.366913   -4.931518   -0.929928
      3          8           0       -6.676107   -1.628011   -1.995901
      4          8           0       -3.841001   -2.976434    0.080599
      5          8           0       -7.588714   -0.387483   -0.294442
      6          8           0        2.968782    2.453215    0.474736
      7          7           0        0.379243   -0.554688    0.705689
      8          7           0       -1.510904    1.839434    0.439346
      9          7           0        3.245968   -3.061674   -0.655180
     10          7           0        0.781136    2.858320    0.102333
     11          6           0       -0.585134   -2.399599    1.463218
     12          6           0       -0.822005   -1.075263    0.981482
     13          6           0        0.857744   -2.551960    1.293183
     14          6           0        1.408899   -1.380522    0.803798
     15          6           0       -3.700848    1.535631    0.348180
     16          6           0       -2.534523    0.908106    0.686116
     17          6           0       -2.166415   -0.424237    0.914263
     18          6           0       -3.501338    2.904088    0.012657
     19          6           0       -1.617848   -3.426437    2.013732
     20          6           0        5.317701   -2.896185   -1.444700
     21          6           0        3.603585   -1.855526   -0.242803
     22          6           0       -2.034693    3.005530    0.068618
     23          6           0        4.953039   -1.594852   -0.552302
     24          6           0       -5.112073    0.788829    0.357873
     25          6           0        2.706742   -1.010162    0.457782
     26          6           0        1.596102   -3.859129    1.833337
     27          6           0        4.105658   -3.777095   -1.401439
     28          6           0       -2.116708   -4.406476    1.082529
     29          6           0       -5.269448   -0.080704   -0.877182
     30          6           0       -4.496020    3.950993   -0.272639
     31          6           0       -1.247005    4.144300   -0.147540
     32          6           0        6.629646   -3.600061   -0.993191
     33          6           0        5.833228   -0.600649   -0.212708
     34          6           0        0.163225    4.030627   -0.258956
     35          6           0        1.108315    5.159191   -0.594109
     36          6           0        2.310580    4.602804   -0.328261
     37          6           0       -3.199597   -3.992357    0.051554
     38          6           0        5.581303    0.581654    0.673885
     39          6           0       -6.614214   -0.679306   -1.011144
     40          6           0        3.717523    5.141836   -0.416499
     41          6           0        2.085236    3.148617    0.053961
     42          6           0        0.572207    6.552874   -0.822077
     43          6           0        4.363951    5.431674    0.977402
     44          1           0        0.431208    0.413287    0.320136
     45          1           0       -2.852307   -1.287262    1.275977
     46          1           0       -2.540111   -3.034977    2.304747
     47          1           0       -1.172595   -3.987034    2.786918
     48          1           0        5.425011   -2.420707   -2.438590
     49          1           0       -5.262144    0.198264    1.186558
     50          1           0       -6.089098    1.615637    0.373843
     51          1           0        3.077234    0.023430    1.035901
     52          1           0       -0.549118    1.735271    0.469820
     53          1           0        1.501492   -4.571116    1.077275
     54          1           0        2.675502   -3.705268    1.907914
     55          1           0        1.004678   -4.013196    2.762925
     56          1           0        2.363021   -3.506003   -0.491986
     57          1           0       -1.290638   -4.974571    0.442609
     58          1           0       -2.463287   -5.334707    1.598751
     59          1           0       -4.610235   -0.943987   -0.911645
     60          1           0       -5.288475    0.584717   -1.791992
     61          1           0       -4.130763    4.924912    0.305283
     62          1           0       -5.614421    3.941514   -0.114720
     63          1           0       -4.341427    4.308533   -1.326393
     64          1           0       -1.659397    5.281198   -0.489857
     65          1           0        7.403836   -2.802875   -0.771678
     66          1           0        6.807998   -4.452182   -1.767661
     67          1           0        6.303592   -3.977736    0.003715
     68          1           0        6.728557   -0.553886   -0.735111
     69          1           0        4.693405    1.294111    0.185756
     70          1           0        6.358383    1.327435    0.787151
     71          1           0        5.476563    0.174954    1.812018
     72          1           0        3.629445    6.135072   -1.065361
     73          1           0        4.290245    4.233543   -0.875501
     74          1           0        0.206493    6.503930   -1.932519
     75          1           0        1.495876    7.050249   -0.789144
     76          1           0       -0.230636    6.961984   -0.217456
     77          1           0        3.872950    6.285408    1.370282
     78          1           0        5.497706    5.511209    0.820164
     79          1           0        4.237168    4.604798    1.666707
     80          1           0       -4.136271   -4.766461   -1.444484
     81          1           0       -7.540252   -1.777541   -1.965738
 ---------------------------------------------------------------------

 SCF Done:  E(RB3LYP) =  -1949.10775530     A.U. after   16 cycles

 Excitation energies and oscillator strengths:

 Excited State   1:      Singlet-A      1.8227 eV  680.22 nm  f=0.2869  <S**2>=0.000
     156 ->157         0.70258
 This state for optimization and/or second-order correction.
 Total Energy, E(TD-HF/TD-DFT) =  -1949.04077248
 Copying the excited state density for this state as the 1-particle RhoCI density.

 The electronic state is 1-A.
 Alpha  occ. eigenvalues --  -19.19214 -19.18233 -19.15207 -19.12714 -19.11507
 Alpha  occ. eigenvalues --  -19.09313 -14.37520 -14.37228 -14.35621 -14.28166
 Alpha  occ. eigenvalues --  -10.34302 -10.32042 -10.28349 -10.25144 -10.24483
 Alpha  occ. eigenvalues --  -10.24168 -10.23435 -10.23296 -10.23031 -10.22667
 Alpha  occ. eigenvalues --  -10.22590 -10.22336 -10.21280 -10.21080 -10.21034
 Alpha  occ. eigenvalues --  -10.20821 -10.20783 -10.20420 -10.20207 -10.20097
 Alpha  occ. eigenvalues --  -10.19931 -10.19887 -10.19612 -10.19600 -10.19597
 Alpha  occ. eigenvalues --  -10.19583 -10.19511 -10.19494 -10.19199 -10.19071
 Alpha  occ. eigenvalues --  -10.18953 -10.18538 -10.17699  -1.11235  -1.11112
 Alpha  occ. eigenvalues --   -1.07774  -1.02948  -1.02143  -1.00340  -1.00045
 Alpha  occ. eigenvalues --   -0.99156  -0.98937  -0.91548  -0.83248  -0.82017
 Alpha  occ. eigenvalues --   -0.81001  -0.80809  -0.79530  -0.79083  -0.78276
 Alpha  occ. eigenvalues --   -0.77733  -0.75929  -0.75010  -0.73832  -0.72382
 Alpha  occ. eigenvalues --   -0.71445  -0.70275  -0.69536  -0.69105  -0.68124
 Alpha  occ. eigenvalues --   -0.67920  -0.65615  -0.63989  -0.62858  -0.61689
 Alpha  occ. eigenvalues --   -0.60910  -0.59383  -0.58421  -0.57925  -0.57540
 Alpha  occ. eigenvalues --   -0.56528  -0.55329  -0.54998  -0.54790  -0.53571
 Alpha  occ. eigenvalues --   -0.53094  -0.52181  -0.51039  -0.50757  -0.49610
 Alpha  occ. eigenvalues --   -0.49281  -0.49047  -0.49006  -0.48549  -0.48211
 Alpha  occ. eigenvalues --   -0.47564  -0.46459  -0.45853  -0.45460  -0.45251
 Alpha  occ. eigenvalues --   -0.45016  -0.44889  -0.44476  -0.44423  -0.43642
 Alpha  occ. eigenvalues --   -0.43535  -0.43476  -0.43344  -0.42987  -0.42417
 Alpha  occ. eigenvalues --   -0.42348  -0.42135  -0.41577  -0.41371  -0.41169
 Alpha  occ. eigenvalues --   -0.40789  -0.40679  -0.40052  -0.39948  -0.39649
 Alpha  occ. eigenvalues --   -0.39370  -0.39052  -0.38810  -0.38382  -0.38171
 Alpha  occ. eigenvalues --   -0.37789  -0.37429  -0.37053  -0.36782  -0.36461
 Alpha  occ. eigenvalues --   -0.36407  -0.35483  -0.35329  -0.34971  -0.34845
 Alpha  occ. eigenvalues --   -0.34579  -0.34488  -0.34084  -0.33011  -0.32650
 Alpha  occ. eigenvalues --   -0.32403  -0.32365  -0.30971  -0.30306  -0.29543
 Alpha  occ. eigenvalues --   -0.27928  -0.27719  -0.26566  -0.26095  -0.25498
 Alpha  occ. eigenvalues --   -0.24930  -0.24589  -0.23772  -0.23187  -0.21084
 Alpha  occ. eigenvalues --   -0.17939
 Alpha virt. eigenvalues --   -0.10329  -0.05420  -0.04515  -0.01852  -0.00050
 Alpha virt. eigenvalues --    0.01842   0.02735   0.03255   0.03621   0.04167
 Alpha virt. eigenvalues --    0.04657   0.04872   0.05576   0.06210   0.06809

 Mulliken charges:
               1
     1  O   -0.127572
     2  O   -0.179191
     3  O   -0.127548
     4  O   -0.204577
     5  O   -0.264447
     6  O   -0.207691
     7  N    0.014973
     8  N   -0.019409
     9  N   -0.033168
    10  N   -0.288199
    11  C   -0.114033
    12  C   -0.095440
    13  C   -0.246151
    14  C    0.067353
    15  C   -0.090406
    16  C    0.139695
    17  C   -0.020526
    18  C   -0.089604
    19  C    0.248130
    20  C   -0.129646
    21  C    0.061726
    22  C    0.098609
    23  C   -0.012886
    24  C    0.072657
    25  C   -0.184565
    26  C    0.119240
    27  C    0.077533
    28  C   -0.082124
    29  C    0.038388
    30  C    0.039271
    31  C   -0.170469
    32  C    0.036877
    33  C   -0.115756
    34  C    0.028825
    35  C   -0.098182
    36  C   -0.206154
    37  C    0.146625
    38  C   -0.031976
    39  C    0.105842
    40  C    0.001940
    41  C    0.131830
    42  C    0.121034
    43  C    0.025394
    44  H    0.131988
    45  H    0.036733
    46  H   -0.010321
    47  H   -0.022873
    48  H    0.037073
    49  H   -0.007693
    50  H    0.042665
    51  H    0.104294
    52  H    0.079726
    53  H    0.003913
    54  H    0.022793
    55  H    0.042990
    56  H    0.112778
    57  H    0.041448
    58  H    0.041688
    59  H    0.055063
    60  H    0.041405
    61  H    0.030235
    62  H    0.045170
    63  H    0.023014
    64  H    0.017727
    65  H    0.028096
    66  H    0.058245
    67  H    0.010092
    68  H   -0.025905
    69  H    0.117473
    70  H   -0.003549
    71  H    0.044356
    72  H    0.021313
    73  H    0.032284
    74  H    0.032630
    75  H   -0.001916
    76  H    0.044727
    77  H    0.003290
    78  H    0.021721
    79  H    0.022491
    80  H    0.173445
    81  H    0.115168
 Sum of Mulliken charges =  -0.00000

 Dipole moment (field-independent basis, Debye):
    X=             -2.5014    Y=             -0.1814    Z=             -0.3394  Tot=              2.5308
 Quadrupole moment (field-independent basis, Debye-Ang):
   XX=           -258.0728   YY=           -235.9679   ZZ=           -254.4860
   XY=             15.2343   XZ=             12.0691   YZ=            -15.2503

 Normal termination of Gaussian 16 at Fri Jun 28 03:13:51 2019.
