 Gaussian 16, Revision A.03,
 Gaussian 16:  ES64L-G16RevA.03 25-Dec-2016

 --------------------------
 # td=(NStates=1) B3LYP/SVP
 --------------------------

 --
 TD
 --
 Symbolic Z-matrix:
 Charge =  0 Multiplicity = 1

                         Standard orientation:
 ---------------------------------------------------------------------
 Center     Atomic      Atomic             Coordinates (Angstroms)
 Number     Number       Type             X           Y           Z
 ---------------------------------------------------------------------
      1          8           0        4.241737   -4.999289   -1.755395
      2          8           0       -3.274421   -4.813487   -1.100734
      3          8           0       -6.897046   -1.405213   -1.832155
      4          8           0       -4.048541   -3.087834    0.180800
      5          8           0       -7.717688   -0.112564   -0.180798
      6          8           0        3.093550    2.414693    0.541936
      7          7           0        0.259580   -0.569561    0.647270
      8          7           0       -1.526301    1.818893    0.402091
      9          7           0        3.146762   -3.203618   -0.824713
     10          7           0        0.930713    2.854572    0.139953
     11          6           0       -0.681053   -2.435920    1.413608
     12          6           0       -0.954120   -1.057109    0.996158
     13          6           0        0.617414   -2.588203    1.356315
     14          6           0        1.256056   -1.426782    0.758611
     15          6           0       -3.710662    1.612702    0.282064
     16          6           0       -2.469203    0.937684    0.610281
     17          6           0       -2.225976   -0.386527    0.958855
     18          6           0       -3.452374    2.932654   -0.057137
     19          6           0       -1.641713   -3.418325    1.947076
     20          6           0        5.361642   -2.790614   -1.443063
     21          6           0        3.539927   -1.967793   -0.174995
     22          6           0       -2.055006    3.066833   -0.043008
     23          6           0        4.927491   -1.736398   -0.436023
     24          6           0       -5.064094    1.055866    0.358348
     25          6           0        2.608031   -1.095685    0.501776
     26          6           0        1.444323   -3.819144    1.660248
     27          6           0        4.161792   -3.793322   -1.419972
     28          6           0       -2.333071   -4.494511    1.069499
     29          6           0       -5.282754   -0.004134   -0.833935
     30          6           0       -4.403104    3.920194   -0.543835
     31          6           0       -1.123700    4.123006   -0.318215
     32          6           0        6.742494   -3.470103   -1.135322
     33          6           0        5.836033   -0.829473   -0.120815
     34          6           0        0.275616    3.975005   -0.204654
     35          6           0        1.180504    5.097102   -0.562936
     36          6           0        2.413371    4.614624   -0.248247
     37          6           0       -3.365926   -4.062403   -0.004208
     38          6           0        5.467535    0.359423    0.820208
     39          6           0       -6.693109   -0.485949   -0.816311
     40          6           0        3.866989    5.250551   -0.362248
     41          6           0        2.261671    3.202171    0.266410
     42          6           0        0.797129    6.515593   -0.968901
     43          6           0        4.531560    5.519677    1.088827
     44          1           0        0.506871    0.407025    0.535014
     45          1           0       -2.876762   -1.004677    1.320602
     46          1           0       -2.359652   -2.949671    2.425521
     47          1           0       -0.950378   -4.065022    2.759972
     48          1           0        5.488781   -2.687865   -2.433205
     49          1           0       -5.187161    0.444942    1.345204
     50          1           0       -5.779714    1.774445    0.312825
     51          1           0        3.099337   -0.054878    0.622087
     52          1           0       -0.511703    1.792288    0.510569
     53          1           0        1.337982   -4.615184    0.904295
     54          1           0        2.766205   -3.538617    1.527612
     55          1           0        1.293071   -4.475989    2.674036
     56          1           0        2.281953   -3.876815   -0.403261
     57          1           0       -1.555353   -5.193590    0.602939
     58          1           0       -2.857804   -5.227725    1.601396
     59          1           0       -4.742842   -1.080195   -0.602499
     60          1           0       -4.913860    0.433755   -1.808224
     61          1           0       -4.363425    4.847840   -0.149091
     62          1           0       -5.609740    3.871750   -0.297894
     63          1           0       -4.263492    4.099210   -1.667529
     64          1           0       -1.753557    4.995927   -0.517987
     65          1           0        7.445427   -2.400490   -1.115084
     66          1           0        7.214179   -4.142718   -1.941144
     67          1           0        6.810399   -3.714013   -0.184914
     68          1           0        6.779062   -0.934603   -0.447519
     69          1           0        4.854802    1.341534    0.595955
     70          1           0        6.341249    0.682747    1.210948
     71          1           0        4.877769    0.136336    1.634538
     72          1           0        3.693299    6.110928   -1.007460
     73          1           0        4.503452    4.242764   -0.817481
     74          1           0        0.260096    6.299183   -1.921496
     75          1           0        1.746196    6.995621   -1.143150
     76          1           0        0.135653    6.962292   -0.424576
     77          1           0        3.975198    6.276722    1.743626
     78          1           0        5.469844    5.934141    0.768376
     79          1           0        4.662088    4.763729    1.730998
     80          1           0       -3.957396   -4.628102   -1.852876
     81          1           0       -7.718364   -2.019643   -1.839328
 ---------------------------------------------------------------------

 SCF Done:  E(RB3LYP) =  -1948.98970029     A.U. after   17 cycles

 Excitation energies and oscillator strengths:

 Excited State   1:      Singlet-A      1.7534 eV  707.11 nm  f=0.3838  <S**2>=0.000
     156 ->157         0.71384
     156 <-157        -0.14188
 This state for optimization and/or second-order correction.
 Total Energy, E(TD-HF/TD-DFT) =  -1948.92526466
 Copying the excited state density for this state as the 1-particle RhoCI density.

 The electronic state is 1-A.
 Alpha  occ. eigenvalues --  -19.21080 -19.16518 -19.14740 -19.11882 -19.10497
 Alpha  occ. eigenvalues --  -19.09244 -14.38836 -14.37852 -14.35550 -14.28333
 Alpha  occ. eigenvalues --  -10.34289 -10.32183 -10.27612 -10.25859 -10.25787
 Alpha  occ. eigenvalues --  -10.24142 -10.23894 -10.23803 -10.23520 -10.23246
 Alpha  occ. eigenvalues --  -10.22814 -10.22130 -10.22017 -10.21814 -10.21337
 Alpha  occ. eigenvalues --  -10.20922 -10.20839 -10.20451 -10.20308 -10.20160
 Alpha  occ. eigenvalues --  -10.20062 -10.19944 -10.19921 -10.19918 -10.19637
 Alpha  occ. eigenvalues --  -10.19506 -10.19326 -10.19191 -10.19064 -10.18482
 Alpha  occ. eigenvalues --  -10.18439 -10.17756 -10.16373  -1.11188  -1.05722
 Alpha  occ. eigenvalues --   -1.03925  -1.03135  -1.01476  -1.01157  -0.98702
 Alpha  occ. eigenvalues --   -0.96628  -0.93785  -0.91758  -0.83918  -0.82773
 Alpha  occ. eigenvalues --   -0.82342  -0.81689  -0.79395  -0.78647  -0.78305
 Alpha  occ. eigenvalues --   -0.76884  -0.76195  -0.74670  -0.73932  -0.72363
 Alpha  occ. eigenvalues --   -0.71884  -0.70321  -0.69721  -0.69350  -0.68590
 Alpha  occ. eigenvalues --   -0.67964  -0.66079  -0.65290  -0.63450  -0.62920
 Alpha  occ. eigenvalues --   -0.61442  -0.60363  -0.59417  -0.58783  -0.57747
 Alpha  occ. eigenvalues --   -0.56872  -0.55680  -0.55222  -0.54576  -0.53473
 Alpha  occ. eigenvalues --   -0.53202  -0.52098  -0.51696  -0.50256  -0.50146
 Alpha  occ. eigenvalues --   -0.49739  -0.49418  -0.48612  -0.47782  -0.47405
 Alpha  occ. eigenvalues --   -0.46789  -0.46636  -0.46065  -0.45866  -0.45698
 Alpha  occ. eigenvalues --   -0.45286  -0.44688  -0.44610  -0.44319  -0.43991
 Alpha  occ. eigenvalues --   -0.43654  -0.43187  -0.43072  -0.42685  -0.42468
 Alpha  occ. eigenvalues --   -0.42396  -0.42276  -0.41358  -0.41204  -0.41026
 Alpha  occ. eigenvalues --   -0.40793  -0.40489  -0.40299  -0.39202  -0.39084
 Alpha  occ. eigenvalues --   -0.39001  -0.38899  -0.38854  -0.38325  -0.37804
 Alpha  occ. eigenvalues --   -0.37672  -0.37452  -0.37024  -0.36709  -0.36660
 Alpha  occ. eigenvalues --   -0.36335  -0.36040  -0.35209  -0.35187  -0.34908
 Alpha  occ. eigenvalues --   -0.34592  -0.34373  -0.33778  -0.33744  -0.32931
 Alpha  occ. eigenvalues --   -0.32365  -0.31998  -0.30473  -0.30145  -0.29711
 Alpha  occ. eigenvalues --   -0.27973  -0.27279  -0.26751  -0.26230  -0.26093
 Alpha  occ. eigenvalues --   -0.24991  -0.24554  -0.23927  -0.22809  -0.21813
 Alpha  occ. eigenvalues --   -0.17675
 Alpha virt. eigenvalues --   -0.10906  -0.06152  -0.04490  -0.01572  -0.00764
 Alpha virt. eigenvalues --    0.00497   0.01220   0.01614   0.02544   0.03730
 Alpha virt. eigenvalues --    0.03801   0.04028   0.04329   0.05143   0.05420

 Mulliken charges:
               1
     1  O   -0.269432
     2  O   -0.199718
     3  O   -0.272090
     4  O   -0.210995
     5  O   -0.265624
     6  O   -0.163083
     7  N    0.015717
     8  N   -0.072107
     9  N   -0.147045
    10  N   -0.304432
    11  C   -0.050600
    12  C   -0.056802
    13  C   -0.080295
    14  C    0.065703
    15  C   -0.111727
    16  C    0.139336
    17  C    0.071494
    18  C   -0.044485
    19  C    0.110640
    20  C   -0.045563
    21  C    0.045211
    22  C    0.000021
    23  C    0.077637
    24  C    0.162260
    25  C   -0.124412
    26  C   -0.109248
    27  C    0.097685
    28  C    0.032264
    29  C   -0.114031
    30  C    0.044290
    31  C   -0.110447
    32  C    0.035411
    33  C   -0.063695
    34  C    0.149568
    35  C   -0.167013
    36  C   -0.204118
    37  C    0.136823
    38  C    0.057857
    39  C    0.190671
    40  C    0.006745
    41  C    0.137713
    42  C    0.238364
    43  C    0.042477
    44  H    0.131641
    45  H   -0.114927
    46  H   -0.026472
    47  H    0.029666
    48  H   -0.002542
    49  H    0.030214
    50  H   -0.025836
    51  H    0.059296
    52  H    0.119409
    53  H    0.038004
    54  H    0.072260
    55  H    0.057513
    56  H    0.191892
    57  H    0.022013
    58  H    0.018172
    59  H    0.102495
    60  H    0.067283
    61  H   -0.014388
    62  H    0.037856
    63  H    0.038342
    64  H   -0.040590
    65  H    0.005906
    66  H    0.056949
    67  H   -0.024536
    68  H   -0.057771
    69  H    0.086440
    70  H   -0.037538
    71  H   -0.009952
    72  H    0.008673
    73  H    0.053507
    74  H    0.011193
    75  H    0.006922
    76  H   -0.024604
    77  H    0.012525
    78  H    0.011949
    79  H    0.000657
    80  H    0.224380
    81  H    0.213073
 Sum of Mulliken charges =  -0.00000

 Dipole moment (field-independent basis, Debye):
    X=             -2.6521    Y=             -0.1092    Z=             -0.0215  Tot=              2.6545
 Quadrupole moment (field-independent basis, Debye-Ang):
   XX=           -266.0548   YY=           -236.4480   ZZ=           -252.8037
   XY=             27.6057   XZ=             15.2047   YZ=            -11.7606

 Normal termination of Gaussian 16 at Fri Jun 28 04:26:38 2019.
