 Gaussian 16, Revision A.03,
 Gaussian 16:  ES64L-G16RevA.03 25-Dec-2016

 --------------------------
 # td=(NStates=1) B3LYP/SVP
 --------------------------

 --
 TD
 --
 Symbolic Z-matrix:
 Charge =  0 Multiplicity = 1

                         Standard orientation:
 ---------------------------------------------------------------------
 Center     Atomic      Atomic             Coordinates (Angstroms)
 Number     Number       Type             X           Y           Z
 ---------------------------------------------------------------------
      1          8           0        4.413225   -4.625208   -2.046431
      2          8           0       -2.733372   -4.983199   -1.010551
      3          8           0       -6.813402   -1.580828   -2.075731
      4          8           0       -3.528174   -3.181846   -0.058133
      5          8           0       -7.455952   -0.876610    0.009369
      6          8           0        3.009104    2.403429    0.251592
      7          7           0        0.303415   -0.519898    0.701746
      8          7           0       -1.657191    1.786128    0.475114
      9          7           0        3.373463   -3.066601   -0.572093
     10          7           0        0.772196    2.914182    0.110107
     11          6           0       -0.636505   -2.417228    1.431623
     12          6           0       -0.882837   -1.117870    1.059900
     13          6           0        0.854915   -2.643062    1.308365
     14          6           0        1.341039   -1.428688    0.785323
     15          6           0       -3.888508    1.433324    0.218303
     16          6           0       -2.550066    0.822190    0.586524
     17          6           0       -2.288687   -0.497815    0.987919
     18          6           0       -3.634979    2.783079   -0.129326
     19          6           0       -1.480604   -3.326684    2.138976
     20          6           0        5.583966   -2.577382   -1.435843
     21          6           0        3.647693   -1.807220   -0.203663
     22          6           0       -2.178807    2.916653    0.052599
     23          6           0        5.049167   -1.493674   -0.463114
     24          6           0       -5.142164    0.652500    0.349188
     25          6           0        2.655485   -1.047169    0.486797
     26          6           0        1.500821   -3.774576    1.844814
     27          6           0        4.440746   -3.570248   -1.439772
     28          6           0       -1.904284   -4.489450    1.170143
     29          6           0       -5.336843   -0.178154   -0.955115
     30          6           0       -4.726410    3.690439   -0.471165
     31          6           0       -1.397265    4.039235   -0.255949
     32          6           0        6.867675   -3.258807   -1.028407
     33          6           0        5.851010   -0.468260   -0.116781
     34          6           0        0.004982    4.009143   -0.246269
     35          6           0        0.848405    5.193885   -0.455653
     36          6           0        2.215910    4.721858   -0.394450
     37          6           0       -2.853010   -4.179402   -0.032469
     38          6           0        5.389700    0.688363    0.918580
     39          6           0       -6.655278   -0.880171   -0.977711
     40          6           0        3.441972    5.461571   -0.376118
     41          6           0        2.041964    3.222704    0.110813
     42          6           0        0.463040    6.496903   -0.858846
     43          6           0        3.946958    5.839936    1.098076
     44          1           0        0.289648    0.442331    0.378607
     45          1           0       -3.194903   -1.044010    1.030976
     46          1           0       -2.442972   -2.624811    2.320573
     47          1           0       -1.157339   -3.747616    3.061603
     48          1           0        5.595035   -2.109499   -2.407823
     49          1           0       -4.902877   -0.138251    1.133552
     50          1           0       -6.285832    0.996244    0.744961
     51          1           0        2.827821    0.140449    0.511263
     52          1           0       -0.535616    1.606999    0.517122
     53          1           0        1.350894   -4.853416    1.279712
     54          1           0        2.519426   -3.692965    1.907941
     55          1           0        1.143028   -4.195395    2.776174
     56          1           0        2.515862   -3.395219   -0.556096
     57          1           0       -0.991197   -4.893367    0.638480
     58          1           0       -2.255037   -5.412137    1.715603
     59          1           0       -4.556947   -0.837214   -1.142468
     60          1           0       -5.511570    0.443517   -1.796261
     61          1           0       -4.770953    4.468695    0.219383
     62          1           0       -5.778250    3.336320   -0.393841
     63          1           0       -4.349263    3.922051   -1.397254
     64          1           0       -1.749310    4.872911   -0.457500
     65          1           0        7.838365   -2.754892   -1.217149
     66          1           0        6.966892   -4.247865   -1.734597
     67          1           0        6.932542   -3.621218   -0.043763
     68          1           0        6.772781   -0.425835   -0.401404
     69          1           0        4.755674    1.505880    0.446991
     70          1           0        6.167579    1.235191    1.282035
     71          1           0        4.701717    0.180688    1.763357
     72          1           0        3.330039    6.251586   -0.964899
     73          1           0        4.135963    4.772198   -0.964575
     74          1           0       -0.253266    6.458504   -1.728544
     75          1           0        1.460753    7.136160   -0.861399
     76          1           0       -0.104906    7.066899    0.062212
     77          1           0        3.322549    6.561059    1.628404
     78          1           0        4.878088    6.415195    1.068266
     79          1           0        3.990182    4.938468    1.555648
     80          1           0       -3.240166   -4.754256   -1.795104
     81          1           0       -7.624245   -1.941505   -1.988967
 ---------------------------------------------------------------------

 SCF Done:  E(RB3LYP) =  -1949.05280735     A.U. after   19 cycles

 Excitation energies and oscillator strengths:

 Excited State   1:      Singlet-A      1.6389 eV  756.51 nm  f=0.2825  <S**2>=0.000
     156 ->157         0.70902
     156 <-157        -0.10602
 This state for optimization and/or second-order correction.
 Total Energy, E(TD-HF/TD-DFT) =  -1948.99257868
 Copying the excited state density for this state as the 1-particle RhoCI density.

 The electronic state is 1-A.
 Alpha  occ. eigenvalues --  -19.20445 -19.20032 -19.12765 -19.12657 -19.12072
 Alpha  occ. eigenvalues --  -19.08753 -14.37606 -14.37284 -14.36243 -14.28595
 Alpha  occ. eigenvalues --  -10.32961 -10.32642 -10.29915 -10.25485 -10.25105
 Alpha  occ. eigenvalues --  -10.24033 -10.23575 -10.23375 -10.22977 -10.22842
 Alpha  occ. eigenvalues --  -10.22066 -10.21608 -10.21598 -10.21370 -10.20988
 Alpha  occ. eigenvalues --  -10.20801 -10.20651 -10.20582 -10.19839 -10.19406
 Alpha  occ. eigenvalues --  -10.19258 -10.19209 -10.19120 -10.19004 -10.18957
 Alpha  occ. eigenvalues --  -10.18765 -10.18742 -10.18629 -10.18110 -10.17921
 Alpha  occ. eigenvalues --  -10.17720 -10.17465 -10.16537  -1.13768  -1.13244
 Alpha  occ. eigenvalues --   -1.03683  -1.02077  -1.00788  -0.99212  -0.98014
 Alpha  occ. eigenvalues --   -0.97729  -0.96386  -0.90639  -0.82677  -0.82170
 Alpha  occ. eigenvalues --   -0.81860  -0.81547  -0.79913  -0.79210  -0.78589
 Alpha  occ. eigenvalues --   -0.76648  -0.76136  -0.75023  -0.73850  -0.72786
 Alpha  occ. eigenvalues --   -0.72581  -0.69843  -0.69692  -0.68877  -0.68103
 Alpha  occ. eigenvalues --   -0.67354  -0.66060  -0.64248  -0.63219  -0.63071
 Alpha  occ. eigenvalues --   -0.62005  -0.61294  -0.60079  -0.58526  -0.58094
 Alpha  occ. eigenvalues --   -0.55540  -0.55203  -0.55035  -0.54637  -0.53902
 Alpha  occ. eigenvalues --   -0.52205  -0.51556  -0.50783  -0.50165  -0.49904
 Alpha  occ. eigenvalues --   -0.49653  -0.49264  -0.49094  -0.48810  -0.48214
 Alpha  occ. eigenvalues --   -0.47923  -0.47585  -0.46711  -0.45986  -0.45658
 Alpha  occ. eigenvalues --   -0.45460  -0.45104  -0.44985  -0.44656  -0.43976
 Alpha  occ. eigenvalues --   -0.43717  -0.43336  -0.43214  -0.43026  -0.42389
 Alpha  occ. eigenvalues --   -0.42109  -0.41790  -0.41632  -0.41247  -0.40942
 Alpha  occ. eigenvalues --   -0.40726  -0.40370  -0.40119  -0.39477  -0.39356
 Alpha  occ. eigenvalues --   -0.39024  -0.38679  -0.38424  -0.38381  -0.37884
 Alpha  occ. eigenvalues --   -0.37689  -0.37487  -0.37239  -0.36940  -0.36778
 Alpha  occ. eigenvalues --   -0.36507  -0.36109  -0.35704  -0.35176  -0.34683
 Alpha  occ. eigenvalues --   -0.33953  -0.33660  -0.33311  -0.32854  -0.32330
 Alpha  occ. eigenvalues --   -0.32172  -0.32005  -0.31191  -0.28963  -0.28442
 Alpha  occ. eigenvalues --   -0.28054  -0.26774  -0.26598  -0.25835  -0.25344
 Alpha  occ. eigenvalues --   -0.25035  -0.23548  -0.22995  -0.21719  -0.21008
 Alpha  occ. eigenvalues --   -0.17451
 Alpha virt. eigenvalues --   -0.10756  -0.05546  -0.04067  -0.00756  -0.00609
 Alpha virt. eigenvalues --    0.00388   0.02273   0.03587   0.03686   0.03944
 Alpha virt. eigenvalues --    0.04414   0.04954   0.05462   0.06275   0.06601

 Mulliken charges:
               1
     1  O   -0.193527
     2  O   -0.098826
     3  O   -0.080656
     4  O   -0.229573
     5  O   -0.294099
     6  O   -0.283058
     7  N   -0.056703
     8  N   -0.026321
     9  N   -0.045422
    10  N   -0.257700
    11  C   -0.108623
    12  C    0.041755
    13  C   -0.111245
    14  C    0.089808
    15  C   -0.028318
    16  C   -0.030367
    17  C    0.018569
    18  C   -0.155451
    19  C    0.105815
    20  C   -0.018843
    21  C    0.038390
    22  C    0.113015
    23  C   -0.007331
    24  C   -0.034913
    25  C   -0.176387
    26  C    0.078282
    27  C    0.134929
    28  C   -0.056990
    29  C    0.071039
    30  C    0.163484
    31  C   -0.016567
    32  C    0.026635
    33  C   -0.048578
    34  C    0.102089
    35  C   -0.111581
    36  C   -0.207720
    37  C    0.095420
    38  C    0.014782
    39  C    0.116116
    40  C    0.119231
    41  C    0.148030
    42  C    0.029246
    43  C    0.056900
    44  H    0.101100
    45  H   -0.005356
    46  H    0.030803
    47  H    0.003368
    48  H    0.042207
    49  H    0.028073
    50  H    0.077002
    51  H    0.074482
    52  H    0.195378
    53  H    0.008191
    54  H   -0.001631
    55  H   -0.001104
    56  H    0.078641
    57  H    0.032718
    58  H    0.035250
    59  H    0.032279
    60  H    0.008986
    61  H    0.008475
    62  H    0.022146
    63  H    0.016407
    64  H   -0.166523
    65  H    0.021969
    66  H    0.038923
    67  H    0.006845
    68  H   -0.083651
    69  H    0.078120
    70  H   -0.028984
    71  H    0.043771
    72  H   -0.051930
    73  H    0.019553
    74  H    0.045355
    75  H    0.034657
    76  H    0.026597
    77  H    0.002440
    78  H    0.008204
    79  H    0.013357
    80  H    0.186778
    81  H    0.132371
 Sum of Mulliken charges =  -0.00000

 Dipole moment (field-independent basis, Debye):
    X=             -3.8390    Y=              0.4620    Z=             -1.7582  Tot=              4.2477
 Quadrupole moment (field-independent basis, Debye-Ang):
   XX=           -247.5526   YY=           -233.8775   ZZ=           -252.1407
   XY=             10.7749   XZ=             18.7224   YZ=             -7.7151

 Normal termination of Gaussian 16 at Fri Jun 28 15:38:02 2019.
