 Gaussian 16, Revision A.03,
 Gaussian 16:  ES64L-G16RevA.03 25-Dec-2016

 --------------------------
 # td=(NStates=1) B3LYP/SVP
 --------------------------

 --
 TD
 --
 Symbolic Z-matrix:
 Charge =  0 Multiplicity = 1

                         Standard orientation:
 ---------------------------------------------------------------------
 Center     Atomic      Atomic             Coordinates (Angstroms)
 Number     Number       Type             X           Y           Z
 ---------------------------------------------------------------------
      1          8           0        4.306957   -4.888225   -1.770668
      2          8           0       -2.916338   -5.198592   -0.961800
      3          8           0       -6.932128   -1.456107   -1.980274
      4          8           0       -3.685481   -3.161759   -0.253488
      5          8           0       -7.591774   -0.586216   -0.039857
      6          8           0        3.002993    2.371769    0.427074
      7          7           0        0.248256   -0.468774    0.618480
      8          7           0       -1.576614    1.850289    0.398077
      9          7           0        3.308539   -3.142552   -0.564613
     10          7           0        0.811814    2.847812    0.143382
     11          6           0       -0.685535   -2.379507    1.436846
     12          6           0       -0.977143   -1.065282    0.992508
     13          6           0        0.708740   -2.566735    1.260519
     14          6           0        1.299575   -1.366812    0.726616
     15          6           0       -3.801227    1.537411    0.316821
     16          6           0       -2.533735    0.873586    0.606577
     17          6           0       -2.174597   -0.401791    0.932756
     18          6           0       -3.552617    2.851443   -0.008322
     19          6           0       -1.698352   -3.346302    2.043537
     20          6           0        5.466902   -2.763416   -1.384611
     21          6           0        3.602824   -1.802689   -0.207398
     22          6           0       -2.070436    3.035371    0.078379
     23          6           0        5.012197   -1.609025   -0.445541
     24          6           0       -5.245964    0.808222    0.375961
     25          6           0        2.663501   -0.961728    0.383364
     26          6           0        1.500708   -3.859566    1.777320
     27          6           0        4.304743   -3.807993   -1.349596
     28          6           0       -2.075575   -4.548430    1.228306
     29          6           0       -5.415789   -0.064871   -0.830587
     30          6           0       -4.480875    3.961520   -0.536810
     31          6           0       -1.285729    4.153312   -0.294952
     32          6           0        6.807107   -3.397041   -1.042532
     33          6           0        5.876820   -0.617250   -0.153315
     34          6           0        0.065729    3.958172   -0.222785
     35          6           0        1.053252    5.115456   -0.463555
     36          6           0        2.302471    4.704946   -0.255158
     37          6           0       -2.997637   -4.182656   -0.079791
     38          6           0        5.539945    0.625065    0.759494
     39          6           0       -6.755267   -0.759070   -0.897758
     40          6           0        3.621820    5.318270   -0.334320
     41          6           0        2.090604    3.257459    0.129737
     42          6           0        0.642999    6.567714   -0.912672
     43          6           0        4.360413    5.509549    1.038412
     44          1           0        0.345228    0.345803    0.116124
     45          1           0       -2.901001   -1.245609    0.880610
     46          1           0       -2.693392   -2.827782    2.322327
     47          1           0       -1.207901   -3.564892    2.974088
     48          1           0        5.685481   -2.395004   -2.585480
     49          1           0       -4.973965    0.136052    1.254394
     50          1           0       -5.996503    1.648366    0.540622
     51          1           0        2.853800    0.051744    0.761197
     52          1           0       -0.736102    1.948197    0.492463
     53          1           0        1.637045   -4.602948    0.982069
     54          1           0        2.464270   -3.421561    2.160205
     55          1           0        0.910692   -4.347236    2.810666
     56          1           0        2.298062   -3.644336   -0.585933
     57          1           0       -1.325017   -5.292012    0.943036
     58          1           0       -2.633312   -5.087452    1.816868
     59          1           0       -4.653701   -0.813593   -1.064342
     60          1           0       -5.328465    0.565084   -1.781890
     61          1           0       -4.382936    4.702475    0.303132
     62          1           0       -5.688448    3.686448   -0.575121
     63          1           0       -4.200099    4.388782   -1.640362
     64          1           0       -2.012902    4.906838   -0.526090
     65          1           0        7.742387   -2.609251   -1.523191
     66          1           0        7.032810   -4.315384   -1.753322
     67          1           0        6.817516   -3.503662   -0.012982
     68          1           0        6.978025   -0.547972   -0.651004
     69          1           0        4.906640    1.232748    0.008609
     70          1           0        6.646873    1.105667    1.082593
     71          1           0        4.847583    0.348083    1.692666
     72          1           0        3.378244    6.413913   -0.740168
     73          1           0        4.127575    4.880185   -1.228268
     74          1           0        0.396356    6.391372   -2.027456
     75          1           0        1.432659    7.406070   -0.572295
     76          1           0       -0.141992    7.117382   -0.172973
     77          1           0        3.691699    5.975884    1.755206
     78          1           0        5.290112    6.152692    0.804847
     79          1           0        4.687400    4.638158    1.716573
     80          1           0       -3.533899   -4.871841   -1.739955
     81          1           0       -7.797847   -1.869780   -1.777342
 ---------------------------------------------------------------------

 SCF Done:  E(RB3LYP) =  -1949.04042643     A.U. after   24 cycles

 Excitation energies and oscillator strengths:

 Excited State   1:      Singlet-A      1.9471 eV  636.75 nm  f=0.3316  <S**2>=0.000
     156 ->157         0.70381
     156 <-157        -0.10024
 This state for optimization and/or second-order correction.
 Total Energy, E(TD-HF/TD-DFT) =  -1948.96887019
 Copying the excited state density for this state as the 1-particle RhoCI density.

 The electronic state is 1-A.
 Alpha  occ. eigenvalues --  -19.21567 -19.19601 -19.15668 -19.12286 -19.12053
 Alpha  occ. eigenvalues --  -19.07834 -14.37166 -14.36785 -14.35352 -14.28481
 Alpha  occ. eigenvalues --  -10.35126 -10.31548 -10.29265 -10.25050 -10.24981
 Alpha  occ. eigenvalues --  -10.24017 -10.23844 -10.23835 -10.23106 -10.22901
 Alpha  occ. eigenvalues --  -10.22679 -10.22114 -10.21779 -10.21738 -10.21606
 Alpha  occ. eigenvalues --  -10.21595 -10.21222 -10.21182 -10.21016 -10.20957
 Alpha  occ. eigenvalues --  -10.20625 -10.20437 -10.20392 -10.20287 -10.20161
 Alpha  occ. eigenvalues --  -10.19874 -10.19727 -10.19687 -10.19498 -10.18956
 Alpha  occ. eigenvalues --  -10.18777 -10.18609 -10.17934  -1.12322  -1.10974
 Alpha  occ. eigenvalues --   -1.06514  -1.01691  -1.01010  -1.00916  -0.97248
 Alpha  occ. eigenvalues --   -0.96646  -0.93929  -0.89503  -0.83044  -0.82338
 Alpha  occ. eigenvalues --   -0.81326  -0.80154  -0.79298  -0.78427  -0.78030
 Alpha  occ. eigenvalues --   -0.77764  -0.76258  -0.73779  -0.72883  -0.71761
 Alpha  occ. eigenvalues --   -0.70419  -0.68714  -0.68316  -0.68104  -0.67503
 Alpha  occ. eigenvalues --   -0.66780  -0.64648  -0.62678  -0.62051  -0.61825
 Alpha  occ. eigenvalues --   -0.61687  -0.60198  -0.58767  -0.57419  -0.56301
 Alpha  occ. eigenvalues --   -0.55500  -0.54992  -0.54673  -0.53231  -0.51705
 Alpha  occ. eigenvalues --   -0.51427  -0.51134  -0.50774  -0.50708  -0.49922
 Alpha  occ. eigenvalues --   -0.49516  -0.49160  -0.49032  -0.48629  -0.47724
 Alpha  occ. eigenvalues --   -0.46861  -0.46427  -0.45779  -0.45464  -0.45269
 Alpha  occ. eigenvalues --   -0.45043  -0.44643  -0.44484  -0.43969  -0.43774
 Alpha  occ. eigenvalues --   -0.43547  -0.43210  -0.42938  -0.42039  -0.42026
 Alpha  occ. eigenvalues --   -0.41683  -0.41112  -0.40990  -0.40799  -0.40526
 Alpha  occ. eigenvalues --   -0.40364  -0.40237  -0.39875  -0.39201  -0.39095
 Alpha  occ. eigenvalues --   -0.38830  -0.38585  -0.38433  -0.38104  -0.37632
 Alpha  occ. eigenvalues --   -0.37347  -0.36423  -0.35930  -0.35569  -0.35455
 Alpha  occ. eigenvalues --   -0.35223  -0.35020  -0.34856  -0.34508  -0.34370
 Alpha  occ. eigenvalues --   -0.34030  -0.33867  -0.33230  -0.33088  -0.32685
 Alpha  occ. eigenvalues --   -0.32351  -0.32149  -0.31303  -0.30497  -0.29292
 Alpha  occ. eigenvalues --   -0.28016  -0.26708  -0.26344  -0.26056  -0.25667
 Alpha  occ. eigenvalues --   -0.25444  -0.24733  -0.23438  -0.22377  -0.21622
 Alpha  occ. eigenvalues --   -0.18074
 Alpha virt. eigenvalues --   -0.10113  -0.05325  -0.03707  -0.02345  -0.00659
 Alpha virt. eigenvalues --    0.00994   0.01645   0.02465   0.02553   0.03196
 Alpha virt. eigenvalues --    0.04469   0.04602   0.04717   0.04851   0.05310

 Mulliken charges:
               1
     1  O   -0.136160
     2  O   -0.195989
     3  O   -0.130770
     4  O   -0.249832
     5  O   -0.242311
     6  O   -0.302537
     7  N   -0.065755
     8  N    0.120666
     9  N   -0.248158
    10  N   -0.256934
    11  C   -0.059969
    12  C    0.001646
    13  C   -0.192888
    14  C    0.047856
    15  C   -0.118974
    16  C    0.122650
    17  C   -0.065620
    18  C   -0.114354
    19  C    0.074473
    20  C   -0.182298
    21  C    0.183926
    22  C   -0.091916
    23  C    0.049594
    24  C    0.151188
    25  C   -0.125858
    26  C    0.010108
    27  C    0.165720
    28  C    0.108925
    29  C   -0.026552
    30  C   -0.028641
    31  C   -0.086638
    32  C    0.001455
    33  C   -0.191515
    34  C    0.188805
    35  C   -0.119369
    36  C   -0.140989
    37  C    0.155504
    38  C   -0.051479
    39  C    0.111386
    40  C    0.068006
    41  C    0.128566
    42  C   -0.012162
    43  C   -0.017327
    44  H    0.103575
    45  H    0.030465
    46  H    0.025088
    47  H    0.011364
    48  H    0.058005
    49  H    0.028654
    50  H    0.039102
    51  H    0.041973
    52  H   -0.028274
    53  H    0.035880
    54  H    0.052905
    55  H    0.036931
    56  H    0.175876
    57  H    0.024175
    58  H   -0.015036
    59  H    0.042467
    60  H    0.031468
    61  H    0.048745
    62  H    0.042999
    63  H    0.068983
    64  H   -0.042513
    65  H    0.023375
    66  H    0.051452
    67  H    0.012459
    68  H    0.039806
    69  H    0.100123
    70  H    0.036775
    71  H    0.062639
    72  H   -0.004794
    73  H    0.026379
    74  H    0.063259
    75  H    0.038424
    76  H    0.036196
    77  H    0.006147
    78  H    0.024805
    79  H    0.043605
    80  H    0.216175
    81  H    0.174863
 Sum of Mulliken charges =  -0.00000

 Dipole moment (field-independent basis, Debye):
    X=             -3.8685    Y=             -0.7882    Z=             -1.1886  Tot=              4.1230
 Quadrupole moment (field-independent basis, Debye-Ang):
   XX=           -257.5774   YY=           -237.4000   ZZ=           -251.1576
   XY=             16.8390   XZ=             11.9917   YZ=             -9.9418

 Normal termination of Gaussian 16 at Thu Jun 27 12:36:33 2019.
