 Gaussian 16, Revision A.03,
 Gaussian 16:  ES64L-G16RevA.03 25-Dec-2016

 --------------------------
 # td=(NStates=1) B3LYP/SVP
 --------------------------

 --
 TD
 --
 Symbolic Z-matrix:
 Charge =  0 Multiplicity = 1

                         Standard orientation:
 ---------------------------------------------------------------------
 Center     Atomic      Atomic             Coordinates (Angstroms)
 Number     Number       Type             X           Y           Z
 ---------------------------------------------------------------------
      1          8           0        4.090956   -4.974423   -2.024672
      2          8           0       -3.197727   -4.813588   -0.896408
      3          8           0       -7.170831   -1.407789   -1.888416
      4          8           0       -3.784628   -2.943946   -0.054091
      5          8           0       -7.491957   -0.603813    0.235172
      6          8           0        3.070902    2.348856    0.498345
      7          7           0        0.367084   -0.569507    0.511660
      8          7           0       -1.456057    1.874556    0.203221
      9          7           0        3.189020   -3.249623   -0.707638
     10          7           0        0.847217    2.894242    0.095447
     11          6           0       -0.740284   -2.335936    1.422672
     12          6           0       -0.879919   -0.999550    0.932927
     13          6           0        0.684507   -2.658594    1.263937
     14          6           0        1.345288   -1.485292    0.638093
     15          6           0       -3.710012    1.578105    0.221529
     16          6           0       -2.457018    0.989222    0.465276
     17          6           0       -2.153725   -0.370455    0.850544
     18          6           0       -3.380304    2.981066   -0.169528
     19          6           0       -1.774085   -3.226110    2.122816
     20          6           0        5.395566   -2.937869   -1.417071
     21          6           0        3.598474   -2.026349   -0.199945
     22          6           0       -2.066975    3.049021   -0.208891
     23          6           0        4.966671   -1.767967   -0.616485
     24          6           0       -5.088289    0.909888    0.300288
     25          6           0        2.652334   -1.126374    0.353217
     26          6           0        1.259205   -3.792819    1.873239
     27          6           0        4.154084   -3.906732   -1.485677
     28          6           0       -2.213122   -4.349031    1.258296
     29          6           0       -5.556569    0.120952   -0.886029
     30          6           0       -4.579127    3.913215   -0.523197
     31          6           0       -1.064084    4.139903   -0.463923
     32          6           0        6.663078   -3.578652   -0.846462
     33          6           0        5.815251   -0.855938   -0.023818
     34          6           0        0.303790    4.079265   -0.271362
     35          6           0        1.250675    5.087796   -0.453472
     36          6           0        2.475959    4.637421   -0.101575
     37          6           0       -3.040413   -3.949500    0.014101
     38          6           0        5.508808    0.475284    0.668401
     39          6           0       -6.829942   -0.638854   -0.806874
     40          6           0        3.846612    5.280731   -0.130903
     41          6           0        2.260767    3.269839    0.169026
     42          6           0        0.918898    6.487732   -0.949729
     43          6           0        4.395950    5.485911    1.291061
     44          1           0        0.585576    0.247466    0.137611
     45          1           0       -3.003554   -0.906649    1.254248
     46          1           0       -2.649361   -2.569227    2.479779
     47          1           0       -1.285967   -3.896510    2.702936
     48          1           0        5.359032   -2.557945   -2.422547
     49          1           0       -5.201871    0.372820    1.225325
     50          1           0       -5.930668    1.488388    0.631600
     51          1           0        2.944372    0.091717    0.353617
     52          1           0       -0.360199    1.913978    0.408428
     53          1           0        1.483491   -4.709425    1.156272
     54          1           0        2.219595   -3.589341    2.275094
     55          1           0        0.816477   -4.256579    2.692145
     56          1           0        2.166337   -3.506552   -0.687870
     57          1           0       -1.334880   -4.879555    0.739190
     58          1           0       -2.802438   -5.050014    1.848855
     59          1           0       -4.575287   -0.624095   -0.892905
     60          1           0       -5.494678    0.841161   -1.659807
     61          1           0       -4.519285    4.895550   -0.088734
     62          1           0       -5.573279    3.524922   -0.208050
     63          1           0       -4.294757    4.116709   -1.671350
     64          1           0       -1.542421    5.076232   -0.658871
     65          1           0        7.634338   -3.167182   -1.073236
     66          1           0        6.811239   -4.667030   -1.302400
     67          1           0        6.587939   -3.773702    0.200054
     68          1           0        6.826170   -0.911460   -0.529243
     69          1           0        4.678767    1.004062    0.031052
     70          1           0        6.582387    0.822755    1.056294
     71          1           0        5.040371    0.303049    1.770911
     72          1           0        3.813402    6.365971   -0.678021
     73          1           0        4.609198    4.616677   -0.724509
     74          1           0        0.320341    6.451002   -1.749237
     75          1           0        1.746631    7.197410   -0.936023
     76          1           0       -0.018105    6.870893   -0.484100
     77          1           0        3.733540    6.369151    1.602568
     78          1           0        5.326018    6.141651    1.123573
     79          1           0        4.312295    4.598994    1.697330
     80          1           0       -3.647671   -4.553718   -1.605970
     81          1           0       -7.899938   -2.057598   -1.435175
 ---------------------------------------------------------------------

 SCF Done:  E(RB3LYP) =  -1949.03269092     A.U. after   26 cycles

 Excitation energies and oscillator strengths:

 Excited State   1:      Singlet-A      1.5078 eV  822.29 nm  f=0.2437  <S**2>=0.000
     156 ->157         0.71088
     156 <-157        -0.13483
 This state for optimization and/or second-order correction.
 Total Energy, E(TD-HF/TD-DFT) =  -1948.97728039
 Copying the excited state density for this state as the 1-particle RhoCI density.

 The electronic state is 1-A.
 Alpha  occ. eigenvalues --  -19.19983 -19.19057 -19.12940 -19.12561 -19.12423
 Alpha  occ. eigenvalues --  -19.08652 -14.38666 -14.37899 -14.33451 -14.27147
 Alpha  occ. eigenvalues --  -10.33280 -10.32189 -10.30730 -10.25781 -10.25075
 Alpha  occ. eigenvalues --  -10.25031 -10.24311 -10.23135 -10.22278 -10.22246
 Alpha  occ. eigenvalues --  -10.21971 -10.21729 -10.21667 -10.21196 -10.21062
 Alpha  occ. eigenvalues --  -10.21047 -10.20545 -10.20516 -10.20454 -10.20331
 Alpha  occ. eigenvalues --  -10.20245 -10.20123 -10.20089 -10.19995 -10.19792
 Alpha  occ. eigenvalues --  -10.19718 -10.19307 -10.19234 -10.18840 -10.18156
 Alpha  occ. eigenvalues --  -10.17949 -10.17635 -10.17232  -1.15296  -1.07904
 Alpha  occ. eigenvalues --   -1.05405  -1.00053  -0.99651  -0.99104  -0.97923
 Alpha  occ. eigenvalues --   -0.96817  -0.96345  -0.90438  -0.84538  -0.82650
 Alpha  occ. eigenvalues --   -0.81328  -0.80778  -0.80021  -0.79273  -0.78258
 Alpha  occ. eigenvalues --   -0.76704  -0.75737  -0.75303  -0.74039  -0.72954
 Alpha  occ. eigenvalues --   -0.72051  -0.71028  -0.69987  -0.69386  -0.68110
 Alpha  occ. eigenvalues --   -0.67136  -0.65781  -0.64862  -0.64038  -0.62119
 Alpha  occ. eigenvalues --   -0.60490  -0.59683  -0.58801  -0.58247  -0.57781
 Alpha  occ. eigenvalues --   -0.57186  -0.55508  -0.55060  -0.53551  -0.52839
 Alpha  occ. eigenvalues --   -0.52623  -0.51945  -0.50978  -0.50868  -0.50011
 Alpha  occ. eigenvalues --   -0.49778  -0.49504  -0.48863  -0.48346  -0.47836
 Alpha  occ. eigenvalues --   -0.47052  -0.46729  -0.46635  -0.46077  -0.45709
 Alpha  occ. eigenvalues --   -0.44847  -0.44599  -0.44457  -0.44414  -0.44164
 Alpha  occ. eigenvalues --   -0.43819  -0.43442  -0.43196  -0.42646  -0.42499
 Alpha  occ. eigenvalues --   -0.42168  -0.41688  -0.41251  -0.41110  -0.40937
 Alpha  occ. eigenvalues --   -0.40620  -0.40368  -0.40078  -0.39974  -0.39557
 Alpha  occ. eigenvalues --   -0.39324  -0.38722  -0.38522  -0.38070  -0.37639
 Alpha  occ. eigenvalues --   -0.37619  -0.37451  -0.37170  -0.36766  -0.36584
 Alpha  occ. eigenvalues --   -0.36169  -0.35602  -0.35221  -0.34673  -0.34183
 Alpha  occ. eigenvalues --   -0.34082  -0.33854  -0.32896  -0.32707  -0.31906
 Alpha  occ. eigenvalues --   -0.31824  -0.31230  -0.30716  -0.30001  -0.28029
 Alpha  occ. eigenvalues --   -0.27831  -0.27724  -0.27299  -0.26590  -0.25535
 Alpha  occ. eigenvalues --   -0.25040  -0.23646  -0.23070  -0.22615  -0.20680
 Alpha  occ. eigenvalues --   -0.17204
 Alpha virt. eigenvalues --   -0.11052  -0.06224  -0.05326  -0.01875  -0.00831
 Alpha virt. eigenvalues --   -0.00316   0.01950   0.02328   0.02994   0.03563
 Alpha virt. eigenvalues --    0.04524   0.05101   0.05432   0.05760   0.06229

 Mulliken charges:
               1
     1  O   -0.172130
     2  O   -0.031463
     3  O   -0.241245
     4  O   -0.289467
     5  O   -0.258068
     6  O   -0.289011
     7  N    0.034752
     8  N   -0.151548
     9  N   -0.152810
    10  N   -0.357010
    11  C   -0.157300
    12  C    0.088296
    13  C   -0.144483
    14  C    0.075464
    15  C   -0.091525
    16  C    0.051959
    17  C   -0.023320
    18  C   -0.132346
    19  C    0.271837
    20  C   -0.016452
    21  C    0.074598
    22  C    0.062187
    23  C   -0.103418
    24  C    0.081142
    25  C   -0.192757
    26  C    0.078157
    27  C    0.124948
    28  C   -0.059522
    29  C   -0.012750
    30  C    0.081630
    31  C   -0.119147
    32  C    0.065315
    33  C   -0.112319
    34  C    0.159008
    35  C   -0.124946
    36  C   -0.127391
    37  C    0.080431
    38  C   -0.019068
    39  C    0.188996
    40  C   -0.035303
    41  C    0.153863
    42  C    0.237481
    43  C    0.073838
    44  H    0.066906
    45  H    0.000377
    46  H    0.049675
    47  H   -0.044032
    48  H    0.029344
    49  H   -0.010879
    50  H   -0.023336
    51  H    0.110359
    52  H    0.187450
    53  H    0.015239
    54  H    0.006787
    55  H   -0.009175
    56  H    0.155440
    57  H    0.046714
    58  H    0.052107
    59  H    0.088192
    60  H    0.021887
    61  H    0.007753
    62  H    0.035439
    63  H    0.041530
    64  H   -0.068016
    65  H    0.020287
    66  H    0.027833
    67  H    0.013461
    68  H    0.013336
    69  H    0.126568
    70  H    0.036974
    71  H    0.045487
    72  H    0.004959
    73  H    0.031409
    74  H   -0.048818
    75  H    0.025903
    76  H   -0.016411
    77  H    0.003768
    78  H    0.013801
    79  H    0.008742
    80  H    0.138079
    81  H    0.225756
 Sum of Mulliken charges =  -0.00000

 Dipole moment (field-independent basis, Debye):
    X=             -0.8914    Y=             -2.6227    Z=             -0.2647  Tot=              2.7827
 Quadrupole moment (field-independent basis, Debye-Ang):
   XX=           -251.1233   YY=           -235.0828   ZZ=           -256.2094
   XY=             13.2429   XZ=              8.5135   YZ=            -15.8665

 Normal termination of Gaussian 16 at Thu Jun 27 00:43:51 2019.
