 Gaussian 16, Revision A.03,
 Gaussian 16:  ES64L-G16RevA.03 25-Dec-2016

 --------------------------
 # td=(NStates=1) B3LYP/SVP
 --------------------------

 --
 TD
 --
 Symbolic Z-matrix:
 Charge =  0 Multiplicity = 1

                         Standard orientation:
 ---------------------------------------------------------------------
 Center     Atomic      Atomic             Coordinates (Angstroms)
 Number     Number       Type             X           Y           Z
 ---------------------------------------------------------------------
      1          8           0       -4.359486   -4.777679    2.071589
      2          8           0        2.917224   -4.910027    1.111339
      3          8           0        6.952348   -1.697762    1.825321
      4          8           0        3.907426   -3.195656   -0.040093
      5          8           0        7.476876   -0.744560   -0.097708
      6          8           0       -3.065048    2.554496   -0.415329
      7          7           0       -0.287213   -0.521834   -0.707355
      8          7           0        1.509927    1.847328   -0.461231
      9          7           0       -3.346037   -3.165531    0.659288
     10          7           0       -0.796165    3.006135   -0.141828
     11          6           0        0.636329   -2.437648   -1.404396
     12          6           0        0.896793   -1.024198   -1.021906
     13          6           0       -0.802612   -2.640219   -1.175267
     14          6           0       -1.267554   -1.428827   -0.720112
     15          6           0        3.856024    1.502748   -0.317580
     16          6           0        2.474756    0.858424   -0.642905
     17          6           0        2.232458   -0.422025   -0.949066
     18          6           0        3.518135    2.848296    0.104098
     19          6           0        1.631896   -3.419038   -1.961289
     20          6           0       -5.608476   -2.765716    1.296675
     21          6           0       -3.647831   -1.928369    0.234152
     22          6           0        2.123573    3.066566    0.049564
     23          6           0       -5.010351   -1.572232    0.480674
     24          6           0        5.064397    0.817344   -0.286145
     25          6           0       -2.650988   -1.023921   -0.331028
     26          6           0       -1.534410   -3.919804   -1.694002
     27          6           0       -4.428533   -3.712515    1.476842
     28          6           0        2.070984   -4.543543   -0.989931
     29          6           0        5.452014   -0.211519    0.794512
     30          6           0        4.452719    3.845025    0.601427
     31          6           0        1.388267    4.143345    0.366021
     32          6           0       -7.040151   -3.434167    0.926977
     33          6           0       -5.808313   -0.596498   -0.038467
     34          6           0       -0.041911    4.064560    0.285805
     35          6           0       -0.943025    5.261170    0.513267
     36          6           0       -2.208078    4.680427    0.366367
     37          6           0        3.075378   -4.053177    0.041019
     38          6           0       -5.348228    0.472298   -1.098095
     39          6           0        6.718181   -0.906446    0.765762
     40          6           0       -3.505452    5.450603    0.375849
     41          6           0       -2.149417    3.329226   -0.150395
     42          6           0       -0.565447    6.653947    0.858333
     43          6           0       -4.172037    5.641924   -0.995591
     44          1           0       -0.495173    0.493836   -0.323332
     45          1           0        3.007545   -1.211748   -0.774750
     46          1           0        2.507042   -2.934131   -2.420155
     47          1           0        1.146575   -4.078000   -2.582056
     48          1           0       -5.873236   -2.376284    2.301426
     49          1           0        5.245872    0.262268   -1.251644
     50          1           0        5.860487    1.637226   -0.353735
     51          1           0       -2.812603   -0.052011   -0.401138
     52          1           0        0.419594    2.019867   -0.579062
     53          1           0       -1.150768   -4.728079   -0.937786
     54          1           0       -2.704242   -3.809084   -1.740119
     55          1           0       -1.187459   -4.165735   -2.614969
     56          1           0       -2.256747   -3.531510    1.037029
     57          1           0        1.105693   -4.802595   -0.581243
     58          1           0        2.563962   -5.250904   -1.814101
     59          1           0        4.450548   -0.932533    0.710997
     60          1           0        5.600713    0.465927    1.756398
     61          1           0        4.310463    4.956164    0.082442
     62          1           0        5.486805    3.573676    0.480949
     63          1           0        4.363972    3.999055    1.503611
     64          1           0        1.822378    5.040039    0.821776
     65          1           0       -7.861423   -2.589240    0.861720
     66          1           0       -7.229440   -4.199446    1.512489
     67          1           0       -6.948588   -3.774054   -0.117927
     68          1           0       -6.813838   -0.692815    0.010326
     69          1           0       -4.713076    1.268570   -0.634320
     70          1           0       -6.238095    0.987043   -1.828737
     71          1           0       -4.651032   -0.190615   -1.679251
     72          1           0       -3.460384    6.482437    0.741889
     73          1           0       -4.126753    4.739817    0.878843
     74          1           0        0.073022    6.738542    1.711298
     75          1           0       -1.416237    7.348210    1.098026
     76          1           0        0.129794    7.113879    0.207820
     77          1           0       -3.600891    6.186152   -1.688388
     78          1           0       -5.004141    6.318271   -0.785761
     79          1           0       -4.498363    4.649090   -1.466297
     80          1           0        3.668148   -4.438656    1.595677
     81          1           0        7.927029   -2.092064    1.611962
 ---------------------------------------------------------------------

 SCF Done:  E(RB3LYP) =  -1949.05534603     A.U. after   17 cycles

 Excitation energies and oscillator strengths:

 Excited State   1:      Singlet-A      1.5729 eV  788.26 nm  f=0.2952  <S**2>=0.000
     156 ->157         0.71144
     156 <-157        -0.12797
 This state for optimization and/or second-order correction.
 Total Energy, E(TD-HF/TD-DFT) =  -1948.99754350
 Copying the excited state density for this state as the 1-particle RhoCI density.

 The electronic state is 1-A.
 Alpha  occ. eigenvalues --  -19.19881 -19.18713 -19.16323 -19.12491 -19.12359
 Alpha  occ. eigenvalues --  -19.11078 -14.38003 -14.37979 -14.35040 -14.29648
 Alpha  occ. eigenvalues --  -10.34096 -10.31355 -10.30200 -10.26918 -10.24508
 Alpha  occ. eigenvalues --  -10.23954 -10.23633 -10.23617 -10.23130 -10.22543
 Alpha  occ. eigenvalues --  -10.22153 -10.22092 -10.21708 -10.21486 -10.20932
 Alpha  occ. eigenvalues --  -10.20512 -10.20430 -10.20364 -10.20351 -10.20283
 Alpha  occ. eigenvalues --  -10.19882 -10.19823 -10.19762 -10.19574 -10.19564
 Alpha  occ. eigenvalues --  -10.19523 -10.19301 -10.18905 -10.18887 -10.18541
 Alpha  occ. eigenvalues --  -10.18484 -10.17955 -10.16979  -1.11824  -1.10900
 Alpha  occ. eigenvalues --   -1.03428  -1.03272  -1.01710  -1.01607  -0.99411
 Alpha  occ. eigenvalues --   -0.95159  -0.94805  -0.91471  -0.82472  -0.82091
 Alpha  occ. eigenvalues --   -0.81739  -0.80504  -0.79378  -0.78620  -0.77528
 Alpha  occ. eigenvalues --   -0.76881  -0.76126  -0.75227  -0.73497  -0.72588
 Alpha  occ. eigenvalues --   -0.70642  -0.69790  -0.69098  -0.68280  -0.68164
 Alpha  occ. eigenvalues --   -0.67563  -0.65551  -0.63827  -0.61802  -0.61057
 Alpha  occ. eigenvalues --   -0.59569  -0.58909  -0.58565  -0.57353  -0.56038
 Alpha  occ. eigenvalues --   -0.55584  -0.54843  -0.54342  -0.53264  -0.52971
 Alpha  occ. eigenvalues --   -0.52531  -0.51735  -0.51675  -0.50735  -0.50251
 Alpha  occ. eigenvalues --   -0.49791  -0.49353  -0.48852  -0.48327  -0.47635
 Alpha  occ. eigenvalues --   -0.47099  -0.46798  -0.46120  -0.45841  -0.45503
 Alpha  occ. eigenvalues --   -0.45417  -0.44771  -0.44558  -0.44376  -0.43919
 Alpha  occ. eigenvalues --   -0.43780  -0.43413  -0.43139  -0.42994  -0.42615
 Alpha  occ. eigenvalues --   -0.42348  -0.41829  -0.41664  -0.41600  -0.41361
 Alpha  occ. eigenvalues --   -0.41114  -0.41031  -0.40261  -0.40131  -0.39647
 Alpha  occ. eigenvalues --   -0.39544  -0.39127  -0.38711  -0.38353  -0.38157
 Alpha  occ. eigenvalues --   -0.38020  -0.37647  -0.37224  -0.36747  -0.36714
 Alpha  occ. eigenvalues --   -0.35952  -0.35771  -0.35678  -0.35352  -0.34787
 Alpha  occ. eigenvalues --   -0.34714  -0.34519  -0.34280  -0.33521  -0.33100
 Alpha  occ. eigenvalues --   -0.32600  -0.32477  -0.31965  -0.31154  -0.29917
 Alpha  occ. eigenvalues --   -0.28159  -0.27987  -0.27050  -0.26077  -0.25310
 Alpha  occ. eigenvalues --   -0.24849  -0.24386  -0.23966  -0.22575  -0.21428
 Alpha  occ. eigenvalues --   -0.17317
 Alpha virt. eigenvalues --   -0.11075  -0.06224  -0.04604  -0.02732  -0.01892
 Alpha virt. eigenvalues --    0.00977   0.01501   0.01888   0.02500   0.03231
 Alpha virt. eigenvalues --    0.04142   0.04535   0.05162   0.05204   0.05648

 Mulliken charges:
               1
     1  O   -0.199941
     2  O   -0.194221
     3  O   -0.234647
     4  O   -0.212785
     5  O   -0.179605
     6  O   -0.208868
     7  N   -0.026541
     8  N   -0.229151
     9  N   -0.207912
    10  N   -0.337769
    11  C   -0.169203
    12  C    0.002328
    13  C   -0.189860
    14  C    0.011303
    15  C   -0.022830
    16  C    0.150351
    17  C   -0.098288
    18  C   -0.137339
    19  C    0.158043
    20  C   -0.089417
    21  C    0.072878
    22  C    0.174898
    23  C    0.011599
    24  C    0.017886
    25  C    0.012521
    26  C    0.085604
    27  C    0.149264
    28  C   -0.024824
    29  C   -0.047367
    30  C    0.197112
    31  C   -0.137116
    32  C    0.073496
    33  C   -0.089792
    34  C    0.091928
    35  C   -0.104361
    36  C   -0.185002
    37  C    0.165921
    38  C   -0.050204
    39  C    0.116396
    40  C    0.096860
    41  C    0.181270
    42  C    0.151696
    43  C   -0.008138
    44  H    0.177499
    45  H    0.035306
    46  H    0.017312
    47  H   -0.042632
    48  H    0.049651
    49  H    0.024258
    50  H    0.010704
    51  H   -0.092838
    52  H    0.183556
    53  H    0.027629
    54  H    0.057941
    55  H    0.006002
    56  H    0.210832
    57  H    0.028325
    58  H    0.073327
    59  H    0.087415
    60  H    0.043894
    61  H    0.027758
    62  H   -0.007139
    63  H   -0.057711
    64  H   -0.022591
    65  H    0.040187
    66  H    0.004739
    67  H    0.017384
    68  H   -0.043904
    69  H    0.094758
    70  H    0.035637
    71  H    0.037148
    72  H   -0.006458
    73  H    0.002443
    74  H   -0.006522
    75  H    0.023452
    76  H   -0.003135
    77  H   -0.008801
    78  H   -0.000818
    79  H    0.045093
    80  H    0.173828
    81  H    0.220299
 Sum of Mulliken charges =  -0.00000

 Dipole moment (field-independent basis, Debye):
    X=              2.7350    Y=              1.1325    Z=              1.1468  Tot=              3.1746
 Quadrupole moment (field-independent basis, Debye-Ang):
   XX=           -243.5722   YY=           -236.0396   ZZ=           -258.5058
   XY=             -8.2595   XZ=             14.0122   YZ=             17.1086

 Normal termination of Gaussian 16 at Tue Jul  2 03:09:46 2019.
