 Gaussian 16, Revision A.03,
 Gaussian 16:  ES64L-G16RevA.03 25-Dec-2016

 --------------------------
 # td=(NStates=1) B3LYP/SVP
 --------------------------

 --
 TD
 --
 Symbolic Z-matrix:
 Charge =  0 Multiplicity = 1

                         Standard orientation:
 ---------------------------------------------------------------------
 Center     Atomic      Atomic             Coordinates (Angstroms)
 Number     Number       Type             X           Y           Z
 ---------------------------------------------------------------------
      1          8           0        4.165308   -5.125824   -1.768260
      2          8           0       -3.294548   -4.684119   -1.117630
      3          8           0       -7.151731   -1.328443   -1.898059
      4          8           0       -4.012421   -2.936046    0.092216
      5          8           0       -7.578923   -0.564217    0.234050
      6          8           0        3.147442    2.329944    0.323344
      7          7           0        0.248593   -0.576922    0.539206
      8          7           0       -1.447806    1.855455    0.308111
      9          7           0        3.188477   -3.297535   -0.691624
     10          7           0        0.917104    2.978354    0.158043
     11          6           0       -0.744298   -2.393303    1.384260
     12          6           0       -0.974588   -1.016020    0.922780
     13          6           0        0.560537   -2.611078    1.120693
     14          6           0        1.258043   -1.503423    0.640924
     15          6           0       -3.697366    1.618701    0.238323
     16          6           0       -2.457175    1.017158    0.488157
     17          6           0       -2.292878   -0.394334    0.740497
     18          6           0       -3.317666    2.909270   -0.098336
     19          6           0       -1.744480   -3.281275    2.009104
     20          6           0        5.444546   -3.091282   -1.276898
     21          6           0        3.517737   -1.992627   -0.203158
     22          6           0       -1.941218    3.062356   -0.057321
     23          6           0        5.042140   -1.769875   -0.498549
     24          6           0       -5.102053    1.026389    0.265731
     25          6           0        2.580562   -1.141349    0.348200
     26          6           0        1.207813   -3.811158    1.728485
     27          6           0        4.242629   -4.054567   -1.215791
     28          6           0       -2.223311   -4.350404    1.078903
     29          6           0       -5.476272    0.073874   -0.844000
     30          6           0       -4.365076    4.006941   -0.376428
     31          6           0       -1.099866    4.113310   -0.251197
     32          6           0        6.683225   -3.751729   -0.817983
     33          6           0        5.811688   -0.830365   -0.035714
     34          6           0        0.298621    4.054761   -0.212535
     35          6           0        1.317330    5.146507   -0.567116
     36          6           0        2.497709    4.628700   -0.320248
     37          6           0       -3.305519   -3.900067    0.017713
     38          6           0        5.571857    0.427542    0.634957
     39          6           0       -6.867065   -0.556886   -0.718034
     40          6           0        3.888068    5.259372   -0.317346
     41          6           0        2.305666    3.190109    0.085046
     42          6           0        0.995255    6.580744   -0.879795
     43          6           0        4.501075    5.674599    1.104961
     44          1           0        0.541818    0.413203    0.174358
     45          1           0       -3.097895   -1.035716    0.855373
     46          1           0       -2.460574   -2.685117    2.413895
     47          1           0       -1.266040   -3.679845    2.873785
     48          1           0        5.692725   -2.658735   -2.245242
     49          1           0       -5.196157    0.558504    1.243657
     50          1           0       -5.753727    1.795141    0.393114
     51          1           0        2.982142   -0.115319    0.608334
     52          1           0       -0.650784    1.721213    0.576239
     53          1           0        1.031423   -4.837295    1.310853
     54          1           0        2.442282   -3.899458    1.684601
     55          1           0        0.964359   -3.998167    2.854532
     56          1           0        2.265634   -3.548089   -0.862397
     57          1           0       -1.178320   -4.841709    0.399195
     58          1           0       -2.862238   -5.257532    1.543694
     59          1           0       -4.783357   -0.678229   -1.114701
     60          1           0       -5.431655    0.708458   -1.888158
     61          1           0       -4.313385    4.739721    0.552511
     62          1           0       -5.349873    3.521360   -0.362102
     63          1           0       -4.267558    4.687679   -1.250194
     64          1           0       -1.518903    5.017252   -0.777427
     65          1           0        7.598759   -3.119227   -0.570780
     66          1           0        6.942152   -4.599916   -1.475705
     67          1           0        6.473963   -4.210240    0.237635
     68          1           0        6.984393   -1.051091   -0.296126
     69          1           0        5.101501    1.081070   -0.000160
     70          1           0        6.427912    0.895221    1.069676
     71          1           0        4.833970    0.381830    1.613742
     72          1           0        3.901786    6.076441   -1.040429
     73          1           0        4.641110    4.303341   -0.590905
     74          1           0        0.206776    6.364309   -1.580177
     75          1           0        1.861926    7.201987   -1.488145
     76          1           0        0.486052    7.065980   -0.138391
     77          1           0        3.806961    6.494285    1.851967
     78          1           0        5.490450    6.111125    1.116430
     79          1           0        4.404729    4.834422    1.884166
     80          1           0       -4.138875   -4.303498   -1.671479
     81          1           0       -8.053103   -1.742739   -1.736399
 ---------------------------------------------------------------------

 SCF Done:  E(RB3LYP) =  -1949.08703824     A.U. after   17 cycles

 Excitation energies and oscillator strengths:

 Excited State   1:      Singlet-A      1.8109 eV  684.66 nm  f=0.3960  <S**2>=0.000
     156 ->157         0.71146
     156 <-157        -0.13918
 This state for optimization and/or second-order correction.
 Total Energy, E(TD-HF/TD-DFT) =  -1949.02048911
 Copying the excited state density for this state as the 1-particle RhoCI density.

 The electronic state is 1-A.
 Alpha  occ. eigenvalues --  -19.19569 -19.17427 -19.14964 -19.14429 -19.11837
 Alpha  occ. eigenvalues --  -19.10978 -14.38502 -14.37000 -14.35455 -14.28337
 Alpha  occ. eigenvalues --  -10.33817 -10.32955 -10.29858 -10.26626 -10.25204
 Alpha  occ. eigenvalues --  -10.25040 -10.23570 -10.23347 -10.23291 -10.23181
 Alpha  occ. eigenvalues --  -10.22670 -10.22018 -10.21581 -10.20888 -10.20624
 Alpha  occ. eigenvalues --  -10.20594 -10.20556 -10.20445 -10.20430 -10.20328
 Alpha  occ. eigenvalues --  -10.20220 -10.20130 -10.20060 -10.19933 -10.19688
 Alpha  occ. eigenvalues --  -10.19652 -10.19545 -10.19398 -10.19159 -10.19030
 Alpha  occ. eigenvalues --  -10.18473 -10.18138 -10.17743  -1.10155  -1.08531
 Alpha  occ. eigenvalues --   -1.04048  -1.02014  -1.01392  -1.01166  -1.00162
 Alpha  occ. eigenvalues --   -0.99006  -0.94529  -0.92610  -0.83823  -0.83303
 Alpha  occ. eigenvalues --   -0.81677  -0.81611  -0.79847  -0.79455  -0.78264
 Alpha  occ. eigenvalues --   -0.77535  -0.76715  -0.75259  -0.73821  -0.72003
 Alpha  occ. eigenvalues --   -0.70868  -0.69934  -0.69327  -0.68713  -0.68060
 Alpha  occ. eigenvalues --   -0.67510  -0.65772  -0.65284  -0.61872  -0.61208
 Alpha  occ. eigenvalues --   -0.60165  -0.59581  -0.58655  -0.58012  -0.57674
 Alpha  occ. eigenvalues --   -0.56994  -0.56673  -0.55369  -0.53968  -0.52925
 Alpha  occ. eigenvalues --   -0.52127  -0.51666  -0.50670  -0.50294  -0.50276
 Alpha  occ. eigenvalues --   -0.50026  -0.49134  -0.48515  -0.48180  -0.47824
 Alpha  occ. eigenvalues --   -0.46802  -0.46688  -0.46293  -0.45988  -0.45615
 Alpha  occ. eigenvalues --   -0.44826  -0.44576  -0.44429  -0.44089  -0.44007
 Alpha  occ. eigenvalues --   -0.43975  -0.43350  -0.42933  -0.42769  -0.42350
 Alpha  occ. eigenvalues --   -0.42126  -0.41824  -0.41629  -0.41464  -0.41287
 Alpha  occ. eigenvalues --   -0.40950  -0.40428  -0.39960  -0.39910  -0.39809
 Alpha  occ. eigenvalues --   -0.39723  -0.39637  -0.39313  -0.38956  -0.38548
 Alpha  occ. eigenvalues --   -0.37971  -0.37602  -0.37239  -0.37115  -0.36781
 Alpha  occ. eigenvalues --   -0.36725  -0.35744  -0.35375  -0.34955  -0.34815
 Alpha  occ. eigenvalues --   -0.34475  -0.34201  -0.33716  -0.33678  -0.33295
 Alpha  occ. eigenvalues --   -0.32629  -0.31055  -0.30509  -0.29918  -0.29702
 Alpha  occ. eigenvalues --   -0.29344  -0.27411  -0.27148  -0.26604  -0.26380
 Alpha  occ. eigenvalues --   -0.25872  -0.25755  -0.24423  -0.24141  -0.21975
 Alpha  occ. eigenvalues --   -0.17617
 Alpha virt. eigenvalues --   -0.10665  -0.05445  -0.03495  -0.01499  -0.00743
 Alpha virt. eigenvalues --   -0.00558   0.01580   0.02406   0.02796   0.04040
 Alpha virt. eigenvalues --    0.04317   0.04782   0.04831   0.05702   0.05752

 Mulliken charges:
               1
     1  O   -0.195333
     2  O   -0.250453
     3  O   -0.276177
     4  O   -0.211395
     5  O   -0.184108
     6  O   -0.209010
     7  N   -0.102304
     8  N    0.140161
     9  N   -0.132168
    10  N   -0.266024
    11  C   -0.166960
    12  C    0.017330
    13  C   -0.094850
    14  C    0.115957
    15  C   -0.108621
    16  C   -0.000614
    17  C   -0.007987
    18  C   -0.130691
    19  C    0.292557
    20  C   -0.048080
    21  C    0.048214
    22  C    0.107793
    23  C    0.027449
    24  C    0.219375
    25  C   -0.116555
    26  C   -0.060175
    27  C    0.172635
    28  C   -0.108293
    29  C   -0.012584
    30  C    0.058644
    31  C   -0.133293
    32  C    0.002116
    33  C   -0.219147
    34  C    0.019207
    35  C   -0.102653
    36  C   -0.165814
    37  C    0.150810
    38  C    0.101078
    39  C    0.172965
    40  C    0.050367
    41  C    0.152440
    42  C    0.126342
    43  C   -0.068326
    44  H    0.170039
    45  H   -0.031689
    46  H   -0.027947
    47  H   -0.015122
    48  H    0.041588
    49  H    0.008453
    50  H   -0.039220
    51  H    0.041851
    52  H    0.001020
    53  H    0.012487
    54  H    0.039506
    55  H    0.035463
    56  H    0.113763
    57  H    0.089078
    58  H    0.067833
    59  H    0.034092
    60  H    0.045052
    61  H    0.034039
    62  H    0.012200
    63  H    0.029170
    64  H   -0.021838
    65  H    0.026840
    66  H    0.035654
    67  H    0.007991
    68  H    0.013929
    69  H    0.037528
    70  H   -0.001529
    71  H    0.043076
    72  H    0.005907
    73  H    0.043785
    74  H    0.001680
    75  H    0.047762
    76  H    0.006884
    77  H    0.002451
    78  H    0.029959
    79  H    0.035486
    80  H    0.227726
    81  H    0.191229
 Sum of Mulliken charges =  -0.00000

 Dipole moment (field-independent basis, Debye):
    X=             -2.9460    Y=              1.1710    Z=             -0.2303  Tot=              3.1785
 Quadrupole moment (field-independent basis, Debye-Ang):
   XX=           -245.9219   YY=           -250.0883   ZZ=           -255.1025
   XY=             14.9169   XZ=             11.5625   YZ=            -14.2940

 Normal termination of Gaussian 16 at Sat Jun 29 06:36:57 2019.
