 Gaussian 16, Revision A.03,
 Gaussian 16:  ES64L-G16RevA.03 25-Dec-2016

 --------------------------
 # td=(NStates=1) B3LYP/SVP
 --------------------------

 --
 TD
 --
 Symbolic Z-matrix:
 Charge =  0 Multiplicity = 1

                         Standard orientation:
 ---------------------------------------------------------------------
 Center     Atomic      Atomic             Coordinates (Angstroms)
 Number     Number       Type             X           Y           Z
 ---------------------------------------------------------------------
      1          8           0        4.194470   -4.914210   -1.813133
      2          8           0       -3.015358   -4.940253   -1.111367
      3          8           0       -6.914298   -1.303055   -2.000265
      4          8           0       -3.784281   -3.068798   -0.025426
      5          8           0       -7.615501   -0.511625    0.067225
      6          8           0        3.053739    2.344068    0.413261
      7          7           0        0.225721   -0.570926    0.508580
      8          7           0       -1.486326    1.890163    0.385904
      9          7           0        3.230863   -3.193684   -0.728157
     10          7           0        0.854320    2.872430   -0.002026
     11          6           0       -0.773267   -2.393867    1.375249
     12          6           0       -0.922920   -1.056603    0.947402
     13          6           0        0.599923   -2.690146    1.270122
     14          6           0        1.249724   -1.522377    0.644753
     15          6           0       -3.796835    1.656557    0.395051
     16          6           0       -2.484840    0.976711    0.628765
     17          6           0       -2.189879   -0.433287    0.861726
     18          6           0       -3.386134    2.905119   -0.168212
     19          6           0       -1.778679   -3.240659    2.004342
     20          6           0        5.451700   -2.903744   -1.288198
     21          6           0        3.526161   -1.902416   -0.238426
     22          6           0       -1.933960    3.035231   -0.121065
     23          6           0        4.963459   -1.653390   -0.444371
     24          6           0       -5.113319    1.024133    0.374694
     25          6           0        2.569356   -1.088105    0.353564
     26          6           0        1.364809   -3.914874    1.752739
     27          6           0        4.191161   -3.856603   -1.395070
     28          6           0       -2.253314   -4.526555    1.249863
     29          6           0       -5.353182    0.062019   -0.815052
     30          6           0       -4.358032    4.042542   -0.512937
     31          6           0       -1.127343    4.072697   -0.365013
     32          6           0        6.765014   -3.538629   -0.845371
     33          6           0        5.828199   -0.654229   -0.173319
     34          6           0        0.157467    3.994160   -0.233211
     35          6           0        1.143657    5.160237   -0.473073
     36          6           0        2.454441    4.541498   -0.219936
     37          6           0       -3.060747   -4.017852   -0.071357
     38          6           0        5.395246    0.562630    0.754903
     39          6           0       -6.775892   -0.648055   -0.828722
     40          6           0        3.744471    5.237161   -0.185527
     41          6           0        2.219199    3.180965    0.050836
     42          6           0        0.826454    6.542231   -0.824776
     43          6           0        4.375286    5.412068    1.154680
     44          1           0        0.347590    0.334059    0.052180
     45          1           0       -3.044929   -0.955699    1.130058
     46          1           0       -2.692974   -2.745508    2.387487
     47          1           0       -1.408356   -3.668489    3.010246
     48          1           0        5.526754   -2.316730   -2.337892
     49          1           0       -5.307395    0.592257    1.442711
     50          1           0       -5.896289    1.707205    0.445238
     51          1           0        2.792480    0.034033    0.397299
     52          1           0       -0.293615    1.742635    0.394608
     53          1           0        1.134668   -4.660199    1.119988
     54          1           0        2.349928   -3.808490    1.959690
     55          1           0        0.885273   -4.088981    2.681809
     56          1           0        2.394301   -3.596977   -0.525410
     57          1           0       -1.460855   -5.267387    0.923835
     58          1           0       -3.155411   -5.126774    1.929019
     59          1           0       -4.567978   -0.720683   -0.978845
     60          1           0       -5.147291    0.620091   -1.740578
     61          1           0       -3.995982    4.622864    0.403508
     62          1           0       -5.473350    3.699299   -0.349342
     63          1           0       -4.208255    4.355409   -1.559575
     64          1           0       -1.529601    5.115928   -0.435008
     65          1           0        7.551948   -2.737798   -0.801277
     66          1           0        7.007981   -4.392390   -1.618647
     67          1           0        6.558807   -3.901678    0.251664
     68          1           0        6.781017   -0.566803   -0.786083
     69          1           0        4.900357    1.369304    0.196142
     70          1           0        6.414626    0.948615    1.314885
     71          1           0        4.799616    0.126207    1.538888
     72          1           0        3.769635    6.155418   -0.956744
     73          1           0        4.326025    4.535349   -0.703661
     74          1           0        0.148088    6.752005   -1.731810
     75          1           0        1.726441    6.983652   -1.050139
     76          1           0        0.217764    6.920501   -0.143586
     77          1           0        3.851786    6.113668    1.848678
     78          1           0        5.288223    6.028593    1.118828
     79          1           0        4.500429    4.568254    1.606753
     80          1           0       -3.793603   -4.591975   -1.655121
     81          1           0       -7.524382   -2.201088   -1.862572
 ---------------------------------------------------------------------

 SCF Done:  E(RB3LYP) =  -1949.08815697     A.U. after   19 cycles

 Excitation energies and oscillator strengths:

 Excited State   1:      Singlet-A      1.7262 eV  718.25 nm  f=0.3315  <S**2>=0.000
     156 ->157         0.70732
     156 <-157        -0.12463
 This state for optimization and/or second-order correction.
 Total Energy, E(TD-HF/TD-DFT) =  -1949.02472010
 Copying the excited state density for this state as the 1-particle RhoCI density.

 The electronic state is 1-A.
 Alpha  occ. eigenvalues --  -19.20166 -19.19617 -19.15595 -19.13336 -19.11214
 Alpha  occ. eigenvalues --  -19.09356 -14.38208 -14.36450 -14.35497 -14.28496
 Alpha  occ. eigenvalues --  -10.34115 -10.33040 -10.28488 -10.25487 -10.24923
 Alpha  occ. eigenvalues --  -10.24584 -10.24082 -10.23528 -10.23279 -10.22915
 Alpha  occ. eigenvalues --  -10.21881 -10.21283 -10.21283 -10.21007 -10.20941
 Alpha  occ. eigenvalues --  -10.20891 -10.20797 -10.20522 -10.20307 -10.20251
 Alpha  occ. eigenvalues --  -10.20151 -10.20034 -10.20034 -10.20030 -10.19835
 Alpha  occ. eigenvalues --  -10.19369 -10.18605 -10.18590 -10.18488 -10.18413
 Alpha  occ. eigenvalues --  -10.17873 -10.17423 -10.16314  -1.10763  -1.08044
 Alpha  occ. eigenvalues --   -1.07642  -1.02788  -1.00382  -0.99847  -0.99536
 Alpha  occ. eigenvalues --   -0.97606  -0.96478  -0.90983  -0.82953  -0.81829
 Alpha  occ. eigenvalues --   -0.80998  -0.80562  -0.80053  -0.79320  -0.77064
 Alpha  occ. eigenvalues --   -0.76867  -0.76134  -0.75833  -0.73294  -0.73162
 Alpha  occ. eigenvalues --   -0.71164  -0.69854  -0.69382  -0.67751  -0.67320
 Alpha  occ. eigenvalues --   -0.66615  -0.65874  -0.63869  -0.62667  -0.61693
 Alpha  occ. eigenvalues --   -0.60153  -0.59515  -0.59055  -0.57656  -0.56961
 Alpha  occ. eigenvalues --   -0.56130  -0.55418  -0.55155  -0.53527  -0.53104
 Alpha  occ. eigenvalues --   -0.52403  -0.50986  -0.50536  -0.50243  -0.49706
 Alpha  occ. eigenvalues --   -0.48810  -0.48712  -0.48388  -0.47874  -0.47626
 Alpha  occ. eigenvalues --   -0.46888  -0.46554  -0.46290  -0.46043  -0.45922
 Alpha  occ. eigenvalues --   -0.45546  -0.45167  -0.45040  -0.44402  -0.44294
 Alpha  occ. eigenvalues --   -0.44025  -0.43815  -0.43517  -0.43185  -0.42647
 Alpha  occ. eigenvalues --   -0.42296  -0.41728  -0.41489  -0.41453  -0.41055
 Alpha  occ. eigenvalues --   -0.40936  -0.40681  -0.40391  -0.40175  -0.39937
 Alpha  occ. eigenvalues --   -0.39412  -0.38751  -0.38625  -0.38458  -0.38332
 Alpha  occ. eigenvalues --   -0.38174  -0.37661  -0.37398  -0.36809  -0.36550
 Alpha  occ. eigenvalues --   -0.36444  -0.36043  -0.35617  -0.35050  -0.34951
 Alpha  occ. eigenvalues --   -0.34905  -0.34573  -0.33914  -0.33369  -0.32681
 Alpha  occ. eigenvalues --   -0.32335  -0.31423  -0.31327  -0.30172  -0.29333
 Alpha  occ. eigenvalues --   -0.28360  -0.27063  -0.26504  -0.26037  -0.25697
 Alpha  occ. eigenvalues --   -0.24794  -0.24290  -0.24073  -0.22347  -0.21296
 Alpha  occ. eigenvalues --   -0.17617
 Alpha virt. eigenvalues --   -0.10718  -0.06196  -0.04490  -0.02610  -0.01719
 Alpha virt. eigenvalues --    0.01081   0.01589   0.02163   0.03345   0.03930
 Alpha virt. eigenvalues --    0.04250   0.04546   0.04997   0.05666   0.06072

 Mulliken charges:
               1
     1  O   -0.119263
     2  O   -0.213590
     3  O   -0.249751
     4  O   -0.204220
     5  O   -0.233814
     6  O   -0.239838
     7  N   -0.031978
     8  N   -0.164172
     9  N   -0.063901
    10  N   -0.329806
    11  C   -0.050362
    12  C    0.069944
    13  C   -0.209836
    14  C    0.069279
    15  C   -0.081515
    16  C    0.019069
    17  C   -0.005123
    18  C   -0.180798
    19  C    0.049520
    20  C   -0.195366
    21  C    0.086619
    22  C    0.163361
    23  C    0.018789
    24  C    0.139255
    25  C   -0.148001
    26  C    0.235803
    27  C    0.106396
    28  C   -0.076059
    29  C   -0.022863
    30  C    0.043668
    31  C   -0.196741
    32  C    0.027984
    33  C   -0.186691
    34  C    0.118883
    35  C   -0.135897
    36  C   -0.165680
    37  C    0.152984
    38  C    0.012399
    39  C    0.187474
    40  C    0.085426
    41  C    0.150494
    42  C    0.206001
    43  C    0.093304
    44  H    0.122245
    45  H   -0.029797
    46  H    0.017963
    47  H    0.020829
    48  H    0.048320
    49  H    0.019360
    50  H   -0.028348
    51  H    0.063502
    52  H    0.221528
    53  H    0.001980
    54  H   -0.000931
    55  H   -0.005747
    56  H    0.080812
    57  H    0.046660
    58  H    0.073925
    59  H    0.041447
    60  H    0.024114
    61  H    0.058939
    62  H    0.035943
    63  H    0.041295
    64  H   -0.022346
    65  H    0.024381
    66  H    0.054556
    67  H    0.029127
    68  H    0.024806
    69  H    0.083745
    70  H    0.011856
    71  H    0.026377
    72  H    0.008568
    73  H   -0.015397
    74  H    0.012947
    75  H   -0.007897
    76  H   -0.017325
    77  H   -0.009735
    78  H   -0.003667
    79  H   -0.014886
    80  H    0.189547
    81  H    0.239914
 Sum of Mulliken charges =  -0.00000

 Dipole moment (field-independent basis, Debye):
    X=             -3.1718    Y=             -0.2890    Z=             -0.3708  Tot=              3.2065
 Quadrupole moment (field-independent basis, Debye-Ang):
   XX=           -261.7499   YY=           -235.4436   ZZ=           -253.5895
   XY=             22.7185   XZ=             11.5233   YZ=            -13.6168

 Normal termination of Gaussian 16 at Tue Jul  2 15:33:59 2019.
