 Gaussian 16, Revision A.03,
 Gaussian 16:  ES64L-G16RevA.03 25-Dec-2016

 --------------------------
 # td=(NStates=1) B3LYP/SVP
 --------------------------

 --
 TD
 --
 Symbolic Z-matrix:
 Charge =  0 Multiplicity = 1

                         Standard orientation:
 ---------------------------------------------------------------------
 Center     Atomic      Atomic             Coordinates (Angstroms)
 Number     Number       Type             X           Y           Z
 ---------------------------------------------------------------------
      1          8           0        4.241884   -4.791096   -1.789111
      2          8           0       -2.801651   -4.820308   -1.074975
      3          8           0       -6.937799   -1.590900   -1.856247
      4          8           0       -3.706702   -3.205683    0.091054
      5          8           0       -7.597358   -0.550252   -0.102508
      6          8           0        2.923653    2.387471    0.504822
      7          7           0        0.270408   -0.498734    0.563514
      8          7           0       -1.508042    1.827377    0.447253
      9          7           0        3.331847   -3.043384   -0.709717
     10          7           0        0.770226    2.833681   -0.021631
     11          6           0       -0.617514   -2.401838    1.422690
     12          6           0       -0.962486   -1.075935    0.931761
     13          6           0        0.760458   -2.540178    1.375155
     14          6           0        1.375701   -1.369888    0.764923
     15          6           0       -3.798588    1.451645    0.381919
     16          6           0       -2.498910    0.783060    0.630415
     17          6           0       -2.258019   -0.580933    0.826970
     18          6           0       -3.638540    2.775252   -0.037192
     19          6           0       -1.593285   -3.426936    2.119456
     20          6           0        5.460777   -2.748979   -1.426644
     21          6           0        3.596823   -1.715621   -0.216615
     22          6           0       -2.151330    3.007209    0.158236
     23          6           0        4.983295   -1.555685   -0.561519
     24          6           0       -5.147781    0.705829    0.317303
     25          6           0        2.657349   -0.879803    0.303942
     26          6           0        1.605379   -3.718530    1.737458
     27          6           0        4.352078   -3.626508   -1.333773
     28          6           0       -1.951943   -4.443716    1.084580
     29          6           0       -5.383235   -0.130588   -0.902939
     30          6           0       -4.557104    3.865716   -0.525390
     31          6           0       -1.292831    4.123089   -0.151030
     32          6           0        6.810130   -3.395541   -0.968854
     33          6           0        5.758329   -0.514467   -0.098630
     34          6           0        0.060580    4.012720   -0.278172
     35          6           0        1.015733    5.192946   -0.506282
     36          6           0        2.251296    4.636361   -0.238048
     37          6           0       -2.970091   -4.068776    0.035195
     38          6           0        5.407928    0.674451    0.660501
     39          6           0       -6.759870   -0.750649   -0.898831
     40          6           0        3.527012    5.205994   -0.282231
     41          6           0        2.044830    3.150865    0.150464
     42          6           0        0.583613    6.546712   -0.925954
     43          6           0        4.391834    5.420632    1.076269
     44          1           0        0.302392    0.359289   -0.004410
     45          1           0       -3.052205   -1.224030    0.885277
     46          1           0       -2.507631   -2.727930    2.438319
     47          1           0       -1.204104   -3.933940    2.971654
     48          1           0        5.669807   -2.471951   -2.441720
     49          1           0       -4.999386    0.063342    1.254749
     50          1           0       -6.038903    1.328496    0.481224
     51          1           0        2.982457    0.061903    0.399547
     52          1           0       -0.449912    1.925416    0.740048
     53          1           0        1.440765   -4.574122    1.028768
     54          1           0        2.729911   -3.546750    1.756181
     55          1           0        1.125343   -4.309183    2.592714
     56          1           0        2.340086   -3.314765   -0.802008
     57          1           0       -1.104439   -4.765510    0.434879
     58          1           0       -2.345529   -5.327651    1.698342
     59          1           0       -4.670190   -1.022325   -1.016506
     60          1           0       -5.170647    0.107309   -1.735667
     61          1           0       -4.593802    4.597850    0.257335
     62          1           0       -5.542576    3.212532   -0.739203
     63          1           0       -4.354986    4.299919   -1.689486
     64          1           0       -1.959022    4.946560   -0.600105
     65          1           0        7.628637   -2.715568   -1.082461
     66          1           0        7.041201   -4.306031   -1.459889
     67          1           0        6.916643   -3.434438    0.162268
     68          1           0        7.020005   -0.632739   -0.237015
     69          1           0        4.896046    1.454198   -0.018798
     70          1           0        6.258788    1.131045    1.103227
     71          1           0        4.655636    0.359542    1.285519
     72          1           0        3.535066    6.329935   -0.680388
     73          1           0        4.115925    4.801794   -0.958619
     74          1           0       -0.065718    6.534343   -1.829836
     75          1           0        1.514730    7.040448   -0.976642
     76          1           0        0.023245    7.010716   -0.080722
     77          1           0        3.705757    5.896424    1.913254
     78          1           0        5.382878    5.871252    1.016332
     79          1           0        4.573653    4.527231    1.518789
     80          1           0       -3.382944   -4.526365   -1.859960
     81          1           0       -7.813983   -1.940135   -1.615979
 ---------------------------------------------------------------------

 SCF Done:  E(RB3LYP) =  -1949.09171654     A.U. after   18 cycles

 Excitation energies and oscillator strengths:

 Excited State   1:      Singlet-A      1.8597 eV  666.68 nm  f=0.3437  <S**2>=0.000
     156 ->157         0.70610
     156 <-157        -0.10738
 This state for optimization and/or second-order correction.
 Total Energy, E(TD-HF/TD-DFT) =  -1949.02337322
 Copying the excited state density for this state as the 1-particle RhoCI density.

 The electronic state is 1-A.
 Alpha  occ. eigenvalues --  -19.18846 -19.18778 -19.14591 -19.12168 -19.08864
 Alpha  occ. eigenvalues --  -19.08862 -14.37770 -14.36661 -14.36155 -14.28227
 Alpha  occ. eigenvalues --  -10.32785 -10.31259 -10.27702 -10.25221 -10.24605
 Alpha  occ. eigenvalues --  -10.24561 -10.24214 -10.24072 -10.23443 -10.22762
 Alpha  occ. eigenvalues --  -10.22579 -10.22049 -10.21744 -10.21722 -10.21697
 Alpha  occ. eigenvalues --  -10.21408 -10.21222 -10.20871 -10.20524 -10.20483
 Alpha  occ. eigenvalues --  -10.20352 -10.20289 -10.20206 -10.19651 -10.19082
 Alpha  occ. eigenvalues --  -10.19037 -10.18994 -10.18631 -10.18567 -10.18158
 Alpha  occ. eigenvalues --  -10.18059 -10.17490 -10.17167  -1.13710  -1.12962
 Alpha  occ. eigenvalues --   -1.03334  -1.02303  -1.01920  -1.00808  -0.96704
 Alpha  occ. eigenvalues --   -0.95460  -0.93938  -0.90523  -0.82629  -0.82258
 Alpha  occ. eigenvalues --   -0.81734  -0.81357  -0.79843  -0.79245  -0.78437
 Alpha  occ. eigenvalues --   -0.78125  -0.76918  -0.75739  -0.74525  -0.72353
 Alpha  occ. eigenvalues --   -0.71204  -0.70190  -0.68584  -0.68252  -0.68027
 Alpha  occ. eigenvalues --   -0.67479  -0.66100  -0.64776  -0.62796  -0.61579
 Alpha  occ. eigenvalues --   -0.60887  -0.60311  -0.59296  -0.58998  -0.56940
 Alpha  occ. eigenvalues --   -0.55829  -0.55436  -0.54940  -0.52780  -0.52666
 Alpha  occ. eigenvalues --   -0.52187  -0.51707  -0.51331  -0.50816  -0.50452
 Alpha  occ. eigenvalues --   -0.49960  -0.49491  -0.49404  -0.48950  -0.48292
 Alpha  occ. eigenvalues --   -0.47811  -0.47441  -0.46210  -0.46126  -0.45263
 Alpha  occ. eigenvalues --   -0.44866  -0.44725  -0.44237  -0.44098  -0.43671
 Alpha  occ. eigenvalues --   -0.43608  -0.43160  -0.43061  -0.42634  -0.42570
 Alpha  occ. eigenvalues --   -0.42284  -0.42194  -0.41828  -0.41185  -0.40843
 Alpha  occ. eigenvalues --   -0.40638  -0.40456  -0.40362  -0.40271  -0.39974
 Alpha  occ. eigenvalues --   -0.39669  -0.39558  -0.39221  -0.38871  -0.38212
 Alpha  occ. eigenvalues --   -0.38066  -0.37709  -0.37439  -0.37057  -0.36656
 Alpha  occ. eigenvalues --   -0.36337  -0.35512  -0.35034  -0.34988  -0.34873
 Alpha  occ. eigenvalues --   -0.34446  -0.34344  -0.33760  -0.33314  -0.32837
 Alpha  occ. eigenvalues --   -0.32469  -0.32238  -0.32095  -0.29987  -0.29695
 Alpha  occ. eigenvalues --   -0.28774  -0.26896  -0.25868  -0.25557  -0.25243
 Alpha  occ. eigenvalues --   -0.24862  -0.24303  -0.23288  -0.22919  -0.21929
 Alpha  occ. eigenvalues --   -0.18093
 Alpha virt. eigenvalues --   -0.10502  -0.05480  -0.04094  -0.00199   0.00002
 Alpha virt. eigenvalues --    0.01355   0.01975   0.02748   0.02808   0.03479
 Alpha virt. eigenvalues --    0.03932   0.04606   0.05246   0.05629   0.05692

 Mulliken charges:
               1
     1  O   -0.267363
     2  O   -0.227121
     3  O   -0.123719
     4  O   -0.135387
     5  O   -0.209318
     6  O   -0.226857
     7  N   -0.134942
     8  N   -0.183116
     9  N   -0.099935
    10  N   -0.300233
    11  C   -0.128089
    12  C    0.105513
    13  C   -0.152936
    14  C    0.110164
    15  C   -0.111405
    16  C    0.120773
    17  C   -0.033603
    18  C   -0.103765
    19  C    0.106958
    20  C    0.021293
    21  C    0.055339
    22  C    0.037118
    23  C   -0.024857
    24  C    0.092079
    25  C    0.009015
    26  C    0.061945
    27  C    0.091047
    28  C   -0.019267
    29  C    0.144541
    30  C    0.011380
    31  C   -0.127138
    32  C    0.060018
    33  C   -0.241135
    34  C    0.117231
    35  C   -0.122256
    36  C   -0.133314
    37  C    0.091480
    38  C    0.143680
    39  C    0.063742
    40  C    0.047070
    41  C    0.137632
    42  C    0.162142
    43  C    0.001912
    44  H    0.146518
    45  H   -0.034004
    46  H    0.041496
    47  H    0.005349
    48  H    0.040269
    49  H    0.028377
    50  H    0.028131
    51  H   -0.082716
    52  H    0.191988
    53  H    0.015991
    54  H    0.058514
    55  H    0.000438
    56  H    0.142443
    57  H    0.049030
    58  H    0.049219
    59  H    0.024072
    60  H   -0.109939
    61  H    0.052695
    62  H    0.039529
    63  H    0.061488
    64  H   -0.003232
    65  H   -0.004211
    66  H    0.032041
    67  H    0.008706
    68  H    0.021848
    69  H    0.080147
    70  H    0.002839
    71  H    0.015839
    72  H   -0.003861
    73  H   -0.028969
    74  H    0.033954
    75  H   -0.007560
    76  H    0.024013
    77  H    0.012817
    78  H    0.011900
    79  H   -0.007330
    80  H    0.208654
    81  H    0.167203
 Sum of Mulliken charges =  -0.00000

 Dipole moment (field-independent basis, Debye):
    X=             -2.9604    Y=              0.5748    Z=             -1.0757  Tot=              3.2018
 Quadrupole moment (field-independent basis, Debye-Ang):
   XX=           -246.3200   YY=           -251.6298   ZZ=           -252.1695
   XY=             18.2740   XZ=             14.4929   YZ=            -13.8106

 Normal termination of Gaussian 16 at Thu Jun 27 05:27:15 2019.
