 Gaussian 16, Revision A.03,
 Gaussian 16:  ES64L-G16RevA.03 25-Dec-2016

 --------------------------
 # td=(NStates=1) B3LYP/SVP
 --------------------------

 --
 TD
 --
 Symbolic Z-matrix:
 Charge =  0 Multiplicity = 1

                         Standard orientation:
 ---------------------------------------------------------------------
 Center     Atomic      Atomic             Coordinates (Angstroms)
 Number     Number       Type             X           Y           Z
 ---------------------------------------------------------------------
      1          8           0       -4.296789   -4.776711    1.967065
      2          8           0        2.972525   -4.711249    1.113054
      3          8           0        7.085861   -1.445022    1.939643
      4          8           0        3.750172   -3.076906   -0.074581
      5          8           0        7.641314   -0.608402   -0.081005
      6          8           0       -2.996117    2.437721   -0.487881
      7          7           0       -0.244278   -0.525533   -0.568144
      8          7           0        1.582978    1.820944   -0.359482
      9          7           0       -3.311920   -3.170042    0.630197
     10          7           0       -0.776025    2.906988   -0.180274
     11          6           0        0.640523   -2.383302   -1.392455
     12          6           0        0.940557   -1.093550   -0.940863
     13          6           0       -0.782459   -2.587722   -1.294999
     14          6           0       -1.223790   -1.414458   -0.658222
     15          6           0        3.781151    1.477331   -0.233175
     16          6           0        2.409270    0.892255   -0.488941
     17          6           0        2.209262   -0.406590   -0.883752
     18          6           0        3.509232    2.744642    0.097693
     19          6           0        1.624612   -3.405643   -2.016156
     20          6           0       -5.485836   -2.706944    1.309887
     21          6           0       -3.610490   -1.851353    0.149223
     22          6           0        2.117106    2.993425    0.012282
     23          6           0       -4.980884   -1.556067    0.483487
     24          6           0        5.089692    0.767347   -0.413076
     25          6           0       -2.638950   -1.014136   -0.397244
     26          6           0       -1.626120   -3.802032   -1.606043
     27          6           0       -4.340066   -3.715613    1.384203
     28          6           0        2.150086   -4.535653   -1.113924
     29          6           0        5.400452   -0.225741    0.823401
     30          6           0        4.536119    3.767427    0.485453
     31          6           0        1.274076    4.150029    0.178884
     32          6           0       -6.835494   -3.518735    0.880344
     33          6           0       -5.667872   -0.484594    0.132144
     34          6           0       -0.099343    4.055282    0.134158
     35          6           0       -1.060432    5.181044    0.396573
     36          6           0       -2.315172    4.639244    0.180301
     37          6           0        3.027874   -3.995644    0.022785
     38          6           0       -5.411433    0.684622   -0.759322
     39          6           0        6.837993   -0.687001    0.771911
     40          6           0       -3.661953    5.275811    0.311660
     41          6           0       -2.107168    3.322231   -0.204682
     42          6           0       -0.685356    6.517084    0.962592
     43          6           0       -4.546468    5.204605   -0.979308
     44          1           0       -0.229721    0.291761   -0.031545
     45          1           0        3.201515   -0.996288   -1.135810
     46          1           0        2.306198   -2.772257   -2.562055
     47          1           0        1.011339   -3.994152   -2.826784
     48          1           0       -5.644799   -2.528011    2.401535
     49          1           0        5.020730    0.287804   -1.248778
     50          1           0        5.835796    1.690276   -0.607739
     51          1           0       -2.701923    0.123991   -0.386470
     52          1           0        0.587402    1.881262   -0.559523
     53          1           0       -2.081663   -4.418568   -0.644419
     54          1           0       -2.662729   -3.572810   -1.992989
     55          1           0       -1.160178   -4.394265   -2.414635
     56          1           0       -2.418572   -3.647710    0.538891
     57          1           0        1.395767   -5.366179   -0.652609
     58          1           0        2.721340   -5.297243   -1.645194
     59          1           0        4.676380   -1.056137    0.871610
     60          1           0        5.309009    0.463224    1.656898
     61          1           0        4.403093    4.726782   -0.191424
     62          1           0        5.578020    3.465934    0.532797
     63          1           0        4.147441    4.261118    1.507545
     64          1           0        1.812661    5.058643    0.621624
     65          1           0       -7.650058   -2.819178    0.841965
     66          1           0       -6.874041   -4.260941    1.514084
     67          1           0       -6.920937   -3.920031   -0.230376
     68          1           0       -6.685416   -0.439108    0.733256
     69          1           0       -4.907071    1.265571   -0.186666
     70          1           0       -6.414078    0.962690   -1.223801
     71          1           0       -4.636522    0.505826   -1.505574
     72          1           0       -3.362355    6.290037    0.847396
     73          1           0       -4.193869    4.725262    1.147656
     74          1           0       -0.007560    6.353844    1.805350
     75          1           0       -1.689090    7.092026    1.150865
     76          1           0        0.055670    6.964909    0.304128
     77          1           0       -4.002688    5.634367   -1.816319
     78          1           0       -5.408883    5.856624   -0.822765
     79          1           0       -4.825499    3.987822   -1.203606
     80          1           0        3.710170   -4.295548    1.771348
     81          1           0        7.881799   -1.618902    1.966768
 ---------------------------------------------------------------------

 SCF Done:  E(RB3LYP) =  -1949.09641490     A.U. after   20 cycles

 Excitation energies and oscillator strengths:

 Excited State   1:      Singlet-A      1.8040 eV  687.28 nm  f=0.2983  <S**2>=0.000
     156 ->157         0.70425
     156 <-157        -0.11458
 This state for optimization and/or second-order correction.
 Total Energy, E(TD-HF/TD-DFT) =  -1949.03011927
 Copying the excited state density for this state as the 1-particle RhoCI density.

 The electronic state is 1-A.
 Alpha  occ. eigenvalues --  -19.19977 -19.15675 -19.14279 -19.13735 -19.10632
 Alpha  occ. eigenvalues --  -19.08898 -14.37624 -14.36643 -14.36395 -14.28465
 Alpha  occ. eigenvalues --  -10.32655 -10.32637 -10.28597 -10.25131 -10.24384
 Alpha  occ. eigenvalues --  -10.24232 -10.23201 -10.23051 -10.23019 -10.22780
 Alpha  occ. eigenvalues --  -10.22516 -10.22304 -10.21952 -10.21530 -10.21482
 Alpha  occ. eigenvalues --  -10.21274 -10.20789 -10.20674 -10.20497 -10.20425
 Alpha  occ. eigenvalues --  -10.20352 -10.20344 -10.19963 -10.19951 -10.19927
 Alpha  occ. eigenvalues --  -10.19909 -10.19655 -10.19166 -10.19061 -10.18835
 Alpha  occ. eigenvalues --  -10.18569 -10.18160 -10.16410  -1.12646  -1.11060
 Alpha  occ. eigenvalues --   -1.03416  -1.03150  -1.02918  -1.02655  -1.00278
 Alpha  occ. eigenvalues --   -0.98153  -0.94310  -0.90643  -0.83183  -0.82102
 Alpha  occ. eigenvalues --   -0.81834  -0.81478  -0.79762  -0.78934  -0.77797
 Alpha  occ. eigenvalues --   -0.77245  -0.76386  -0.75126  -0.74054  -0.72621
 Alpha  occ. eigenvalues --   -0.71561  -0.70069  -0.69779  -0.69175  -0.68717
 Alpha  occ. eigenvalues --   -0.68063  -0.65970  -0.65180  -0.61999  -0.61872
 Alpha  occ. eigenvalues --   -0.60917  -0.60597  -0.59560  -0.58412  -0.57718
 Alpha  occ. eigenvalues --   -0.57185  -0.56018  -0.55042  -0.54982  -0.52983
 Alpha  occ. eigenvalues --   -0.52483  -0.51600  -0.51029  -0.50853  -0.50327
 Alpha  occ. eigenvalues --   -0.49753  -0.49307  -0.49018  -0.48485  -0.47756
 Alpha  occ. eigenvalues --   -0.46891  -0.46822  -0.46563  -0.45912  -0.44942
 Alpha  occ. eigenvalues --   -0.44691  -0.44671  -0.44140  -0.43754  -0.43272
 Alpha  occ. eigenvalues --   -0.43099  -0.42840  -0.42773  -0.42681  -0.42398
 Alpha  occ. eigenvalues --   -0.42043  -0.41942  -0.41496  -0.41175  -0.40937
 Alpha  occ. eigenvalues --   -0.40746  -0.40572  -0.40376  -0.40155  -0.39747
 Alpha  occ. eigenvalues --   -0.39589  -0.39328  -0.38676  -0.38424  -0.38119
 Alpha  occ. eigenvalues --   -0.37963  -0.37777  -0.37176  -0.36784  -0.36699
 Alpha  occ. eigenvalues --   -0.36503  -0.36356  -0.35422  -0.35181  -0.34922
 Alpha  occ. eigenvalues --   -0.34460  -0.34032  -0.33946  -0.33677  -0.33258
 Alpha  occ. eigenvalues --   -0.33093  -0.32318  -0.32086  -0.29778  -0.29535
 Alpha  occ. eigenvalues --   -0.29360  -0.27638  -0.26511  -0.26042  -0.25682
 Alpha  occ. eigenvalues --   -0.25367  -0.25107  -0.23526  -0.23113  -0.21348
 Alpha  occ. eigenvalues --   -0.17995
 Alpha virt. eigenvalues --   -0.10731  -0.05844  -0.03805  -0.00381   0.00298
 Alpha virt. eigenvalues --    0.01015   0.01521   0.02732   0.03111   0.03285
 Alpha virt. eigenvalues --    0.04252   0.04844   0.05475   0.06276   0.06528

 Mulliken charges:
               1
     1  O   -0.212188
     2  O   -0.189535
     3  O   -0.148075
     4  O   -0.200794
     5  O   -0.166191
     6  O   -0.284838
     7  N    0.023074
     8  N    0.094423
     9  N   -0.159345
    10  N   -0.308316
    11  C   -0.141926
    12  C    0.026556
    13  C   -0.121476
    14  C   -0.007932
    15  C   -0.143257
    16  C   -0.011453
    17  C   -0.105399
    18  C   -0.098156
    19  C    0.100312
    20  C   -0.080404
    21  C    0.126533
    22  C    0.006863
    23  C    0.055501
    24  C    0.144266
    25  C   -0.136710
    26  C    0.031227
    27  C    0.115629
    28  C   -0.003273
    29  C    0.011411
    30  C    0.037731
    31  C   -0.123896
    32  C    0.082984
    33  C   -0.245752
    34  C    0.107454
    35  C   -0.138509
    36  C   -0.130204
    37  C    0.101062
    38  C    0.198023
    39  C    0.129598
    40  C    0.050259
    41  C    0.139086
    42  C    0.127853
    43  C   -0.033159
    44  H    0.116040
    45  H    0.054615
    46  H    0.021745
    47  H    0.018397
    48  H    0.040344
    49  H   -0.036525
    50  H    0.036240
    51  H    0.049066
    52  H    0.117307
    53  H    0.029834
    54  H    0.027113
    55  H    0.017538
    56  H    0.135044
    57  H    0.047416
    58  H    0.037736
    59  H    0.072072
    60  H    0.032450
    61  H    0.031938
    62  H    0.027235
    63  H    0.029980
    64  H   -0.011026
    65  H    0.006893
    66  H    0.001606
    67  H    0.018496
    68  H    0.007611
    69  H   -0.002399
    70  H    0.031139
    71  H    0.018710
    72  H   -0.009121
    73  H    0.019012
    74  H    0.015010
    75  H    0.048955
    76  H    0.011087
    77  H    0.013788
    78  H    0.012693
    79  H    0.088473
    80  H    0.226603
    81  H    0.077829
 Sum of Mulliken charges =  -0.00000

 Dipole moment (field-independent basis, Debye):
    X=              3.4927    Y=              1.2700    Z=              0.7549  Tot=              3.7923
 Quadrupole moment (field-independent basis, Debye-Ang):
   XX=           -252.5540   YY=           -241.1967   ZZ=           -255.4269
   XY=            -10.9654   XZ=             13.7276   YZ=             17.3547

 Normal termination of Gaussian 16 at Mon Jul  1 02:58:30 2019.
