 Gaussian 16, Revision A.03,
 Gaussian 16:  ES64L-G16RevA.03 25-Dec-2016

 --------------------------
 # td=(NStates=1) B3LYP/SVP
 --------------------------

 --
 TD
 --
 Symbolic Z-matrix:
 Charge =  0 Multiplicity = 1

                         Standard orientation:
 ---------------------------------------------------------------------
 Center     Atomic      Atomic             Coordinates (Angstroms)
 Number     Number       Type             X           Y           Z
 ---------------------------------------------------------------------
      1          8           0        4.319703   -5.002109   -1.797181
      2          8           0       -3.070794   -4.632212   -1.153855
      3          8           0       -6.978990   -1.703716   -1.822659
      4          8           0       -4.039710   -3.080050    0.264948
      5          8           0       -7.704035   -0.342205   -0.077535
      6          8           0        3.028179    2.412785    0.652624
      7          7           0        0.249042   -0.531715    0.760429
      8          7           0       -1.468580    1.835097    0.219710
      9          7           0        3.326089   -3.241754   -0.612839
     10          7           0        0.850603    2.940212    0.033044
     11          6           0       -0.627016   -2.358581    1.490683
     12          6           0       -0.942956   -1.087117    1.115542
     13          6           0        0.755646   -2.540954    1.442361
     14          6           0        1.368362   -1.379232    0.897727
     15          6           0       -3.771714    1.452986    0.203789
     16          6           0       -2.446315    0.835860    0.433749
     17          6           0       -2.144615   -0.457653    0.914041
     18          6           0       -3.455242    2.777611   -0.214750
     19          6           0       -1.600735   -3.426826    1.983721
     20          6           0        5.541603   -2.800214   -1.424086
     21          6           0        3.612709   -1.916533   -0.204673
     22          6           0       -2.106323    3.012442   -0.218233
     23          6           0        5.040097   -1.611784   -0.619335
     24          6           0       -5.140212    0.733573    0.272059
     25          6           0        2.679548   -1.135462    0.478911
     26          6           0        1.347693   -3.801518    1.905258
     27          6           0        4.441051   -3.932993   -1.326086
     28          6           0       -2.014378   -4.400142    0.955726
     29          6           0       -5.314936   -0.274883   -0.782973
     30          6           0       -4.571278    3.857363   -0.476256
     31          6           0       -1.230947    4.042518   -0.467431
     32          6           0        6.912485   -3.391855   -0.988643
     33          6           0        5.746232   -0.613373   -0.257488
     34          6           0        0.105302    4.024636   -0.348855
     35          6           0        1.057163    5.121703   -0.593727
     36          6           0        2.260228    4.658489   -0.249047
     37          6           0       -3.159145   -3.937172    0.084130
     38          6           0        5.469515    0.529437    0.577910
     39          6           0       -6.780361   -0.682638   -0.880481
     40          6           0        3.670042    5.494703   -0.177755
     41          6           0        2.175696    3.200700    0.127704
     42          6           0        0.609893    6.592781   -0.856523
     43          6           0        4.181062    5.756486    1.274785
     44          1           0        0.377166    0.318530    0.228770
     45          1           0       -2.899993   -1.118810    1.154023
     46          1           0       -2.416930   -2.814633    2.384268
     47          1           0       -1.029053   -3.943403    2.871052
     48          1           0        5.609193   -2.677859   -2.683546
     49          1           0       -5.226486    0.202409    1.203566
     50          1           0       -5.927625    1.381778    0.541345
     51          1           0        2.543784   -0.056552    0.238551
     52          1           0       -0.380062    1.760985    0.183578
     53          1           0        1.300094   -4.593177    1.082423
     54          1           0        2.514765   -3.746999    1.988342
     55          1           0        0.794583   -3.971508    2.897986
     56          1           0        2.441243   -3.749738   -0.675100
     57          1           0       -1.145679   -4.589598    0.335379
     58          1           0       -2.321549   -5.504784    1.380418
     59          1           0       -4.673634   -1.186907   -0.541156
     60          1           0       -4.894455   -0.063724   -1.943301
     61          1           0       -4.366363    4.665642    0.315782
     62          1           0       -5.401133    3.129176   -0.526114
     63          1           0       -4.189419    4.531310   -1.367631
     64          1           0       -1.912042    4.852620   -0.696446
     65          1           0        7.757958   -2.457157   -1.136678
     66          1           0        7.216442   -4.097521   -1.952558
     67          1           0        7.209004   -3.693332   -0.055487
     68          1           0        6.719180   -0.780991   -0.610148
     69          1           0        4.829595    1.281275    0.047853
     70          1           0        6.431614    1.099234    0.817645
     71          1           0        4.774162    0.278927    1.341094
     72          1           0        3.752989    6.190091   -0.951237
     73          1           0        4.443387    4.697253   -0.434380
     74          1           0       -0.018383    6.627767   -1.837347
     75          1           0        1.479878    7.076540   -0.921237
     76          1           0        0.036538    7.006438    0.072776
     77          1           0        3.739402    6.730155    1.733372
     78          1           0        5.191592    6.261303    1.157301
     79          1           0        4.238690    4.864896    1.930390
     80          1           0       -3.788079   -4.243989   -1.606165
     81          1           0       -7.954194   -1.952621   -1.731040
 ---------------------------------------------------------------------

 SCF Done:  E(RB3LYP) =  -1949.06663562     A.U. after   19 cycles

 Excitation energies and oscillator strengths:

 Excited State   1:      Singlet-A      1.7261 eV  718.30 nm  f=0.3358  <S**2>=0.000
     156 ->157         0.70785
     156 <-157        -0.13436
 This state for optimization and/or second-order correction.
 Total Energy, E(TD-HF/TD-DFT) =  -1949.00320310
 Copying the excited state density for this state as the 1-particle RhoCI density.

 The electronic state is 1-A.
 Alpha  occ. eigenvalues --  -19.19315 -19.18592 -19.16573 -19.14448 -19.13454
 Alpha  occ. eigenvalues --  -19.08973 -14.37816 -14.37224 -14.34649 -14.27458
 Alpha  occ. eigenvalues --  -10.35367 -10.33139 -10.31488 -10.26899 -10.25437
 Alpha  occ. eigenvalues --  -10.24216 -10.24101 -10.23673 -10.23652 -10.22644
 Alpha  occ. eigenvalues --  -10.22494 -10.22357 -10.22143 -10.21767 -10.21591
 Alpha  occ. eigenvalues --  -10.21390 -10.21310 -10.21079 -10.21028 -10.20433
 Alpha  occ. eigenvalues --  -10.20076 -10.19873 -10.19467 -10.19450 -10.19190
 Alpha  occ. eigenvalues --  -10.19138 -10.19065 -10.18855 -10.18467 -10.18387
 Alpha  occ. eigenvalues --  -10.18166 -10.17986 -10.17513  -1.10238  -1.07486
 Alpha  occ. eigenvalues --   -1.06931  -1.02114  -0.98889  -0.98302  -0.97798
 Alpha  occ. eigenvalues --   -0.95512  -0.94237  -0.90491  -0.83902  -0.83279
 Alpha  occ. eigenvalues --   -0.82261  -0.81672  -0.79324  -0.78992  -0.77766
 Alpha  occ. eigenvalues --   -0.77351  -0.76797  -0.75689  -0.73447  -0.72461
 Alpha  occ. eigenvalues --   -0.70612  -0.70160  -0.69267  -0.68142  -0.67732
 Alpha  occ. eigenvalues --   -0.66996  -0.66155  -0.65894  -0.63225  -0.60707
 Alpha  occ. eigenvalues --   -0.60130  -0.59501  -0.58350  -0.56922  -0.56620
 Alpha  occ. eigenvalues --   -0.56415  -0.55251  -0.54835  -0.54166  -0.52985
 Alpha  occ. eigenvalues --   -0.52824  -0.51933  -0.51488  -0.50780  -0.50009
 Alpha  occ. eigenvalues --   -0.49810  -0.49102  -0.48540  -0.48090  -0.47721
 Alpha  occ. eigenvalues --   -0.47448  -0.46946  -0.46579  -0.46077  -0.45969
 Alpha  occ. eigenvalues --   -0.45669  -0.45005  -0.44687  -0.43958  -0.43837
 Alpha  occ. eigenvalues --   -0.43694  -0.43184  -0.42691  -0.42286  -0.42180
 Alpha  occ. eigenvalues --   -0.41918  -0.41390  -0.41242  -0.41027  -0.40701
 Alpha  occ. eigenvalues --   -0.40600  -0.40510  -0.40337  -0.39811  -0.39080
 Alpha  occ. eigenvalues --   -0.38919  -0.38813  -0.38509  -0.38366  -0.38133
 Alpha  occ. eigenvalues --   -0.37966  -0.37710  -0.37420  -0.37338  -0.36882
 Alpha  occ. eigenvalues --   -0.36463  -0.36258  -0.36028  -0.35026  -0.34887
 Alpha  occ. eigenvalues --   -0.34655  -0.34273  -0.33322  -0.32956  -0.32690
 Alpha  occ. eigenvalues --   -0.32400  -0.31855  -0.31217  -0.30329  -0.29852
 Alpha  occ. eigenvalues --   -0.28452  -0.28404  -0.27131  -0.26247  -0.25444
 Alpha  occ. eigenvalues --   -0.25199  -0.24543  -0.23209  -0.22890  -0.21545
 Alpha  occ. eigenvalues --   -0.17819
 Alpha virt. eigenvalues --   -0.11005  -0.05722  -0.04563  -0.04125  -0.02274
 Alpha virt. eigenvalues --   -0.01912   0.01683   0.02399   0.03851   0.04005
 Alpha virt. eigenvalues --    0.04482   0.04505   0.04892   0.05573   0.05885

 Mulliken charges:
               1
     1  O   -0.139271
     2  O   -0.194081
     3  O   -0.238896
     4  O   -0.234795
     5  O   -0.278024
     6  O   -0.290783
     7  N   -0.089531
     8  N   -0.195765
     9  N   -0.222995
    10  N   -0.309397
    11  C   -0.136304
    12  C    0.053115
    13  C   -0.159777
    14  C    0.036599
    15  C   -0.096122
    16  C    0.102839
    17  C   -0.004193
    18  C   -0.160142
    19  C    0.093996
    20  C   -0.129957
    21  C    0.148245
    22  C    0.072934
    23  C    0.057529
    24  C    0.169793
    25  C   -0.091034
    26  C    0.024354
    27  C    0.169404
    28  C    0.044195
    29  C   -0.064983
    30  C    0.063688
    31  C   -0.111971
    32  C   -0.016278
    33  C   -0.154416
    34  C    0.186522
    35  C   -0.126747
    36  C   -0.178892
    37  C    0.158796
    38  C    0.132581
    39  C    0.195267
    40  C    0.073505
    41  C    0.176459
    42  C    0.130763
    43  C   -0.024898
    44  H    0.122293
    45  H   -0.064854
    46  H    0.022668
    47  H    0.017630
    48  H    0.078797
    49  H   -0.002814
    50  H    0.001205
    51  H    0.036214
    52  H    0.163547
    53  H    0.025525
    54  H    0.031655
    55  H    0.052517
    56  H    0.134872
    57  H    0.034945
    58  H    0.079967
    59  H    0.074049
    60  H    0.060147
    61  H    0.039063
    62  H    0.055056
    63  H    0.027394
    64  H   -0.059245
    65  H    0.027152
    66  H    0.053514
    67  H    0.018066
    68  H   -0.049094
    69  H    0.063775
    70  H    0.020496
    71  H    0.023556
    72  H   -0.008170
    73  H    0.007186
    74  H    0.034920
    75  H   -0.026865
    76  H    0.042070
    77  H    0.004815
    78  H    0.001527
    79  H    0.056214
    80  H    0.158433
    81  H    0.200440
 Sum of Mulliken charges =  -0.00000

 Dipole moment (field-independent basis, Debye):
    X=             -0.2980    Y=             -2.5327    Z=             -1.4409  Tot=              2.9291
 Quadrupole moment (field-independent basis, Debye-Ang):
   XX=           -251.3171   YY=           -244.2187   ZZ=           -255.5922
   XY=              8.9351   XZ=              6.2237   YZ=            -12.5526

 Normal termination of Gaussian 16 at Thu Jun 27 04:23:00 2019.
