 Gaussian 16, Revision A.03,
 Gaussian 16:  ES64L-G16RevA.03 25-Dec-2016

 --------------------------
 # td=(NStates=1) B3LYP/SVP
 --------------------------

 --
 TD
 --
 Symbolic Z-matrix:
 Charge =  0 Multiplicity = 1

                         Standard orientation:
 ---------------------------------------------------------------------
 Center     Atomic      Atomic             Coordinates (Angstroms)
 Number     Number       Type             X           Y           Z
 ---------------------------------------------------------------------
      1          8           0        4.330399   -4.965628   -1.672266
      2          8           0       -2.885324   -5.039495   -0.982633
      3          8           0       -7.170090   -1.808993   -1.687515
      4          8           0       -3.745015   -3.240650    0.041545
      5          8           0       -7.686934   -0.559742    0.062466
      6          8           0        3.025744    2.637718    0.417178
      7          7           0        0.297603   -0.412250    0.535274
      8          7           0       -1.499973    1.842251    0.333850
      9          7           0        3.310695   -2.991499   -0.859198
     10          7           0        0.741852    3.038779    0.006488
     11          6           0       -0.567731   -2.406983    1.397086
     12          6           0       -0.852042   -1.056451    0.982632
     13          6           0        0.856335   -2.497122    1.262845
     14          6           0        1.376362   -1.313446    0.602101
     15          6           0       -3.757308    1.251913    0.203883
     16          6           0       -2.398459    0.847467    0.547413
     17          6           0       -2.143049   -0.471647    0.983986
     18          6           0       -3.620158    2.641929   -0.209556
     19          6           0       -1.597462   -3.327334    2.091901
     20          6           0        5.725817   -2.831375   -1.298243
     21          6           0        3.616095   -1.861051   -0.329680
     22          6           0       -2.179423    2.977212   -0.203937
     23          6           0        5.102535   -1.629823   -0.488081
     24          6           0       -5.123769    0.711654    0.313353
     25          6           0        2.686423   -1.036105    0.277669
     26          6           0        1.622272   -3.836699    1.621288
     27          6           0        4.426658   -3.737025   -1.331107
     28          6           0       -1.873208   -4.435347    1.175253
     29          6           0       -5.418224   -0.260538   -0.784673
     30          6           0       -4.597286    3.775854   -0.586731
     31          6           0       -1.360775    4.142150   -0.461513
     32          6           0        6.930087   -3.430590   -0.800136
     33          6           0        5.845301   -0.489789   -0.082427
     34          6           0       -0.036505    4.054808   -0.317125
     35          6           0        0.995495    5.255489   -0.433914
     36          6           0        2.198277    4.734862   -0.217575
     37          6           0       -2.925611   -4.165846    0.008511
     38          6           0        5.398114    0.659499    0.596077
     39          6           0       -6.868655   -0.847851   -0.778145
     40          6           0        3.600813    5.560324   -0.175504
     41          6           0        2.051249    3.343068    0.015549
     42          6           0        0.417882    6.643799   -0.782530
     43          6           0        3.996299    5.576252    1.321245
     44          1           0        0.533223    0.651988    0.452841
     45          1           0       -2.958643   -1.089056    1.255065
     46          1           0       -2.417430   -2.891778    2.402962
     47          1           0       -1.279783   -3.633715    3.050076
     48          1           0        5.571516   -2.624172   -2.478946
     49          1           0       -5.211780    0.003091    1.125807
     50          1           0       -5.664227    1.514055    0.298828
     51          1           0        2.895967   -0.069794    0.210640
     52          1           0       -0.415081    1.899437    0.411590
     53          1           0        1.815028   -4.537407    0.909048
     54          1           0        2.650554   -3.635501    1.912275
     55          1           0        1.078674   -4.363563    2.422656
     56          1           0        2.321247   -3.351912   -0.982153
     57          1           0       -1.093546   -4.989703    0.469397
     58          1           0       -2.318347   -5.451441    1.543405
     59          1           0       -4.771223   -1.226222   -0.568933
     60          1           0       -5.006106    0.054776   -1.785314
     61          1           0       -4.471422    4.402587    0.321943
     62          1           0       -5.594595    3.416600   -0.620496
     63          1           0       -4.319765    4.363349   -1.593360
     64          1           0       -1.832163    5.142325   -0.830312
     65          1           0        7.944041   -2.815089   -0.763233
     66          1           0        7.180992   -4.286955   -1.434204
     67          1           0        6.926884   -3.688928    0.256368
     68          1           0        6.830060   -0.472965   -0.292582
     69          1           0        4.641588    1.426408    0.067774
     70          1           0        6.349181    1.331681    0.775621
     71          1           0        4.796769    0.436356    1.438612
     72          1           0        3.329560    6.482183   -0.579334
     73          1           0        4.544031    5.127693   -0.861458
     74          1           0       -0.220563    6.531740   -1.769532
     75          1           0        1.430448    7.207856   -1.157710
     76          1           0       -0.135335    6.957353    0.154532
     77          1           0        3.340898    6.455522    1.834066
     78          1           0        5.021436    5.901865    1.361557
     79          1           0        4.012466    4.641520    1.678476
     80          1           0       -3.514634   -4.596817   -1.550197
     81          1           0       -8.049478   -1.997536   -1.350340
 ---------------------------------------------------------------------

 SCF Done:  E(RB3LYP) =  -1949.05534722     A.U. after   23 cycles

 Excitation energies and oscillator strengths:

 Excited State   1:      Singlet-A      1.6786 eV  738.60 nm  f=0.3517  <S**2>=0.000
     156 ->157         0.70981
     156 <-157        -0.12977
 This state for optimization and/or second-order correction.
 Total Energy, E(TD-HF/TD-DFT) =  -1948.99365838
 Copying the excited state density for this state as the 1-particle RhoCI density.

 The electronic state is 1-A.
 Alpha  occ. eigenvalues --  -19.21088 -19.18071 -19.14407 -19.12710 -19.12637
 Alpha  occ. eigenvalues --  -19.08733 -14.39505 -14.38192 -14.35516 -14.28330
 Alpha  occ. eigenvalues --  -10.34135 -10.32131 -10.31535 -10.25627 -10.25083
 Alpha  occ. eigenvalues --  -10.24238 -10.24039 -10.23840 -10.23782 -10.23563
 Alpha  occ. eigenvalues --  -10.23246 -10.21647 -10.21577 -10.21350 -10.21324
 Alpha  occ. eigenvalues --  -10.21258 -10.21169 -10.21099 -10.20985 -10.20674
 Alpha  occ. eigenvalues --  -10.20595 -10.20430 -10.20390 -10.20257 -10.19433
 Alpha  occ. eigenvalues --  -10.19432 -10.19207 -10.19020 -10.18712 -10.17903
 Alpha  occ. eigenvalues --  -10.17568 -10.17109 -10.16667  -1.13525  -1.10565
 Alpha  occ. eigenvalues --   -1.03019  -1.01745  -1.00357  -0.98797  -0.97531
 Alpha  occ. eigenvalues --   -0.97050  -0.95696  -0.91691  -0.83255  -0.82535
 Alpha  occ. eigenvalues --   -0.82293  -0.81089  -0.79236  -0.78064  -0.77660
 Alpha  occ. eigenvalues --   -0.77458  -0.76410  -0.75754  -0.73268  -0.72325
 Alpha  occ. eigenvalues --   -0.70928  -0.70728  -0.69813  -0.68756  -0.68309
 Alpha  occ. eigenvalues --   -0.66969  -0.65646  -0.63988  -0.62391  -0.60716
 Alpha  occ. eigenvalues --   -0.60178  -0.59596  -0.59263  -0.58719  -0.57965
 Alpha  occ. eigenvalues --   -0.56582  -0.55991  -0.55104  -0.54780  -0.52401
 Alpha  occ. eigenvalues --   -0.52027  -0.51694  -0.51493  -0.50767  -0.49973
 Alpha  occ. eigenvalues --   -0.49789  -0.49471  -0.48731  -0.48619  -0.48562
 Alpha  occ. eigenvalues --   -0.47324  -0.46689  -0.46609  -0.45774  -0.45724
 Alpha  occ. eigenvalues --   -0.45210  -0.44954  -0.44803  -0.44294  -0.43851
 Alpha  occ. eigenvalues --   -0.43460  -0.43214  -0.42874  -0.42832  -0.42666
 Alpha  occ. eigenvalues --   -0.42356  -0.42118  -0.42009  -0.41464  -0.41394
 Alpha  occ. eigenvalues --   -0.41297  -0.40703  -0.40570  -0.40420  -0.40153
 Alpha  occ. eigenvalues --   -0.39575  -0.39260  -0.38990  -0.38234  -0.38104
 Alpha  occ. eigenvalues --   -0.37545  -0.37427  -0.37041  -0.36840  -0.36228
 Alpha  occ. eigenvalues --   -0.35939  -0.35866  -0.35637  -0.35329  -0.34991
 Alpha  occ. eigenvalues --   -0.34330  -0.34254  -0.33898  -0.33699  -0.32709
 Alpha  occ. eigenvalues --   -0.32294  -0.31981  -0.30922  -0.29774  -0.29384
 Alpha  occ. eigenvalues --   -0.28224  -0.27068  -0.26275  -0.25915  -0.25565
 Alpha  occ. eigenvalues --   -0.24585  -0.24114  -0.23796  -0.23149  -0.21539
 Alpha  occ. eigenvalues --   -0.17270
 Alpha virt. eigenvalues --   -0.10542  -0.05606  -0.04470  -0.02305  -0.01426
 Alpha virt. eigenvalues --    0.00497   0.01829   0.02446   0.03720   0.03980
 Alpha virt. eigenvalues --    0.04516   0.04560   0.05171   0.05577   0.06301

 Mulliken charges:
               1
     1  O   -0.256170
     2  O   -0.124516
     3  O   -0.170649
     4  O   -0.258634
     5  O   -0.240355
     6  O   -0.303893
     7  N   -0.148108
     8  N   -0.147226
     9  N   -0.049971
    10  N   -0.278446
    11  C   -0.124914
    12  C    0.087007
    13  C   -0.167027
    14  C    0.081154
    15  C   -0.171729
    16  C    0.124220
    17  C   -0.053438
    18  C   -0.161137
    19  C    0.319363
    20  C   -0.020898
    21  C    0.053848
    22  C    0.095295
    23  C   -0.078200
    24  C    0.320151
    25  C   -0.046586
    26  C    0.103852
    27  C    0.110837
    28  C   -0.081830
    29  C   -0.127195
    30  C    0.079176
    31  C   -0.168961
    32  C    0.054365
    33  C   -0.054915
    34  C    0.102365
    35  C   -0.119236
    36  C   -0.165716
    37  C    0.106666
    38  C    0.011304
    39  C    0.156496
    40  C    0.057857
    41  C    0.152108
    42  C    0.025057
    43  C    0.054655
    44  H    0.188132
    45  H   -0.027039
    46  H   -0.048483
    47  H   -0.003060
    48  H    0.073342
    49  H   -0.003148
    50  H   -0.054345
    51  H   -0.067636
    52  H    0.168070
    53  H   -0.005714
    54  H    0.010441
    55  H    0.011947
    56  H    0.167377
    57  H    0.051269
    58  H    0.046739
    59  H    0.077937
    60  H    0.035417
    61  H    0.039898
    62  H    0.007518
    63  H    0.054987
    64  H    0.005314
    65  H    0.030630
    66  H    0.033606
    67  H    0.019375
    68  H   -0.047113
    69  H    0.116537
    70  H    0.018686
    71  H    0.029705
    72  H   -0.034888
    73  H    0.027810
    74  H    0.050935
    75  H    0.041934
    76  H    0.060343
    77  H    0.023814
    78  H   -0.012558
    79  H    0.004122
    80  H    0.170644
    81  H    0.161431
 Sum of Mulliken charges =  -0.00000

 Dipole moment (field-independent basis, Debye):
    X=             -0.6682    Y=             -1.7211    Z=             -0.5799  Tot=              1.9352
 Quadrupole moment (field-independent basis, Debye-Ang):
   XX=           -251.3087   YY=           -248.1519   ZZ=           -253.4852
   XY=              7.1151   XZ=              5.8518   YZ=            -13.6205

 Normal termination of Gaussian 16 at Fri Jun 28 08:57:01 2019.
