 Gaussian 16, Revision A.03,
 Gaussian 16:  ES64L-G16RevA.03 25-Dec-2016

 --------------------------
 # td=(NStates=1) B3LYP/SVP
 --------------------------

 --
 TD
 --
 Symbolic Z-matrix:
 Charge =  0 Multiplicity = 1

                         Standard orientation:
 ---------------------------------------------------------------------
 Center     Atomic      Atomic             Coordinates (Angstroms)
 Number     Number       Type             X           Y           Z
 ---------------------------------------------------------------------
      1          8           0        4.035885   -4.969382   -1.731819
      2          8           0       -3.029745   -4.962282   -0.890092
      3          8           0       -6.837556   -1.770986   -1.760749
      4          8           0       -3.816700   -3.062732    0.086407
      5          8           0       -7.663121   -0.428734   -0.125609
      6          8           0        2.961712    2.449405    0.516256
      7          7           0        0.309755   -0.505261    0.605787
      8          7           0       -1.552320    1.822793    0.348184
      9          7           0        3.142494   -3.079127   -0.710953
     10          7           0        0.829463    3.034648    0.231934
     11          6           0       -0.565230   -2.358735    1.368799
     12          6           0       -0.847026   -0.973513    0.880255
     13          6           0        0.847959   -2.572126    1.332318
     14          6           0        1.387602   -1.409987    0.710036
     15          6           0       -3.772107    1.455089    0.192543
     16          6           0       -2.474145    0.920265    0.541648
     17          6           0       -2.195549   -0.388437    0.953545
     18          6           0       -3.546240    2.797012   -0.128654
     19          6           0       -1.497053   -3.270303    2.078949
     20          6           0        5.421303   -2.971214   -1.332290
     21          6           0        3.593950   -1.882343   -0.198254
     22          6           0       -2.083809    3.036116   -0.059623
     23          6           0        5.028945   -1.719254   -0.517376
     24          6           0       -5.066930    0.835203    0.313927
     25          6           0        2.693722   -0.996527    0.281024
     26          6           0        1.460550   -3.780843    1.737397
     27          6           0        4.223991   -3.869599   -1.277542
     28          6           0       -1.991074   -4.557081    1.131830
     29          6           0       -5.337738   -0.134612   -0.832680
     30          6           0       -4.419328    3.838945   -0.687284
     31          6           0       -1.327219    4.203316   -0.206170
     32          6           0        6.699724   -3.658196   -0.962462
     33          6           0        5.848806   -0.653779   -0.278258
     34          6           0        0.150871    4.174409   -0.162161
     35          6           0        1.030143    5.263865   -0.447819
     36          6           0        2.327378    4.742945   -0.223740
     37          6           0       -3.036782   -4.063600    0.078043
     38          6           0        5.505259    0.622655    0.471598
     39          6           0       -6.671419   -0.808237   -0.860744
     40          6           0        3.628449    5.428676   -0.336629
     41          6           0        2.111652    3.313444    0.243405
     42          6           0        0.670617    6.578339   -0.797181
     43          6           0        4.383633    5.460536    1.016216
     44          1           0        0.344741    0.425753    0.204569
     45          1           0       -3.023617   -1.026466    1.161353
     46          1           0       -2.385136   -2.788565    2.469119
     47          1           0       -1.147196   -3.695474    2.958643
     48          1           0        5.300840   -2.545320   -2.287996
     49          1           0       -5.040893    0.130973    1.214087
     50          1           0       -6.068533    1.434589    0.521384
     51          1           0        2.945715    0.008611    0.398571
     52          1           0       -0.546373    2.011840    0.784109
     53          1           0        1.442547   -4.572135    0.962763
     54          1           0        2.564893   -3.641387    2.064796
     55          1           0        0.979089   -4.226728    2.670082
     56          1           0        2.112830   -3.347910   -0.817294
     57          1           0       -1.341896   -5.031952    0.458301
     58          1           0       -2.466114   -5.339480    1.721775
     59          1           0       -4.733934   -0.835608   -1.031904
     60          1           0       -5.351358    0.634003   -1.790701
     61          1           0       -4.389684    4.689968   -0.012277
     62          1           0       -5.593559    3.563141   -0.715456
     63          1           0       -4.355951    4.061483   -1.942647
     64          1           0       -2.098943    5.040472   -0.403795
     65          1           0        7.363498   -3.023959   -1.518329
     66          1           0        6.819177   -4.583826   -1.520407
     67          1           0        6.838249   -3.957065    0.233278
     68          1           0        6.795265   -0.762675   -0.627542
     69          1           0        4.924264    1.468883   -0.127533
     70          1           0        6.388367    1.022014    0.631456
     71          1           0        4.933662    0.419758    1.320406
     72          1           0        3.356490    6.529093   -0.707767
     73          1           0        4.298618    4.890547   -0.939573
     74          1           0        0.028069    6.655989   -1.730415
     75          1           0        1.410107    7.201385   -0.938839
     76          1           0        0.021352    6.829073    0.173355
     77          1           0        3.698033    6.072929    1.830315
     78          1           0        5.468408    6.053736    1.185305
     79          1           0        4.518828    4.376058    1.234604
     80          1           0       -3.642456   -4.660837   -1.579289
     81          1           0       -7.774370   -2.049165   -1.722299
 ---------------------------------------------------------------------

 SCF Done:  E(RB3LYP) =  -1949.08421403     A.U. after   25 cycles

 Excitation energies and oscillator strengths:

 Excited State   1:      Singlet-A      1.5865 eV  781.47 nm  f=0.3175  <S**2>=0.000
     156 ->157         0.71361
     156 <-157        -0.14998
 This state for optimization and/or second-order correction.
 Total Energy, E(TD-HF/TD-DFT) =  -1949.02590969
 Copying the excited state density for this state as the 1-particle RhoCI density.

 The electronic state is 1-A.
 Alpha  occ. eigenvalues --  -19.20605 -19.19375 -19.14022 -19.11903 -19.11380
 Alpha  occ. eigenvalues --  -19.09032 -14.37703 -14.36523 -14.35949 -14.28372
 Alpha  occ. eigenvalues --  -10.33861 -10.32172 -10.29459 -10.25229 -10.23656
 Alpha  occ. eigenvalues --  -10.23630 -10.23600 -10.23593 -10.23406 -10.23080
 Alpha  occ. eigenvalues --  -10.21840 -10.21777 -10.21251 -10.20893 -10.20687
 Alpha  occ. eigenvalues --  -10.20662 -10.20492 -10.20350 -10.20343 -10.20312
 Alpha  occ. eigenvalues --  -10.20241 -10.20047 -10.19919 -10.19698 -10.19667
 Alpha  occ. eigenvalues --  -10.19366 -10.19286 -10.19283 -10.19221 -10.19018
 Alpha  occ. eigenvalues --  -10.18916 -10.17518 -10.16498  -1.11794  -1.09817
 Alpha  occ. eigenvalues --   -1.04122  -1.00155  -0.99905  -0.99713  -0.98691
 Alpha  occ. eigenvalues --   -0.96610  -0.94575  -0.91554  -0.82683  -0.82483
 Alpha  occ. eigenvalues --   -0.81794  -0.80890  -0.80391  -0.79263  -0.77677
 Alpha  occ. eigenvalues --   -0.77572  -0.76537  -0.75914  -0.74213  -0.72293
 Alpha  occ. eigenvalues --   -0.71562  -0.70303  -0.69379  -0.68294  -0.68197
 Alpha  occ. eigenvalues --   -0.67516  -0.65835  -0.65155  -0.62120  -0.61684
 Alpha  occ. eigenvalues --   -0.60984  -0.59789  -0.59095  -0.57531  -0.57021
 Alpha  occ. eigenvalues --   -0.55913  -0.55367  -0.54722  -0.54234  -0.53038
 Alpha  occ. eigenvalues --   -0.52735  -0.51615  -0.50616  -0.50077  -0.49995
 Alpha  occ. eigenvalues --   -0.49403  -0.48959  -0.48659  -0.48240  -0.47714
 Alpha  occ. eigenvalues --   -0.47372  -0.46581  -0.46406  -0.45890  -0.45440
 Alpha  occ. eigenvalues --   -0.45062  -0.44701  -0.44665  -0.43776  -0.43751
 Alpha  occ. eigenvalues --   -0.43384  -0.43180  -0.42895  -0.42607  -0.42458
 Alpha  occ. eigenvalues --   -0.42321  -0.42106  -0.41667  -0.41421  -0.41084
 Alpha  occ. eigenvalues --   -0.40938  -0.40442  -0.40269  -0.39835  -0.39713
 Alpha  occ. eigenvalues --   -0.39403  -0.38874  -0.38777  -0.38656  -0.38478
 Alpha  occ. eigenvalues --   -0.38037  -0.37554  -0.37112  -0.37051  -0.36836
 Alpha  occ. eigenvalues --   -0.36387  -0.35899  -0.35748  -0.35449  -0.34336
 Alpha  occ. eigenvalues --   -0.34097  -0.34014  -0.33283  -0.32999  -0.32855
 Alpha  occ. eigenvalues --   -0.32027  -0.31473  -0.30579  -0.29227  -0.28906
 Alpha  occ. eigenvalues --   -0.27214  -0.26867  -0.26730  -0.26236  -0.25377
 Alpha  occ. eigenvalues --   -0.25260  -0.24313  -0.23640  -0.22191  -0.21295
 Alpha  occ. eigenvalues --   -0.17051
 Alpha virt. eigenvalues --   -0.10908  -0.06198  -0.03977  -0.01946  -0.01324
 Alpha virt. eigenvalues --   -0.00187   0.02448   0.02604   0.02975   0.04110
 Alpha virt. eigenvalues --    0.04696   0.04887   0.05079   0.05462   0.06593

 Mulliken charges:
               1
     1  O   -0.186192
     2  O   -0.143166
     3  O   -0.155110
     4  O   -0.279339
     5  O   -0.318735
     6  O   -0.240866
     7  N    0.024295
     8  N   -0.091843
     9  N   -0.198967
    10  N   -0.261918
    11  C   -0.111674
    12  C   -0.008444
    13  C   -0.134757
    14  C    0.072809
    15  C   -0.013535
    16  C    0.060955
    17  C   -0.038542
    18  C   -0.090536
    19  C    0.122994
    20  C   -0.022316
    21  C    0.126820
    22  C   -0.000403
    23  C   -0.039877
    24  C    0.022756
    25  C   -0.097851
    26  C    0.052608
    27  C    0.120257
    28  C    0.006164
    29  C    0.068038
    30  C   -0.022050
    31  C   -0.101212
    32  C    0.083225
    33  C   -0.138087
    34  C    0.105391
    35  C   -0.096656
    36  C   -0.188719
    37  C    0.136067
    38  C    0.142829
    39  C    0.138073
    40  C    0.112315
    41  C    0.126848
    42  C    0.143937
    43  C   -0.127105
    44  H    0.127740
    45  H   -0.009078
    46  H    0.004950
    47  H   -0.019038
    48  H    0.035290
    49  H    0.021979
    50  H    0.060904
    51  H   -0.022835
    52  H    0.194518
    53  H    0.028235
    54  H    0.031485
    55  H    0.017087
    56  H    0.163023
    57  H    0.019933
    58  H    0.042211
    59  H   -0.039865
    60  H    0.052775
    61  H    0.036963
    62  H    0.023110
    63  H    0.061740
    64  H   -0.000804
    65  H    0.004757
    66  H    0.016755
    67  H    0.060573
    68  H   -0.055936
    69  H    0.075900
    70  H   -0.039409
    71  H    0.023973
    72  H    0.013353
    73  H    0.001068
    74  H    0.029188
    75  H   -0.047168
    76  H    0.045291
    77  H    0.021817
    78  H    0.031369
    79  H    0.055143
    80  H    0.183471
    81  H    0.191049
 Sum of Mulliken charges =  -0.00000

 Dipole moment (field-independent basis, Debye):
    X=             -1.2737    Y=             -0.7742    Z=             -1.8082  Tot=              2.3434
 Quadrupole moment (field-independent basis, Debye-Ang):
   XX=           -255.2599   YY=           -239.4119   ZZ=           -250.2755
   XY=             11.6301   XZ=             10.5019   YZ=            -11.0025

 Normal termination of Gaussian 16 at Tue Jul  2 12:58:26 2019.
