 Gaussian 16, Revision A.03,
 Gaussian 16:  ES64L-G16RevA.03 25-Dec-2016

 --------------------------
 # td=(NStates=1) B3LYP/SVP
 --------------------------

 --
 TD
 --
 Symbolic Z-matrix:
 Charge =  0 Multiplicity = 1

                         Standard orientation:
 ---------------------------------------------------------------------
 Center     Atomic      Atomic             Coordinates (Angstroms)
 Number     Number       Type             X           Y           Z
 ---------------------------------------------------------------------
      1          8           0        4.015723   -4.975091   -1.797228
      2          8           0       -3.176956   -4.891108   -1.012213
      3          8           0       -6.905466   -1.499480   -1.885320
      4          8           0       -3.830972   -2.887299    0.005456
      5          8           0       -7.369444   -0.814171    0.246074
      6          8           0        3.131826    2.343530    0.304948
      7          7           0        0.172910   -0.475505    0.552597
      8          7           0       -1.526686    1.920621    0.431560
      9          7           0        3.187122   -3.214675   -0.638155
     10          7           0        0.869532    2.894320    0.023993
     11          6           0       -0.718277   -2.300145    1.458738
     12          6           0       -0.924367   -1.023342    0.986081
     13          6           0        0.645868   -2.496448    1.287709
     14          6           0        1.300318   -1.356019    0.672873
     15          6           0       -3.736450    1.645685    0.334222
     16          6           0       -2.511885    0.992266    0.531801
     17          6           0       -2.259805   -0.312708    0.947309
     18          6           0       -3.508548    2.920749   -0.177460
     19          6           0       -1.733556   -3.326622    2.019207
     20          6           0        5.372867   -3.065254   -1.327123
     21          6           0        3.562541   -1.910243   -0.217241
     22          6           0       -2.029770    3.091952   -0.052566
     23          6           0        4.935325   -1.665789   -0.558035
     24          6           0       -5.058980    0.980504    0.292907
     25          6           0        2.651712   -1.057397    0.387447
     26          6           0        1.443658   -3.770812    1.793855
     27          6           0        4.124527   -3.874440   -1.228728
     28          6           0       -2.228118   -4.351652    1.026977
     29          6           0       -5.375621    0.090828   -0.918566
     30          6           0       -4.430280    4.067336   -0.389045
     31          6           0       -1.236979    4.098268   -0.451599
     32          6           0        6.697799   -3.703213   -0.889925
     33          6           0        5.795680   -0.700756   -0.175225
     34          6           0        0.245336    4.018602   -0.306472
     35          6           0        1.251961    5.098985   -0.557645
     36          6           0        2.495601    4.583057   -0.201791
     37          6           0       -3.172507   -3.909634   -0.079728
     38          6           0        5.471081    0.495192    0.522265
     39          6           0       -6.659834   -0.693799   -0.817671
     40          6           0        3.766586    5.156807   -0.084566
     41          6           0        2.219419    3.184426    0.163635
     42          6           0        0.883143    6.489710   -1.000127
     43          6           0        4.426591    5.346779    1.265847
     44          1           0        0.327000    0.471007    0.088424
     45          1           0       -2.893787   -1.135250    0.846020
     46          1           0       -2.686873   -2.642675    2.346010
     47          1           0       -1.283710   -3.657808    2.967410
     48          1           0        5.294041   -2.685998   -2.432289
     49          1           0       -5.162798    0.361609    1.184506
     50          1           0       -5.810610    1.745075    0.597041
     51          1           0        3.056126   -0.197864    0.482811
     52          1           0       -0.446905    1.826754    0.474983
     53          1           0        1.255985   -4.697615    1.226185
     54          1           0        2.420175   -3.463492    2.240218
     55          1           0        0.969740   -3.992402    2.677917
     56          1           0        2.390568   -3.757019   -0.500020
     57          1           0       -1.411344   -4.968535    0.753766
     58          1           0       -2.730768   -4.932086    1.737396
     59          1           0       -4.622205   -0.506525   -1.101521
     60          1           0       -5.400511    0.748549   -1.913289
     61          1           0       -3.949654    5.134053   -0.057344
     62          1           0       -5.606133    3.893143   -0.270153
     63          1           0       -4.474711    4.301753   -1.586094
     64          1           0       -1.786698    4.877428   -0.779615
     65          1           0        7.478112   -2.826097   -0.898176
     66          1           0        6.873114   -4.570421   -1.470433
     67          1           0        6.822804   -3.954767    0.153319
     68          1           0        6.869552   -0.896934   -0.807659
     69          1           0        4.872429    1.328103   -0.244073
     70          1           0        6.332461    0.905897    1.141738
     71          1           0        4.597453    0.387126    1.313852
     72          1           0        3.676438    6.160360   -0.638454
     73          1           0        4.630002    4.710961   -0.522258
     74          1           0        0.040323    6.372698   -1.750183
     75          1           0        1.864465    6.873633   -1.378421
     76          1           0        0.324573    6.945551   -0.188171
     77          1           0        3.582558    5.830392    1.856059
     78          1           0        5.463977    5.713786    1.257473
     79          1           0        4.715031    4.412830    1.745532
     80          1           0       -3.891630   -4.742216   -1.640014
     81          1           0       -7.766641   -1.914624   -1.940329
 ---------------------------------------------------------------------

 SCF Done:  E(RB3LYP) =  -1949.06583395     A.U. after   17 cycles

 Excitation energies and oscillator strengths:

 Excited State   1:      Singlet-A      1.4900 eV  832.10 nm  f=0.1837  <S**2>=0.000
     156 ->157         0.70745
     156 <-157        -0.10851
 This state for optimization and/or second-order correction.
 Total Energy, E(TD-HF/TD-DFT) =  -1949.01107668
 Copying the excited state density for this state as the 1-particle RhoCI density.

 The electronic state is 1-A.
 Alpha  occ. eigenvalues --  -19.20944 -19.18475 -19.15487 -19.12225 -19.11244
 Alpha  occ. eigenvalues --  -19.08002 -14.37457 -14.36030 -14.35724 -14.30427
 Alpha  occ. eigenvalues --  -10.34774 -10.33105 -10.27189 -10.26452 -10.24863
 Alpha  occ. eigenvalues --  -10.23948 -10.23853 -10.23337 -10.23197 -10.22697
 Alpha  occ. eigenvalues --  -10.22329 -10.21708 -10.21173 -10.21120 -10.21093
 Alpha  occ. eigenvalues --  -10.20578 -10.20522 -10.20397 -10.20373 -10.20333
 Alpha  occ. eigenvalues --  -10.20279 -10.19794 -10.19419 -10.19275 -10.19246
 Alpha  occ. eigenvalues --  -10.19128 -10.19038 -10.18950 -10.18689 -10.18581
 Alpha  occ. eigenvalues --  -10.18379 -10.18302 -10.17505  -1.11416  -1.08246
 Alpha  occ. eigenvalues --   -1.03538  -1.02126  -1.01300  -0.99014  -0.97922
 Alpha  occ. eigenvalues --   -0.97333  -0.94133  -0.93081  -0.82772  -0.81888
 Alpha  occ. eigenvalues --   -0.81566  -0.81375  -0.80851  -0.78988  -0.77878
 Alpha  occ. eigenvalues --   -0.77650  -0.76662  -0.75684  -0.74664  -0.72539
 Alpha  occ. eigenvalues --   -0.71175  -0.70212  -0.69821  -0.68921  -0.68301
 Alpha  occ. eigenvalues --   -0.67435  -0.65458  -0.64323  -0.63043  -0.62668
 Alpha  occ. eigenvalues --   -0.62096  -0.61669  -0.60198  -0.57560  -0.56869
 Alpha  occ. eigenvalues --   -0.56178  -0.55802  -0.55179  -0.53990  -0.53349
 Alpha  occ. eigenvalues --   -0.52993  -0.52172  -0.51208  -0.50842  -0.50496
 Alpha  occ. eigenvalues --   -0.49400  -0.49339  -0.48552  -0.48215  -0.47139
 Alpha  occ. eigenvalues --   -0.47088  -0.46746  -0.46139  -0.45866  -0.45363
 Alpha  occ. eigenvalues --   -0.45160  -0.44764  -0.44364  -0.43985  -0.43731
 Alpha  occ. eigenvalues --   -0.43437  -0.43357  -0.42956  -0.42679  -0.42272
 Alpha  occ. eigenvalues --   -0.42214  -0.41936  -0.41697  -0.41422  -0.40936
 Alpha  occ. eigenvalues --   -0.40786  -0.40604  -0.40301  -0.40211  -0.39633
 Alpha  occ. eigenvalues --   -0.39147  -0.38933  -0.38549  -0.38481  -0.38121
 Alpha  occ. eigenvalues --   -0.37764  -0.37633  -0.37238  -0.37089  -0.36343
 Alpha  occ. eigenvalues --   -0.35948  -0.35286  -0.34923  -0.34743  -0.34542
 Alpha  occ. eigenvalues --   -0.34218  -0.33698  -0.33429  -0.32714  -0.32615
 Alpha  occ. eigenvalues --   -0.32004  -0.31178  -0.30788  -0.30564  -0.29384
 Alpha  occ. eigenvalues --   -0.28678  -0.27315  -0.25870  -0.25515  -0.25116
 Alpha  occ. eigenvalues --   -0.24919  -0.24508  -0.23670  -0.23458  -0.21652
 Alpha  occ. eigenvalues --   -0.17514
 Alpha virt. eigenvalues --   -0.11153  -0.06704  -0.04160  -0.02233  -0.01772
 Alpha virt. eigenvalues --    0.02008   0.02525   0.03112   0.03476   0.03673
 Alpha virt. eigenvalues --    0.04022   0.04720   0.04976   0.05281   0.05873

 Mulliken charges:
               1
     1  O   -0.277633
     2  O   -0.164885
     3  O   -0.192193
     4  O   -0.215865
     5  O   -0.287915
     6  O   -0.235468
     7  N   -0.064339
     8  N   -0.103718
     9  N    0.006313
    10  N   -0.287905
    11  C   -0.094312
    12  C   -0.063878
    13  C   -0.213191
    14  C    0.125917
    15  C   -0.100272
    16  C    0.097290
    17  C   -0.011826
    18  C   -0.058905
    19  C    0.005406
    20  C   -0.070088
    21  C    0.050182
    22  C    0.045971
    23  C   -0.022429
    24  C    0.115848
    25  C    0.032498
    26  C    0.134699
    27  C    0.024821
    28  C    0.111048
    29  C    0.097872
    30  C   -0.035957
    31  C   -0.032955
    32  C    0.089211
    33  C   -0.153776
    34  C    0.104908
    35  C   -0.144498
    36  C   -0.114943
    37  C    0.177103
    38  C   -0.045494
    39  C    0.178150
    40  C    0.062374
    41  C    0.169990
    42  C    0.124564
    43  C   -0.010670
    44  H    0.152134
    45  H    0.004427
    46  H    0.028106
    47  H    0.019627
    48  H    0.056854
    49  H    0.005723
    50  H    0.002033
    51  H   -0.157411
    52  H    0.160376
    53  H    0.033355
    54  H    0.033823
    55  H   -0.044337
    56  H    0.105327
    57  H    0.007823
    58  H    0.023279
    59  H   -0.016539
    60  H    0.035448
    61  H    0.060810
    62  H    0.055614
    63  H    0.025642
    64  H   -0.103479
    65  H    0.011505
    66  H    0.034277
    67  H    0.003209
    68  H    0.032485
    69  H    0.112173
    70  H    0.022559
    71  H    0.052581
    72  H   -0.012389
    73  H   -0.004909
    74  H    0.021054
    75  H    0.046436
    76  H    0.026773
    77  H    0.020762
    78  H    0.010468
    79  H    0.014365
    80  H    0.182746
    81  H    0.186218
 Sum of Mulliken charges =  -0.00000

 Dipole moment (field-independent basis, Debye):
    X=             -3.8620    Y=              2.3409    Z=             -0.8975  Tot=              4.6043
 Quadrupole moment (field-independent basis, Debye-Ang):
   XX=           -249.3017   YY=           -239.6594   ZZ=           -254.5510
   XY=             22.1622   XZ=             26.5857   YZ=            -14.5482

 Normal termination of Gaussian 16 at Fri Jun 28 03:55:59 2019.
