 Gaussian 16, Revision A.03,
 Gaussian 16:  ES64L-G16RevA.03 25-Dec-2016

 --------------------------
 # td=(NStates=1) B3LYP/SVP
 --------------------------

 --
 TD
 --
 Symbolic Z-matrix:
 Charge =  0 Multiplicity = 1

                         Standard orientation:
 ---------------------------------------------------------------------
 Center     Atomic      Atomic             Coordinates (Angstroms)
 Number     Number       Type             X           Y           Z
 ---------------------------------------------------------------------
      1          8           0        4.223577   -4.735628   -2.052673
      2          8           0       -3.047498   -4.872569   -1.003185
      3          8           0       -7.011553   -1.468887   -1.865536
      4          8           0       -3.741783   -3.032203    0.028390
      5          8           0       -7.618742   -0.209358   -0.013727
      6          8           0        2.986887    2.349937    0.422958
      7          7           0        0.285254   -0.540376    0.724070
      8          7           0       -1.436389    1.763810    0.316534
      9          7           0        3.255256   -3.031448   -0.824596
     10          7           0        0.860581    2.889647    0.079990
     11          6           0       -0.607305   -2.455670    1.459435
     12          6           0       -0.914614   -1.189454    0.983861
     13          6           0        0.798829   -2.694038    1.256220
     14          6           0        1.332281   -1.406539    0.869987
     15          6           0       -3.748501    1.411055    0.320243
     16          6           0       -2.431428    0.843599    0.504692
     17          6           0       -2.214939   -0.462773    0.963436
     18          6           0       -3.514177    2.753719   -0.154429
     19          6           0       -1.599971   -3.432190    2.015816
     20          6           0        5.443569   -2.737102   -1.377702
     21          6           0        3.580936   -1.830002   -0.214033
     22          6           0       -2.061290    2.903350   -0.172491
     23          6           0        5.043290   -1.601437   -0.512327
     24          6           0       -5.030025    0.841007    0.457427
     25          6           0        2.662566   -0.998928    0.521627
     26          6           0        1.462646   -3.909258    1.681727
     27          6           0        4.172762   -3.612478   -1.450427
     28          6           0       -2.071150   -4.482530    1.067608
     29          6           0       -5.309907   -0.141136   -0.793239
     30          6           0       -4.495895    3.789798   -0.545591
     31          6           0       -1.298206    4.142290   -0.407798
     32          6           0        6.691605   -3.439449   -0.909590
     33          6           0        5.871444   -0.589191   -0.131407
     34          6           0        0.081073    4.026862   -0.257465
     35          6           0        1.032258    5.156788   -0.396338
     36          6           0        2.282375    4.664296   -0.211399
     37          6           0       -3.019918   -4.032475   -0.014214
     38          6           0        5.583764    0.561574    0.729374
     39          6           0       -6.740050   -0.632678   -0.787658
     40          6           0        3.633790    5.316164   -0.241076
     41          6           0        2.123653    3.204848    0.176984
     42          6           0        0.687634    6.580159   -0.820343
     43          6           0        4.206334    5.407779    1.123943
     44          1           0        0.270520    0.288567    0.126010
     45          1           0       -3.018042   -1.129789    0.983143
     46          1           0       -2.596299   -3.164771    2.432156
     47          1           0       -1.247600   -4.002193    2.878281
     48          1           0        5.606163   -2.205913   -2.447778
     49          1           0       -5.072874    0.213964    1.227973
     50          1           0       -5.852642    1.470730    0.502111
     51          1           0        2.809149   -0.002522    0.658548
     52          1           0       -0.465348    1.850111    0.712491
     53          1           0        1.147501   -4.627674    0.792474
     54          1           0        2.486136   -3.679561    1.626641
     55          1           0        1.331507   -4.256374    2.610270
     56          1           0        2.323389   -3.537240   -0.617505
     57          1           0       -1.328450   -4.985402    0.387670
     58          1           0       -2.767717   -5.247979    1.665165
     59          1           0       -4.808259   -1.023590   -0.764110
     60          1           0       -5.034871    0.556375   -1.638708
     61          1           0       -4.329852    4.589779    0.113888
     62          1           0       -5.453813    3.353506   -0.431255
     63          1           0       -4.489606    3.972091   -1.729633
     64          1           0       -1.643583    5.007447   -0.526042
     65          1           0        7.596023   -2.769945   -0.823524
     66          1           0        6.806161   -4.449081   -1.404068
     67          1           0        6.682318   -3.535086    0.080888
     68          1           0        6.865845   -0.802028   -0.407214
     69          1           0        4.822286    1.422536    0.403989
     70          1           0        6.460662    1.151732    0.978884
     71          1           0        4.957660    0.391235    1.676339
     72          1           0        3.621273    6.220147   -1.003048
     73          1           0        4.314434    4.695499   -0.919014
     74          1           0        0.065165    6.537794   -1.769253
     75          1           0        1.656723    7.094363   -1.095403
     76          1           0        0.102795    7.310398   -0.145229
     77          1           0        3.579649    5.942076    1.859339
     78          1           0        5.271480    5.861243    1.271136
     79          1           0        4.225831    4.306013    1.551597
     80          1           0       -3.830637   -4.606253   -1.601507
     81          1           0       -7.943689   -1.767737   -1.826632
 ---------------------------------------------------------------------

 SCF Done:  E(RB3LYP) =  -1949.12432801     A.U. after   19 cycles

 Excitation energies and oscillator strengths:

 Excited State   1:      Singlet-A      1.7334 eV  715.28 nm  f=0.2874  <S**2>=0.000
     156 ->157         0.70565
     156 <-157        -0.10128
 This state for optimization and/or second-order correction.
 Total Energy, E(TD-HF/TD-DFT) =  -1949.06062815
 Copying the excited state density for this state as the 1-particle RhoCI density.

 The electronic state is 1-A.
 Alpha  occ. eigenvalues --  -19.21468 -19.19041 -19.14200 -19.13677 -19.08880
 Alpha  occ. eigenvalues --  -19.08611 -14.39103 -14.37680 -14.36932 -14.27496
 Alpha  occ. eigenvalues --  -10.33736 -10.33261 -10.27813 -10.25638 -10.25350
 Alpha  occ. eigenvalues --  -10.24732 -10.24179 -10.24143 -10.23415 -10.23102
 Alpha  occ. eigenvalues --  -10.22700 -10.21965 -10.21505 -10.21437 -10.20951
 Alpha  occ. eigenvalues --  -10.20890 -10.20608 -10.20446 -10.20304 -10.20076
 Alpha  occ. eigenvalues --  -10.19972 -10.19896 -10.19429 -10.19346 -10.19274
 Alpha  occ. eigenvalues --  -10.19182 -10.19094 -10.19043 -10.18655 -10.18341
 Alpha  occ. eigenvalues --  -10.18299 -10.17421 -10.17412  -1.13180  -1.08302
 Alpha  occ. eigenvalues --   -1.03120  -1.01703  -0.99988  -0.99760  -0.98919
 Alpha  occ. eigenvalues --   -0.97904  -0.94758  -0.90336  -0.83881  -0.83605
 Alpha  occ. eigenvalues --   -0.81910  -0.81425  -0.79939  -0.78933  -0.78738
 Alpha  occ. eigenvalues --   -0.77742  -0.76419  -0.74934  -0.74103  -0.73383
 Alpha  occ. eigenvalues --   -0.72816  -0.70463  -0.70099  -0.69551  -0.68536
 Alpha  occ. eigenvalues --   -0.67171  -0.66029  -0.64367  -0.63103  -0.61555
 Alpha  occ. eigenvalues --   -0.60746  -0.60262  -0.59354  -0.58477  -0.57926
 Alpha  occ. eigenvalues --   -0.56981  -0.56431  -0.55989  -0.54252  -0.53576
 Alpha  occ. eigenvalues --   -0.52557  -0.51865  -0.51326  -0.50972  -0.50239
 Alpha  occ. eigenvalues --   -0.50086  -0.49988  -0.48817  -0.48378  -0.48053
 Alpha  occ. eigenvalues --   -0.47768  -0.47346  -0.46732  -0.46647  -0.46240
 Alpha  occ. eigenvalues --   -0.45854  -0.45406  -0.44589  -0.44508  -0.44018
 Alpha  occ. eigenvalues --   -0.43690  -0.43427  -0.43063  -0.42893  -0.42625
 Alpha  occ. eigenvalues --   -0.42172  -0.41959  -0.41425  -0.41163  -0.40765
 Alpha  occ. eigenvalues --   -0.40600  -0.40328  -0.40196  -0.39984  -0.39716
 Alpha  occ. eigenvalues --   -0.39594  -0.39285  -0.39135  -0.38788  -0.38628
 Alpha  occ. eigenvalues --   -0.38152  -0.37993  -0.37799  -0.37186  -0.36964
 Alpha  occ. eigenvalues --   -0.36831  -0.36411  -0.35699  -0.35294  -0.34720
 Alpha  occ. eigenvalues --   -0.34201  -0.33906  -0.33219  -0.32889  -0.32795
 Alpha  occ. eigenvalues --   -0.32359  -0.31623  -0.30728  -0.29681  -0.29428
 Alpha  occ. eigenvalues --   -0.28691  -0.26244  -0.25911  -0.25619  -0.25151
 Alpha  occ. eigenvalues --   -0.24370  -0.23935  -0.23355  -0.22800  -0.21339
 Alpha  occ. eigenvalues --   -0.18381
 Alpha virt. eigenvalues --   -0.11185  -0.05969  -0.04757  -0.02015  -0.01644
 Alpha virt. eigenvalues --    0.00524   0.01414   0.02026   0.02332   0.03217
 Alpha virt. eigenvalues --    0.03696   0.04482   0.04693   0.05688   0.05872

 Mulliken charges:
               1
     1  O   -0.294914
     2  O   -0.150668
     3  O   -0.220208
     4  O   -0.256378
     5  O   -0.253456
     6  O   -0.245532
     7  N   -0.064069
     8  N   -0.110029
     9  N    0.007247
    10  N   -0.289580
    11  C   -0.056935
    12  C   -0.018656
    13  C   -0.216564
    14  C    0.047140
    15  C   -0.083604
    16  C    0.097147
    17  C    0.009959
    18  C   -0.191993
    19  C    0.145529
    20  C   -0.092485
    21  C    0.066358
    22  C    0.122935
    23  C   -0.038800
    24  C    0.218720
    25  C   -0.009912
    26  C    0.141627
    27  C    0.068743
    28  C   -0.060065
    29  C   -0.010398
    30  C    0.149601
    31  C   -0.005496
    32  C    0.104829
    33  C   -0.056956
    34  C    0.097557
    35  C   -0.083114
    36  C   -0.193935
    37  C    0.101982
    38  C   -0.007073
    39  C    0.166232
    40  C    0.074595
    41  C    0.126867
    42  C    0.036390
    43  C   -0.038477
    44  H    0.149933
    45  H   -0.016396
    46  H    0.008442
    47  H   -0.007762
    48  H    0.063642
    49  H   -0.039245
    50  H   -0.003489
    51  H   -0.042548
    52  H    0.169100
    53  H    0.044691
    54  H    0.004228
    55  H    0.000752
    56  H    0.155247
    57  H    0.041317
    58  H    0.064152
    59  H    0.018122
    60  H    0.057699
    61  H    0.031387
    62  H   -0.012920
    63  H    0.046894
    64  H   -0.134000
    65  H    0.006813
    66  H    0.050561
    67  H   -0.043583
    68  H   -0.035966
    69  H    0.088397
    70  H    0.000203
    71  H    0.029636
    72  H   -0.000213
    73  H    0.012414
    74  H    0.022559
    75  H    0.018202
    76  H    0.036146
    77  H    0.008720
    78  H    0.022668
    79  H    0.046955
    80  H    0.214198
    81  H    0.188889
 Sum of Mulliken charges =  -0.00000

 Dipole moment (field-independent basis, Debye):
    X=             -5.7563    Y=             -0.5691    Z=              0.7481  Tot=              5.8325
 Quadrupole moment (field-independent basis, Debye-Ang):
   XX=           -253.4821   YY=           -242.4757   ZZ=           -255.7797
   XY=             23.4528   XZ=             19.1916   YZ=            -17.9049

 Normal termination of Gaussian 16 at Fri Jun 28 00:59:08 2019.
