 Gaussian 16, Revision A.03,
 Gaussian 16:  ES64L-G16RevA.03 25-Dec-2016

 --------------------------
 # td=(NStates=1) B3LYP/SVP
 --------------------------

 --
 TD
 --
 Symbolic Z-matrix:
 Charge =  0 Multiplicity = 1

                         Standard orientation:
 ---------------------------------------------------------------------
 Center     Atomic      Atomic             Coordinates (Angstroms)
 Number     Number       Type             X           Y           Z
 ---------------------------------------------------------------------
      1          8           0        4.437058   -4.828299   -1.756818
      2          8           0       -2.601385   -4.874545   -1.224219
      3          8           0       -7.051079   -1.551284   -1.899415
      4          8           0       -3.714633   -3.319691   -0.109485
      5          8           0       -7.547046   -0.711164    0.129301
      6          8           0        3.023523    2.542244    0.367951
      7          7           0        0.220013   -0.552420    0.579137
      8          7           0       -1.535260    1.779424    0.334991
      9          7           0        3.414719   -3.172876   -0.489995
     10          7           0        0.712688    2.995133    0.127996
     11          6           0       -0.645297   -2.366720    1.398814
     12          6           0       -0.879273   -1.019420    0.962855
     13          6           0        0.731744   -2.523424    1.272845
     14          6           0        1.291524   -1.377777    0.886360
     15          6           0       -3.876432    1.450638    0.263773
     16          6           0       -2.511423    0.853380    0.598340
     17          6           0       -2.209231   -0.463422    1.027602
     18          6           0       -3.553199    2.711840   -0.188938
     19          6           0       -1.628281   -3.388256    1.996459
     20          6           0        5.650658   -2.711253   -1.356394
     21          6           0        3.598248   -1.906779   -0.222590
     22          6           0       -2.102421    2.913770   -0.079830
     23          6           0        5.035781   -1.588207   -0.498478
     24          6           0       -5.214464    0.718424    0.460934
     25          6           0        2.624671   -1.102576    0.365256
     26          6           0        1.448125   -3.812362    1.761862
     27          6           0        4.455000   -3.788133   -1.261885
     28          6           0       -2.023338   -4.592472    1.123133
     29          6           0       -5.433574   -0.162194   -0.835626
     30          6           0       -4.567876    3.818528   -0.608121
     31          6           0       -1.316503    4.034328   -0.322383
     32          6           0        7.012499   -3.233980   -1.008554
     33          6           0        5.725603   -0.484525   -0.203426
     34          6           0        0.073057    4.073542   -0.243652
     35          6           0        0.979052    5.253836   -0.420311
     36          6           0        2.213844    4.724179   -0.229746
     37          6           0       -2.890669   -4.148672   -0.082438
     38          6           0        5.413807    0.744566    0.613949
     39          6           0       -6.824805   -0.861760   -0.801910
     40          6           0        3.609281    5.383117   -0.190422
     41          6           0        2.052717    3.275100    0.120777
     42          6           0        0.441810    6.615274   -0.976527
     43          6           0        4.131753    5.526957    1.233704
     44          1           0        0.381494    0.372231    0.351948
     45          1           0       -2.847845   -1.401137    1.157982
     46          1           0       -2.712639   -2.841043    2.090765
     47          1           0       -1.195677   -3.926249    2.913453
     48          1           0        5.644869   -2.222296   -2.344883
     49          1           0       -5.436044    0.410317    1.427528
     50          1           0       -5.865959    1.623090    0.385255
     51          1           0        2.862800   -0.053903    0.500427
     52          1           0       -0.546287    1.978159    0.522235
     53          1           0        1.365544   -4.555286    1.082674
     54          1           0        2.561284   -3.638895    1.618076
     55          1           0        1.049686   -3.986663    2.890738
     56          1           0        2.536077   -3.634822   -0.668437
     57          1           0       -1.168080   -5.018586    0.788284
     58          1           0       -2.756225   -5.226785    1.743821
     59          1           0       -4.603855   -0.954756   -0.712121
     60          1           0       -5.405982    0.345367   -1.942601
     61          1           0       -4.163905    4.723749   -0.087588
     62          1           0       -5.689306    3.725380   -0.342866
     63          1           0       -4.572720    3.938089   -1.687921
     64          1           0       -1.735135    4.867663   -0.646536
     65          1           0        7.871760   -2.476318   -1.035859
     66          1           0        7.143271   -3.995566   -1.801394
     67          1           0        7.182664   -3.699539    0.049648
     68          1           0        6.764862   -0.376812   -0.175556
     69          1           0        4.841762    1.490998    0.018143
     70          1           0        6.285292    1.316353    1.014430
     71          1           0        4.699001    0.795348    1.538445
     72          1           0        3.565343    6.435281   -0.676495
     73          1           0        4.316482    4.683898   -0.620693
     74          1           0        0.103968    6.461000   -2.043718
     75          1           0        1.269564    7.210160   -1.260624
     76          1           0       -0.176351    7.028675   -0.279516
     77          1           0        3.536819    6.388113    1.648610
     78          1           0        5.298365    5.812567    1.173001
     79          1           0        3.859030    4.481080    1.844336
     80          1           0       -3.317221   -4.743684   -1.949485
     81          1           0       -7.877664   -2.131389   -1.739511
 ---------------------------------------------------------------------

 SCF Done:  E(RB3LYP) =  -1949.11184807     A.U. after   16 cycles

 Excitation energies and oscillator strengths:

 Excited State   1:      Singlet-A      1.7701 eV  700.42 nm  f=0.3082  <S**2>=0.000
     156 ->157         0.70664
     156 <-157        -0.11199
 This state for optimization and/or second-order correction.
 Total Energy, E(TD-HF/TD-DFT) =  -1949.04679659
 Copying the excited state density for this state as the 1-particle RhoCI density.

 The electronic state is 1-A.
 Alpha  occ. eigenvalues --  -19.19516 -19.18166 -19.14507 -19.13217 -19.12442
 Alpha  occ. eigenvalues --  -19.10092 -14.37026 -14.36732 -14.35921 -14.28687
 Alpha  occ. eigenvalues --  -10.32917 -10.31694 -10.30032 -10.26239 -10.24126
 Alpha  occ. eigenvalues --  -10.23971 -10.23937 -10.22338 -10.22213 -10.22084
 Alpha  occ. eigenvalues --  -10.22007 -10.21553 -10.21546 -10.21451 -10.21390
 Alpha  occ. eigenvalues --  -10.20796 -10.20743 -10.20662 -10.20513 -10.19822
 Alpha  occ. eigenvalues --  -10.19819 -10.19683 -10.19645 -10.19326 -10.19257
 Alpha  occ. eigenvalues --  -10.18824 -10.18606 -10.18576 -10.18497 -10.17758
 Alpha  occ. eigenvalues --  -10.17753 -10.17246 -10.16859  -1.10771  -1.10679
 Alpha  occ. eigenvalues --   -1.08008  -1.01917  -1.01579  -1.01278  -1.00550
 Alpha  occ. eigenvalues --   -0.99033  -0.97550  -0.93049  -0.82122  -0.81603
 Alpha  occ. eigenvalues --   -0.81131  -0.80901  -0.79125  -0.78629  -0.77412
 Alpha  occ. eigenvalues --   -0.76163  -0.75940  -0.74672  -0.73695  -0.71716
 Alpha  occ. eigenvalues --   -0.70528  -0.69530  -0.69222  -0.68280  -0.67862
 Alpha  occ. eigenvalues --   -0.67199  -0.65743  -0.63534  -0.62469  -0.60743
 Alpha  occ. eigenvalues --   -0.60394  -0.59941  -0.59044  -0.57710  -0.57076
 Alpha  occ. eigenvalues --   -0.55906  -0.55830  -0.55418  -0.54058  -0.53280
 Alpha  occ. eigenvalues --   -0.52664  -0.52048  -0.50876  -0.49724  -0.49478
 Alpha  occ. eigenvalues --   -0.49183  -0.48807  -0.48498  -0.48141  -0.47718
 Alpha  occ. eigenvalues --   -0.46914  -0.46651  -0.46280  -0.45996  -0.45830
 Alpha  occ. eigenvalues --   -0.45320  -0.45138  -0.44738  -0.44447  -0.43946
 Alpha  occ. eigenvalues --   -0.43346  -0.43200  -0.42629  -0.42611  -0.42362
 Alpha  occ. eigenvalues --   -0.42229  -0.41804  -0.41410  -0.41076  -0.40757
 Alpha  occ. eigenvalues --   -0.40644  -0.40209  -0.39957  -0.39857  -0.39376
 Alpha  occ. eigenvalues --   -0.39170  -0.38882  -0.38448  -0.38143  -0.37975
 Alpha  occ. eigenvalues --   -0.37551  -0.37343  -0.36984  -0.36428  -0.36172
 Alpha  occ. eigenvalues --   -0.35674  -0.35322  -0.35268  -0.35107  -0.34008
 Alpha  occ. eigenvalues --   -0.33855  -0.33743  -0.33431  -0.33179  -0.32755
 Alpha  occ. eigenvalues --   -0.32575  -0.32280  -0.31222  -0.29757  -0.29510
 Alpha  occ. eigenvalues --   -0.28077  -0.28000  -0.27178  -0.26199  -0.25905
 Alpha  occ. eigenvalues --   -0.25164  -0.24609  -0.24135  -0.23503  -0.21241
 Alpha  occ. eigenvalues --   -0.17332
 Alpha virt. eigenvalues --   -0.10188  -0.05030  -0.03060  -0.00555   0.00016
 Alpha virt. eigenvalues --    0.01366   0.02565   0.02852   0.03619   0.03973
 Alpha virt. eigenvalues --    0.04487   0.05074   0.05294   0.05515   0.06302

 Mulliken charges:
               1
     1  O   -0.118622
     2  O   -0.247931
     3  O   -0.180935
     4  O   -0.173395
     5  O   -0.208407
     6  O   -0.238227
     7  N    0.105635
     8  N   -0.036257
     9  N   -0.098233
    10  N   -0.277605
    11  C   -0.100841
    12  C   -0.102145
    13  C   -0.226085
    14  C    0.048138
    15  C   -0.110999
    16  C    0.102813
    17  C   -0.069639
    18  C   -0.126383
    19  C    0.003913
    20  C   -0.083578
    21  C    0.094487
    22  C    0.070785
    23  C    0.048526
    24  C    0.188556
    25  C   -0.096732
    26  C    0.106652
    27  C    0.107505
    28  C    0.091131
    29  C   -0.106400
    30  C    0.050918
    31  C   -0.052541
    32  C    0.014926
    33  C   -0.131832
    34  C    0.038194
    35  C   -0.125646
    36  C   -0.188451
    37  C    0.092487
    38  C   -0.038310
    39  C    0.133827
    40  C    0.104283
    41  C    0.157422
    42  C    0.171897
    43  C   -0.091599
    44  H    0.086313
    45  H    0.039420
    46  H    0.036709
    47  H    0.024134
    48  H    0.049554
    49  H    0.016011
    50  H   -0.010186
    51  H   -0.007271
    52  H    0.139301
    53  H   -0.017940
    54  H    0.024517
    55  H    0.059042
    56  H    0.132530
    57  H   -0.008086
    58  H    0.057327
    59  H    0.082445
    60  H    0.066062
    61  H    0.035936
    62  H    0.038537
    63  H    0.025159
    64  H   -0.108454
    65  H    0.033285
    66  H    0.032607
    67  H    0.029504
    68  H   -0.017821
    69  H    0.062020
    70  H   -0.003650
    71  H    0.036512
    72  H    0.008969
    73  H    0.005504
    74  H    0.030069
    75  H   -0.016968
    76  H    0.016941
    77  H    0.012613
    78  H    0.034526
    79  H    0.062077
    80  H    0.208066
    81  H    0.203383
 Sum of Mulliken charges =  -0.00000

 Dipole moment (field-independent basis, Debye):
    X=             -3.5165    Y=             -0.3507    Z=             -1.8299  Tot=              3.9796
 Quadrupole moment (field-independent basis, Debye-Ang):
   XX=           -246.3203   YY=           -235.3597   ZZ=           -253.0840
   XY=             14.3325   XZ=             12.1186   YZ=            -10.0362

 Normal termination of Gaussian 16 at Tue Jul  2 20:44:02 2019.
