 Gaussian 16, Revision A.03,
 Gaussian 16:  ES64L-G16RevA.03 25-Dec-2016

 --------------------------
 # td=(NStates=1) B3LYP/SVP
 --------------------------

 --
 TD
 --
 Symbolic Z-matrix:
 Charge =  0 Multiplicity = 1

                         Standard orientation:
 ---------------------------------------------------------------------
 Center     Atomic      Atomic             Coordinates (Angstroms)
 Number     Number       Type             X           Y           Z
 ---------------------------------------------------------------------
      1          8           0        4.377108   -4.822903   -1.802241
      2          8           0       -3.112761   -5.050439   -0.994208
      3          8           0       -6.898131   -1.601396   -1.944562
      4          8           0       -3.693843   -3.226119    0.112588
      5          8           0       -7.629903   -0.378794   -0.164460
      6          8           0        2.940237    2.509690    0.411351
      7          7           0        0.279633   -0.497257    0.654383
      8          7           0       -1.581186    1.790572    0.462479
      9          7           0        3.413485   -3.143913   -0.515216
     10          7           0        0.696563    2.999812    0.071421
     11          6           0       -0.565952   -2.406179    1.420286
     12          6           0       -0.914872   -1.067664    1.049865
     13          6           0        0.740599   -2.584344    1.412095
     14          6           0        1.323581   -1.393799    0.789488
     15          6           0       -3.776704    1.411790    0.173448
     16          6           0       -2.458109    0.794125    0.530766
     17          6           0       -2.139288   -0.553921    0.816817
     18          6           0       -3.592245    2.677681   -0.165320
     19          6           0       -1.530469   -3.364660    2.055714
     20          6           0        5.493491   -2.727165   -1.449724
     21          6           0        3.600417   -1.810996   -0.239309
     22          6           0       -2.173101    2.964002   -0.044571
     23          6           0        5.030581   -1.577232   -0.598689
     24          6           0       -5.085439    0.713910    0.386074
     25          6           0        2.696253   -1.030211    0.437845
     26          6           0        1.542533   -3.793809    1.821116
     27          6           0        4.372416   -3.665519   -1.343606
     28          6           0       -1.905143   -4.591690    1.094204
     29          6           0       -5.306233   -0.204798   -0.889942
     30          6           0       -4.583821    3.763073   -0.473739
     31          6           0       -1.431929    4.118424   -0.380668
     32          6           0        6.930997   -3.286373   -1.164301
     33          6           0        5.699531   -0.358440   -0.335897
     34          6           0        0.027193    4.168284   -0.209722
     35          6           0        0.964450    5.222363   -0.439299
     36          6           0        2.238200    4.706601   -0.289781
     37          6           0       -2.971922   -4.155844    0.073919
     38          6           0        5.229941    0.670442    0.720941
     39          6           0       -6.751344   -0.712648   -0.908732
     40          6           0        3.643733    5.302457   -0.194646
     41          6           0        2.024136    3.328462    0.003736
     42          6           0        0.577310    6.676693   -0.716562
     43          6           0        4.210691    5.373405    1.233345
     44          1           0        0.475672    0.526721    0.228843
     45          1           0       -3.031971   -1.267111    0.886183
     46          1           0       -2.359211   -2.965111    2.664290
     47          1           0       -0.973434   -3.943109    2.794355
     48          1           0        5.570059   -2.476094   -2.430070
     49          1           0       -5.117164   -0.010681    1.263018
     50          1           0       -5.636959    1.447206    0.640317
     51          1           0        2.890622    0.036447    0.390125
     52          1           0       -0.544236    1.777812    0.517247
     53          1           0        1.276843   -4.592900    1.312208
     54          1           0        2.562399   -3.701107    1.967547
     55          1           0        1.518184   -4.174535    3.027828
     56          1           0        2.516848   -3.292418   -0.560812
     57          1           0       -0.905649   -4.836153    0.670345
     58          1           0       -2.268809   -5.330067    1.759140
     59          1           0       -4.619104   -1.100920   -0.948511
     60          1           0       -4.920536    0.520115   -1.847991
     61          1           0       -4.392656    4.713544    0.101928
     62          1           0       -5.529600    3.396815   -0.168226
     63          1           0       -4.630263    3.833484   -1.653980
     64          1           0       -1.864569    4.996652   -0.722745
     65          1           0        7.860240   -2.575023   -1.295699
     66          1           0        7.121230   -4.210029   -1.915764
     67          1           0        6.850380   -3.525144   -0.140287
     68          1           0        6.827912   -0.376646   -0.869472
     69          1           0        4.620940    1.568938    0.184287
     70          1           0        6.135917    1.209739    1.029433
     71          1           0        4.665121    0.101277    1.485348
     72          1           0        3.814908    6.441017   -0.827251
     73          1           0        4.443752    4.788710   -0.772674
     74          1           0       -0.117094    6.507283   -1.584457
     75          1           0        1.624369    7.102501   -0.911709
     76          1           0        0.051314    6.910183    0.002218
     77          1           0        3.588207    5.879774    1.876568
     78          1           0        5.271625    5.720882    1.236725
     79          1           0        4.140209    4.359669    1.619093
     80          1           0       -3.594637   -4.656106   -1.690526
     81          1           0       -7.798879   -1.928963   -2.026983
 ---------------------------------------------------------------------

 SCF Done:  E(RB3LYP) =  -1949.05543456     A.U. after   25 cycles

 Excitation energies and oscillator strengths:

 Excited State   1:      Singlet-A      1.5838 eV  782.84 nm  f=0.2590  <S**2>=0.000
     154 ->157         0.10202
     156 ->157         0.71150
     156 <-157        -0.15363
 This state for optimization and/or second-order correction.
 Total Energy, E(TD-HF/TD-DFT) =  -1948.99723164
 Copying the excited state density for this state as the 1-particle RhoCI density.

 The electronic state is 1-A.
 Alpha  occ. eigenvalues --  -19.17940 -19.17638 -19.15475 -19.13420 -19.10946
 Alpha  occ. eigenvalues --  -19.09106 -14.39195 -14.36798 -14.36372 -14.28391
 Alpha  occ. eigenvalues --  -10.34101 -10.32501 -10.29485 -10.25137 -10.24979
 Alpha  occ. eigenvalues --  -10.24534 -10.24162 -10.23248 -10.23086 -10.22769
 Alpha  occ. eigenvalues --  -10.22679 -10.22527 -10.22006 -10.21144 -10.21113
 Alpha  occ. eigenvalues --  -10.20766 -10.20690 -10.20491 -10.20271 -10.20232
 Alpha  occ. eigenvalues --  -10.20063 -10.19947 -10.19922 -10.19916 -10.19854
 Alpha  occ. eigenvalues --  -10.19784 -10.19624 -10.19298 -10.19239 -10.18648
 Alpha  occ. eigenvalues --  -10.18434 -10.18291 -10.16556  -1.11376  -1.09177
 Alpha  occ. eigenvalues --   -1.03428  -1.02343  -1.01321  -0.99071  -0.98150
 Alpha  occ. eigenvalues --   -0.97743  -0.96955  -0.90895  -0.83399  -0.82826
 Alpha  occ. eigenvalues --   -0.82243  -0.81604  -0.79300  -0.78875  -0.78192
 Alpha  occ. eigenvalues --   -0.77077  -0.76416  -0.75142  -0.73739  -0.72647
 Alpha  occ. eigenvalues --   -0.71505  -0.69921  -0.69658  -0.68950  -0.68565
 Alpha  occ. eigenvalues --   -0.68280  -0.66228  -0.64431  -0.62475  -0.61404
 Alpha  occ. eigenvalues --   -0.60874  -0.60600  -0.59897  -0.59310  -0.58417
 Alpha  occ. eigenvalues --   -0.56552  -0.56164  -0.55411  -0.53662  -0.52587
 Alpha  occ. eigenvalues --   -0.52243  -0.51860  -0.51741  -0.50422  -0.50257
 Alpha  occ. eigenvalues --   -0.49760  -0.49314  -0.48697  -0.48470  -0.48006
 Alpha  occ. eigenvalues --   -0.47415  -0.46813  -0.46421  -0.46054  -0.45767
 Alpha  occ. eigenvalues --   -0.45325  -0.44991  -0.44823  -0.44614  -0.43914
 Alpha  occ. eigenvalues --   -0.43574  -0.43277  -0.42868  -0.42297  -0.42041
 Alpha  occ. eigenvalues --   -0.41773  -0.41673  -0.41488  -0.41268  -0.41049
 Alpha  occ. eigenvalues --   -0.40753  -0.40625  -0.40277  -0.39937  -0.39603
 Alpha  occ. eigenvalues --   -0.39498  -0.39111  -0.38868  -0.38825  -0.38074
 Alpha  occ. eigenvalues --   -0.37808  -0.37356  -0.36876  -0.36628  -0.36420
 Alpha  occ. eigenvalues --   -0.36337  -0.35916  -0.35592  -0.35053  -0.34928
 Alpha  occ. eigenvalues --   -0.34780  -0.34059  -0.33780  -0.33370  -0.32970
 Alpha  occ. eigenvalues --   -0.32803  -0.31970  -0.30712  -0.30454  -0.29750
 Alpha  occ. eigenvalues --   -0.28969  -0.27411  -0.27065  -0.26544  -0.26100
 Alpha  occ. eigenvalues --   -0.25740  -0.24691  -0.23884  -0.22831  -0.21871
 Alpha  occ. eigenvalues --   -0.17305
 Alpha virt. eigenvalues --   -0.11079  -0.06520  -0.04140  -0.01932  -0.01338
 Alpha virt. eigenvalues --   -0.00824   0.01749   0.02979   0.03418   0.04311
 Alpha virt. eigenvalues --    0.04792   0.04980   0.05091   0.05295   0.06221

 Mulliken charges:
               1
     1  O   -0.233760
     2  O   -0.210654
     3  O   -0.205323
     4  O   -0.173422
     5  O   -0.201014
     6  O   -0.303631
     7  N   -0.144113
     8  N   -0.058891
     9  N    0.011273
    10  N   -0.312032
    11  C   -0.084332
    12  C    0.104125
    13  C   -0.104155
    14  C    0.018243
    15  C   -0.140085
    16  C    0.044248
    17  C   -0.086452
    18  C   -0.133250
    19  C    0.062065
    20  C    0.045146
    21  C    0.015741
    22  C    0.094361
    23  C   -0.074721
    24  C    0.210995
    25  C   -0.083647
    26  C    0.103950
    27  C    0.097062
    28  C    0.014425
    29  C   -0.113808
    30  C    0.110396
    31  C   -0.058192
    32  C   -0.011590
    33  C   -0.151946
    34  C    0.059964
    35  C   -0.186627
    36  C   -0.091414
    37  C    0.151164
    38  C    0.010881
    39  C    0.174027
    40  C   -0.018805
    41  C    0.152404
    42  C    0.230926
    43  C    0.047428
    44  H    0.196704
    45  H    0.039028
    46  H    0.024257
    47  H   -0.010354
    48  H    0.008586
    49  H    0.019900
    50  H   -0.060014
    51  H    0.018587
    52  H    0.126748
    53  H   -0.006884
    54  H    0.009764
    55  H    0.022935
    56  H    0.079751
    57  H    0.048417
    58  H    0.040427
    59  H    0.065959
    60  H    0.070766
    61  H    0.043513
    62  H   -0.005098
    63  H    0.044066
    64  H   -0.062045
    65  H    0.040297
    66  H    0.056188
    67  H    0.014595
    68  H    0.026651
    69  H    0.114727
    70  H    0.008368
    71  H    0.052579
    72  H   -0.000257
    73  H    0.013038
    74  H    0.023241
    75  H    0.048668
    76  H   -0.052472
    77  H   -0.014789
    78  H    0.017324
    79  H    0.020616
    80  H    0.164525
    81  H    0.174726
 Sum of Mulliken charges =  -0.00000

 Dipole moment (field-independent basis, Debye):
    X=             -2.6506    Y=             -0.1092    Z=             -0.5248  Tot=              2.7043
 Quadrupole moment (field-independent basis, Debye-Ang):
   XX=           -251.8445   YY=           -252.5049   ZZ=           -251.3410
   XY=             12.7371   XZ=             11.1648   YZ=            -13.5207

 Normal termination of Gaussian 16 at Fri Jun 28 17:02:08 2019.
