 Gaussian 16, Revision A.03,
 Gaussian 16:  ES64L-G16RevA.03 25-Dec-2016

 --------------------------
 # td=(NStates=1) B3LYP/SVP
 --------------------------

 --
 TD
 --
 Symbolic Z-matrix:
 Charge =  0 Multiplicity = 1

                         Standard orientation:
 ---------------------------------------------------------------------
 Center     Atomic      Atomic             Coordinates (Angstroms)
 Number     Number       Type             X           Y           Z
 ---------------------------------------------------------------------
      1          8           0        4.318727   -4.743790   -1.938505
      2          8           0       -3.095384   -5.018221   -0.974745
      3          8           0       -7.128259   -1.553182   -1.824455
      4          8           0       -3.747962   -3.093745    0.048178
      5          8           0       -7.724234   -0.311337   -0.005666
      6          8           0        3.060785    2.463193    0.500048
      7          7           0        0.370657   -0.510035    0.599444
      8          7           0       -1.547855    1.811767    0.351983
      9          7           0        3.374923   -3.030353   -0.742620
     10          7           0        0.722524    2.938829    0.352996
     11          6           0       -0.602013   -2.437858    1.379530
     12          6           0       -0.867428   -1.032378    1.006608
     13          6           0        0.840989   -2.668128    1.169699
     14          6           0        1.393525   -1.430328    0.692030
     15          6           0       -3.768787    1.449338    0.301847
     16          6           0       -2.477276    0.822471    0.526393
     17          6           0       -2.150894   -0.472045    0.909628
     18          6           0       -3.628173    2.751849   -0.101830
     19          6           0       -1.477759   -3.350810    2.003114
     20          6           0        5.650267   -2.656415   -1.414564
     21          6           0        3.611818   -1.840350   -0.203729
     22          6           0       -2.141267    2.968600   -0.061699
     23          6           0        5.088557   -1.496343   -0.519329
     24          6           0       -5.125359    0.813719    0.324907
     25          6           0        2.583325   -0.953451    0.357984
     26          6           0        1.488738   -3.886729    1.643394
     27          6           0        4.439532   -3.548932   -1.423281
     28          6           0       -2.035845   -4.491901    1.090341
     29          6           0       -5.422792   -0.166830   -0.817513
     30          6           0       -4.707768    3.740853   -0.405703
     31          6           0       -1.339354    4.136971   -0.316017
     32          6           0        6.892141   -3.277801   -0.782809
     33          6           0        5.924875   -0.467300   -0.054437
     34          6           0        0.090075    4.015026   -0.135734
     35          6           0        1.016303    5.074322   -0.586540
     36          6           0        2.298890    4.577078   -0.367900
     37          6           0       -3.041736   -4.046827   -0.080497
     38          6           0        5.412784    0.691567    0.837286
     39          6           0       -6.864365   -0.763252   -0.728105
     40          6           0        3.688954    5.183576   -0.331800
     41          6           0        2.132168    3.160129    0.152217
     42          6           0        0.644138    6.490763   -0.999970
     43          6           0        4.228848    5.392245    1.089088
     44          1           0        0.173938    0.360650    0.038196
     45          1           0       -3.020816   -1.267915    0.799661
     46          1           0       -2.418385   -2.688112    2.344101
     47          1           0       -1.074424   -3.830200    2.776211
     48          1           0        5.947364   -2.296081   -2.497034
     49          1           0       -4.998563    0.192356    1.255286
     50          1           0       -5.953644    1.555601    0.443806
     51          1           0        2.776799    0.137729    0.407178
     52          1           0       -0.528280    1.867059    0.428072
     53          1           0        1.343743   -4.745754    0.890003
     54          1           0        2.619163   -3.857504    1.623216
     55          1           0        1.298916   -4.342971    2.642961
     56          1           0        2.504337   -3.428098   -0.738984
     57          1           0       -1.345931   -5.395642    0.497765
     58          1           0       -2.742154   -5.098252    1.818945
     59          1           0       -4.857950   -1.089763   -0.828021
     60          1           0       -5.236660    0.167450   -1.763335
     61          1           0       -4.772273    4.628576    0.411220
     62          1           0       -5.774351    3.371034   -0.459833
     63          1           0       -4.443199    4.467710   -1.471296
     64          1           0       -1.871705    4.893209   -0.744904
     65          1           0        7.715662   -2.668876   -0.845853
     66          1           0        7.090677   -4.154293   -1.436163
     67          1           0        6.782848   -3.672680    0.330128
     68          1           0        6.940726   -0.572953   -0.379963
     69          1           0        5.088449    1.422658    0.141131
     70          1           0        6.394101    1.153541    1.295434
     71          1           0        4.729839    0.311960    1.482164
     72          1           0        3.552001    6.227993   -0.918601
     73          1           0        4.444604    4.724044   -0.804246
     74          1           0       -0.456900    6.263225   -1.769094
     75          1           0        1.611666    6.954344   -1.290741
     76          1           0        0.445017    7.051500    0.060618
     77          1           0        3.817925    6.174292    1.650282
     78          1           0        5.400972    5.392248    1.122680
     79          1           0        4.066243    4.408468    1.697351
     80          1           0       -3.628917   -4.930394   -1.767749
     81          1           0       -8.182642   -1.785935   -1.727710
 ---------------------------------------------------------------------

 SCF Done:  E(RB3LYP) =  -1949.06562349     A.U. after   17 cycles

 Excitation energies and oscillator strengths:

 Excited State   1:      Singlet-A      1.7060 eV  726.75 nm  f=0.3854  <S**2>=0.000
     156 ->157         0.71122
     156 <-157        -0.13499
 This state for optimization and/or second-order correction.
 Total Energy, E(TD-HF/TD-DFT) =  -1949.00292861
 Copying the excited state density for this state as the 1-particle RhoCI density.

 The electronic state is 1-A.
 Alpha  occ. eigenvalues --  -19.20658 -19.18849 -19.14923 -19.12986 -19.10831
 Alpha  occ. eigenvalues --  -19.10714 -14.38736 -14.37118 -14.35249 -14.28755
 Alpha  occ. eigenvalues --  -10.34337 -10.32012 -10.30065 -10.26551 -10.25871
 Alpha  occ. eigenvalues --  -10.23929 -10.23763 -10.23399 -10.22958 -10.22897
 Alpha  occ. eigenvalues --  -10.22844 -10.22745 -10.22624 -10.22510 -10.21216
 Alpha  occ. eigenvalues --  -10.20977 -10.20737 -10.20621 -10.20597 -10.20214
 Alpha  occ. eigenvalues --  -10.20160 -10.20028 -10.19964 -10.19915 -10.19811
 Alpha  occ. eigenvalues --  -10.19684 -10.19484 -10.19023 -10.18899 -10.18561
 Alpha  occ. eigenvalues --  -10.18400 -10.17954 -10.17767  -1.12191  -1.08045
 Alpha  occ. eigenvalues --   -1.04198  -1.02721  -1.01931  -0.99719  -0.98118
 Alpha  occ. eigenvalues --   -0.96780  -0.94836  -0.90894  -0.82483  -0.81935
 Alpha  occ. eigenvalues --   -0.81884  -0.81274  -0.78781  -0.78296  -0.76634
 Alpha  occ. eigenvalues --   -0.76576  -0.75788  -0.74864  -0.73786  -0.71992
 Alpha  occ. eigenvalues --   -0.70636  -0.70191  -0.69217  -0.68519  -0.67786
 Alpha  occ. eigenvalues --   -0.66637  -0.65560  -0.64726  -0.63238  -0.62063
 Alpha  occ. eigenvalues --   -0.60643  -0.59763  -0.58650  -0.58105  -0.57181
 Alpha  occ. eigenvalues --   -0.55790  -0.55340  -0.54586  -0.54245  -0.52704
 Alpha  occ. eigenvalues --   -0.51888  -0.51230  -0.50749  -0.50049  -0.49041
 Alpha  occ. eigenvalues --   -0.48929  -0.48610  -0.48411  -0.47942  -0.47795
 Alpha  occ. eigenvalues --   -0.46859  -0.46518  -0.46039  -0.45640  -0.45250
 Alpha  occ. eigenvalues --   -0.44769  -0.44216  -0.44182  -0.43663  -0.43529
 Alpha  occ. eigenvalues --   -0.43188  -0.42754  -0.42677  -0.42452  -0.42181
 Alpha  occ. eigenvalues --   -0.41945  -0.41856  -0.41367  -0.41110  -0.40598
 Alpha  occ. eigenvalues --   -0.40018  -0.39947  -0.39388  -0.39284  -0.38964
 Alpha  occ. eigenvalues --   -0.38842  -0.38639  -0.38525  -0.38200  -0.38037
 Alpha  occ. eigenvalues --   -0.37955  -0.37716  -0.37037  -0.36962  -0.36895
 Alpha  occ. eigenvalues --   -0.36453  -0.35865  -0.35758  -0.35234  -0.34928
 Alpha  occ. eigenvalues --   -0.34622  -0.34094  -0.33855  -0.33117  -0.32810
 Alpha  occ. eigenvalues --   -0.32322  -0.32232  -0.31664  -0.29862  -0.29449
 Alpha  occ. eigenvalues --   -0.28052  -0.28004  -0.26049  -0.25646  -0.25117
 Alpha  occ. eigenvalues --   -0.24897  -0.24377  -0.23688  -0.22642  -0.21154
 Alpha  occ. eigenvalues --   -0.16791
 Alpha virt. eigenvalues --   -0.10162  -0.06311  -0.04530  -0.02651  -0.01430
 Alpha virt. eigenvalues --   -0.00435   0.01846   0.02291   0.02399   0.03079
 Alpha virt. eigenvalues --    0.03328   0.03700   0.04173   0.04698   0.05839

 Mulliken charges:
               1
     1  O   -0.297934
     2  O   -0.157725
     3  O   -0.261497
     4  O   -0.193939
     5  O   -0.226149
     6  O   -0.211059
     7  N   -0.107077
     8  N   -0.077918
     9  N    0.037049
    10  N   -0.331026
    11  C   -0.098209
    12  C    0.042750
    13  C   -0.111361
    14  C    0.176599
    15  C   -0.099571
    16  C    0.085030
    17  C   -0.126922
    18  C   -0.048911
    19  C    0.153577
    20  C   -0.072565
    21  C    0.020060
    22  C    0.010190
    23  C   -0.090979
    24  C    0.098073
    25  C   -0.153684
    26  C    0.014162
    27  C    0.129144
    28  C   -0.137190
    29  C    0.047037
    30  C   -0.046533
    31  C   -0.042248
    32  C    0.059578
    33  C   -0.135492
    34  C    0.121681
    35  C   -0.124884
    36  C   -0.157450
    37  C    0.155280
    38  C    0.135943
    39  C    0.151638
    40  C    0.125206
    41  C    0.178951
    42  C    0.015128
    43  C   -0.044218
    44  H    0.147313
    45  H    0.075203
    46  H    0.039508
    47  H   -0.036080
    48  H    0.070096
    49  H    0.015648
    50  H    0.026819
    51  H    0.036412
    52  H    0.118338
    53  H    0.025095
    54  H    0.018407
    55  H    0.036253
    56  H    0.100315
    57  H    0.067475
    58  H    0.057506
    59  H    0.018575
    60  H    0.001179
    61  H    0.048612
    62  H    0.042368
    63  H    0.040281
    64  H   -0.079068
    65  H   -0.000344
    66  H    0.028534
    67  H    0.038644
    68  H   -0.016841
    69  H    0.050952
    70  H    0.012895
    71  H    0.023772
    72  H   -0.004163
    73  H   -0.028376
    74  H    0.072853
    75  H    0.026224
    76  H    0.055098
    77  H    0.005970
    78  H    0.013015
    79  H    0.038186
    80  H    0.188605
    81  H    0.222180
 Sum of Mulliken charges =  -0.00000

 Dipole moment (field-independent basis, Debye):
    X=             -1.6475    Y=             -1.5615    Z=             -1.6507  Tot=              2.8067
 Quadrupole moment (field-independent basis, Debye-Ang):
   XX=           -241.2658   YY=           -246.6331   ZZ=           -255.7920
   XY=             20.8697   XZ=             15.2546   YZ=            -10.8630

 Normal termination of Gaussian 16 at Sun Jun 30 21:33:33 2019.
