 Gaussian 16, Revision A.03,
 Gaussian 16:  ES64L-G16RevA.03 25-Dec-2016

 --------------------------
 # td=(NStates=1) B3LYP/SVP
 --------------------------

 --
 TD
 --
 Symbolic Z-matrix:
 Charge =  0 Multiplicity = 1

                         Standard orientation:
 ---------------------------------------------------------------------
 Center     Atomic      Atomic             Coordinates (Angstroms)
 Number     Number       Type             X           Y           Z
 ---------------------------------------------------------------------
      1          8           0        4.235214   -4.914586   -1.510354
      2          8           0       -2.711425   -4.908750   -1.105274
      3          8           0       -7.041689   -1.454735   -2.010621
      4          8           0       -3.722554   -3.194502   -0.076448
      5          8           0       -7.638960   -0.536768    0.033015
      6          8           0        2.917147    2.353951    0.353361
      7          7           0        0.276592   -0.424145    0.655979
      8          7           0       -1.559896    1.699089    0.311545
      9          7           0        3.226449   -3.077760   -0.559665
     10          7           0        0.788149    2.896739    0.081130
     11          6           0       -0.629574   -2.374835    1.347189
     12          6           0       -0.929328   -1.005253    0.942126
     13          6           0        0.761799   -2.479054    1.298531
     14          6           0        1.373943   -1.263248    0.852695
     15          6           0       -3.822277    1.379922    0.279458
     16          6           0       -2.508614    0.768013    0.488946
     17          6           0       -2.258084   -0.562225    0.863015
     18          6           0       -3.519708    2.719971   -0.059287
     19          6           0       -1.527125   -3.304569    2.000656
     20          6           0        5.384668   -2.642769   -1.425855
     21          6           0        3.570011   -1.777397   -0.126593
     22          6           0       -2.098741    2.946191    0.034100
     23          6           0        4.947218   -1.460851   -0.579649
     24          6           0       -5.133583    0.647553    0.316304
     25          6           0        2.615764   -0.866705    0.285604
     26          6           0        1.581467   -3.594943    1.960739
     27          6           0        4.245223   -3.732272   -1.197006
     28          6           0       -1.996918   -4.540472    1.150235
     29          6           0       -5.382708   -0.171402   -0.897122
     30          6           0       -4.512844    3.835096   -0.189056
     31          6           0       -1.319549    4.050526   -0.290161
     32          6           0        6.820516   -3.324526   -1.324016
     33          6           0        5.837696   -0.443544   -0.196231
     34          6           0        0.084244    3.997117   -0.267103
     35          6           0        1.034694    5.182550   -0.427044
     36          6           0        2.276583    4.698077   -0.225594
     37          6           0       -2.849238   -4.134679   -0.016167
     38          6           0        5.580038    0.584034    0.699897
     39          6           0       -6.859727   -0.745265   -0.853436
     40          6           0        3.655079    5.228665   -0.249416
     41          6           0        2.079004    3.229478    0.074979
     42          6           0        0.604193    6.587752   -0.878544
     43          6           0        4.348024    5.156997    1.123723
     44          1           0        0.516783    0.415363    0.319874
     45          1           0       -2.973929   -1.163628    1.023253
     46          1           0       -2.399732   -2.728839    2.468973
     47          1           0       -0.971491   -3.830338    2.762522
     48          1           0        5.221655   -2.225495   -2.445664
     49          1           0       -5.306301    0.087266    1.357842
     50          1           0       -5.764241    1.515495    0.419638
     51          1           0        2.874668    0.328270    0.171349
     52          1           0       -0.581246    1.663413    0.235391
     53          1           0        1.572448   -4.715767    1.400425
     54          1           0        2.713057   -3.270316    1.941439
     55          1           0        1.206246   -3.863748    2.964165
     56          1           0        2.286428   -3.507195   -0.485060
     57          1           0       -1.090542   -4.910136    0.757928
     58          1           0       -2.489974   -5.153956    1.759981
     59          1           0       -4.756419   -1.167485   -0.769163
     60          1           0       -5.294397    0.336475   -1.831760
     61          1           0       -4.298179    4.716688    0.384229
     62          1           0       -5.650720    3.541131   -0.198716
     63          1           0       -4.567582    4.355542   -1.207718
     64          1           0       -1.937396    4.991231   -0.414607
     65          1           0        7.740724   -2.798692   -1.802006
     66          1           0        6.713344   -4.490397   -1.818936
     67          1           0        6.801473   -3.613416   -0.241203
     68          1           0        6.871932   -0.692867   -0.495768
     69          1           0        4.919941    1.443087    0.035515
     70          1           0        6.523578    1.134050    0.987750
     71          1           0        4.715344    0.417432    1.443239
     72          1           0        3.148553    6.490199   -0.688450
     73          1           0        4.278864    4.911846   -1.176255
     74          1           0        0.197740    6.558208   -1.939303
     75          1           0        1.440014    7.330557   -0.975578
     76          1           0       -0.439380    6.895837   -0.362965
     77          1           0        3.897506    5.728084    1.896824
     78          1           0        5.483849    5.329108    1.165413
     79          1           0        4.323632    4.182261    1.485818
     80          1           0       -3.149870   -4.363689   -1.973210
     81          1           0       -7.910189   -1.817517   -2.143061
 ---------------------------------------------------------------------

 SCF Done:  E(RB3LYP) =  -1949.08932519     A.U. after   19 cycles

 Excitation energies and oscillator strengths:

 Excited State   1:      Singlet-A      1.6058 eV  772.09 nm  f=0.2961  <S**2>=0.000
     156 ->157         0.70897
     156 <-157        -0.13512
 This state for optimization and/or second-order correction.
 Total Energy, E(TD-HF/TD-DFT) =  -1949.03031254
 Copying the excited state density for this state as the 1-particle RhoCI density.

 The electronic state is 1-A.
 Alpha  occ. eigenvalues --  -19.20502 -19.18133 -19.13744 -19.13222 -19.11165
 Alpha  occ. eigenvalues --  -19.09543 -14.37549 -14.37438 -14.35871 -14.28409
 Alpha  occ. eigenvalues --  -10.34084 -10.32213 -10.29288 -10.25436 -10.24899
 Alpha  occ. eigenvalues --  -10.23987 -10.23765 -10.23711 -10.23207 -10.22919
 Alpha  occ. eigenvalues --  -10.22130 -10.21932 -10.21704 -10.21691 -10.21219
 Alpha  occ. eigenvalues --  -10.20956 -10.20899 -10.20607 -10.20541 -10.20508
 Alpha  occ. eigenvalues --  -10.20324 -10.20314 -10.20217 -10.20175 -10.20170
 Alpha  occ. eigenvalues --  -10.20147 -10.20087 -10.20071 -10.19761 -10.19499
 Alpha  occ. eigenvalues --  -10.19153 -10.18831 -10.17503  -1.09074  -1.08872
 Alpha  occ. eigenvalues --   -1.03058  -1.01649  -1.00655  -0.99470  -0.98169
 Alpha  occ. eigenvalues --   -0.98066  -0.94925  -0.91678  -0.84049  -0.82100
 Alpha  occ. eigenvalues --   -0.81735  -0.81220  -0.79658  -0.79233  -0.78729
 Alpha  occ. eigenvalues --   -0.76965  -0.76335  -0.75409  -0.74280  -0.72357
 Alpha  occ. eigenvalues --   -0.70852  -0.69741  -0.69138  -0.68667  -0.67942
 Alpha  occ. eigenvalues --   -0.66979  -0.65686  -0.63273  -0.62487  -0.61914
 Alpha  occ. eigenvalues --   -0.61236  -0.60570  -0.59406  -0.57620  -0.57308
 Alpha  occ. eigenvalues --   -0.56227  -0.55705  -0.55162  -0.53812  -0.53227
 Alpha  occ. eigenvalues --   -0.52265  -0.51962  -0.51425  -0.51122  -0.49689
 Alpha  occ. eigenvalues --   -0.49416  -0.49012  -0.48347  -0.47765  -0.47650
 Alpha  occ. eigenvalues --   -0.47168  -0.46705  -0.46114  -0.45841  -0.45154
 Alpha  occ. eigenvalues --   -0.44954  -0.44173  -0.44018  -0.43800  -0.43632
 Alpha  occ. eigenvalues --   -0.43366  -0.42780  -0.42600  -0.42269  -0.42067
 Alpha  occ. eigenvalues --   -0.41791  -0.41629  -0.41448  -0.40736  -0.40193
 Alpha  occ. eigenvalues --   -0.40088  -0.39835  -0.39653  -0.39497  -0.39262
 Alpha  occ. eigenvalues --   -0.38971  -0.38898  -0.38619  -0.38546  -0.38412
 Alpha  occ. eigenvalues --   -0.38169  -0.38005  -0.37429  -0.37156  -0.37050
 Alpha  occ. eigenvalues --   -0.36598  -0.35958  -0.35865  -0.35139  -0.34879
 Alpha  occ. eigenvalues --   -0.34836  -0.33915  -0.33373  -0.32915  -0.32723
 Alpha  occ. eigenvalues --   -0.32260  -0.31994  -0.30411  -0.29991  -0.28894
 Alpha  occ. eigenvalues --   -0.28062  -0.27000  -0.26427  -0.26200  -0.25747
 Alpha  occ. eigenvalues --   -0.24952  -0.24354  -0.23872  -0.23404  -0.21512
 Alpha  occ. eigenvalues --   -0.17318
 Alpha virt. eigenvalues --   -0.10882  -0.05965  -0.04488  -0.03408  -0.00040
 Alpha virt. eigenvalues --    0.00389   0.01083   0.02064   0.02530   0.03167
 Alpha virt. eigenvalues --    0.03656   0.04156   0.04656   0.05437   0.05683

 Mulliken charges:
               1
     1  O   -0.217361
     2  O   -0.236198
     3  O   -0.199966
     4  O   -0.295063
     5  O   -0.199233
     6  O   -0.262248
     7  N   -0.031005
     8  N   -0.027492
     9  N   -0.121592
    10  N   -0.255121
    11  C   -0.094817
    12  C    0.110958
    13  C   -0.174863
    14  C    0.057932
    15  C   -0.108413
    16  C    0.079391
    17  C    0.046521
    18  C   -0.096191
    19  C    0.066299
    20  C   -0.075394
    21  C    0.087975
    22  C    0.047782
    23  C   -0.084062
    24  C    0.108802
    25  C   -0.132998
    26  C   -0.034790
    27  C    0.119988
    28  C    0.146700
    29  C   -0.024374
    30  C    0.037782
    31  C   -0.104211
    32  C   -0.038008
    33  C   -0.086119
    34  C    0.101255
    35  C   -0.080996
    36  C   -0.134815
    37  C    0.143911
    38  C   -0.005639
    39  C    0.145984
    40  C   -0.046659
    41  C    0.133631
    42  C    0.044053
    43  C    0.053175
    44  H    0.077653
    45  H   -0.130164
    46  H    0.040258
    47  H   -0.006431
    48  H    0.046697
    49  H    0.041981
    50  H   -0.011701
    51  H    0.105920
    52  H    0.092534
    53  H    0.033609
    54  H    0.061101
    55  H    0.036491
    56  H    0.148365
    57  H    0.015775
    58  H    0.013577
    59  H    0.087030
    60  H    0.026676
    61  H    0.020843
    62  H    0.031885
    63  H    0.003479
    64  H   -0.014954
    65  H    0.053854
    66  H    0.059232
    67  H    0.025782
    68  H   -0.001316
    69  H    0.097620
    70  H    0.025799
    71  H    0.059849
    72  H   -0.009852
    73  H    0.051715
    74  H    0.024920
    75  H    0.037008
    76  H    0.035007
    77  H    0.006697
    78  H    0.010849
    79  H    0.010192
    80  H    0.257935
    81  H    0.169573
 Sum of Mulliken charges =  -0.00000

 Dipole moment (field-independent basis, Debye):
    X=             -2.6071    Y=              0.1644    Z=             -1.1297  Tot=              2.8461
 Quadrupole moment (field-independent basis, Debye-Ang):
   XX=           -253.1208   YY=           -251.1001   ZZ=           -249.3818
   XY=             15.1170   XZ=             15.8308   YZ=            -12.5335

 Normal termination of Gaussian 16 at Fri Jun 28 03:15:53 2019.
