 Gaussian 16, Revision A.03,
 Gaussian 16:  ES64L-G16RevA.03 25-Dec-2016

 --------------------------
 # td=(NStates=1) B3LYP/SVP
 --------------------------

 --
 TD
 --
 Symbolic Z-matrix:
 Charge =  0 Multiplicity = 1

                         Standard orientation:
 ---------------------------------------------------------------------
 Center     Atomic      Atomic             Coordinates (Angstroms)
 Number     Number       Type             X           Y           Z
 ---------------------------------------------------------------------
      1          8           0        4.257965   -4.990484   -1.855274
      2          8           0       -3.166628   -4.901672   -1.035328
      3          8           0       -7.138638   -1.328536   -1.912474
      4          8           0       -3.861842   -3.113740    0.058451
      5          8           0       -7.635577   -0.435243    0.153526
      6          8           0        3.199695    2.438274    0.472051
      7          7           0        0.239528   -0.515620    0.559680
      8          7           0       -1.516483    1.918561    0.441487
      9          7           0        3.277641   -3.197486   -0.668975
     10          7           0        0.854923    2.869014    0.102577
     11          6           0       -0.788880   -2.352094    1.298366
     12          6           0       -1.052325   -1.035633    0.992358
     13          6           0        0.551326   -2.583291    1.194092
     14          6           0        1.245003   -1.429808    0.675549
     15          6           0       -3.721686    1.677404    0.165405
     16          6           0       -2.518777    0.988463    0.562455
     17          6           0       -2.249849   -0.351108    0.777018
     18          6           0       -3.424159    2.935081   -0.121809
     19          6           0       -1.737079   -3.273815    2.052789
     20          6           0        5.427888   -2.907652   -1.391740
     21          6           0        3.527304   -1.914941   -0.219592
     22          6           0       -2.007831    3.093270   -0.026009
     23          6           0        4.962913   -1.727477   -0.439431
     24          6           0       -5.142049    0.953083    0.300825
     25          6           0        2.646595   -1.046431    0.408135
     26          6           0        1.331856   -3.951081    1.664722
     27          6           0        4.223722   -3.861005   -1.355056
     28          6           0       -2.160659   -4.420874    1.168860
     29          6           0       -5.344485   -0.086989   -0.810112
     30          6           0       -4.341078    4.071447   -0.583662
     31          6           0       -1.199137    4.099833   -0.363000
     32          6           0        6.805464   -3.515305   -0.951618
     33          6           0        5.847133   -0.727350   -0.116676
     34          6           0        0.230833    4.046344   -0.327450
     35          6           0        1.325299    5.057330   -0.543536
     36          6           0        2.526353    4.609239   -0.180677
     37          6           0       -3.122261   -4.092812   -0.010608
     38          6           0        5.434500    0.425042    0.751330
     39          6           0       -6.812567   -0.658386   -0.762585
     40          6           0        3.828673    5.250054   -0.179599
     41          6           0        2.239251    3.117704    0.097336
     42          6           0        0.889520    6.517299   -0.981302
     43          6           0        4.345183    5.370247    1.259158
     44          1           0        0.298010    0.429204    0.065974
     45          1           0       -3.121761   -0.910042    0.996003
     46          1           0       -2.715533   -2.633122    2.290908
     47          1           0       -1.244754   -3.553896    2.864002
     48          1           0        5.312208   -2.597066   -2.392309
     49          1           0       -5.159482    0.483435    1.378177
     50          1           0       -5.856039    1.679091    0.459743
     51          1           0        2.749814    0.066284    0.493839
     52          1           0       -0.515907    1.874139    0.453127
     53          1           0        0.977212   -4.683009    1.074338
     54          1           0        2.434014   -3.971426    1.549426
     55          1           0        1.234920   -4.060040    2.931430
     56          1           0        2.356423   -3.556118   -0.844762
     57          1           0       -1.380673   -5.011691    0.766880
     58          1           0       -2.717335   -5.284710    1.744234
     59          1           0       -4.669120   -0.919172   -0.650943
     60          1           0       -5.022181    0.426491   -1.598708
     61          1           0       -4.398168    4.923736    0.279462
     62          1           0       -5.397513    3.653921   -0.732322
     63          1           0       -4.056111    4.592266   -1.545530
     64          1           0       -1.695344    5.130513   -0.780687
     65          1           0        7.700529   -2.764929   -0.856930
     66          1           0        7.060399   -4.362646   -1.369710
     67          1           0        6.581073   -3.756944    0.165926
     68          1           0        6.875357   -0.772827   -0.470932
     69          1           0        4.969940    1.282257    0.368711
     70          1           0        6.430095    0.715253    1.095321
     71          1           0        4.813467    0.050756    1.633490
     72          1           0        4.000247    6.310699   -0.668336
     73          1           0        4.381580    4.647678   -0.992722
     74          1           0        0.240676    6.430215   -1.890739
     75          1           0        1.578156    6.957071   -1.298591
     76          1           0        0.387408    7.034320   -0.116173
     77          1           0        3.786258    6.002774    2.003567
     78          1           0        5.241441    5.940113    1.160622
     79          1           0        4.575904    4.247362    1.718465
     80          1           0       -3.873856   -4.712958   -1.729035
     81          1           0       -7.986376   -1.851781   -1.669836
 ---------------------------------------------------------------------

 SCF Done:  E(RB3LYP) =  -1949.08293184     A.U. after   16 cycles

 Excitation energies and oscillator strengths:

 Excited State   1:      Singlet-A      1.8819 eV  658.83 nm  f=0.3445  <S**2>=0.000
     156 ->157         0.70889
     156 <-157        -0.11671
 This state for optimization and/or second-order correction.
 Total Energy, E(TD-HF/TD-DFT) =  -1949.01377368
 Copying the excited state density for this state as the 1-particle RhoCI density.

 The electronic state is 1-A.
 Alpha  occ. eigenvalues --  -19.20644 -19.19194 -19.13270 -19.13095 -19.11021
 Alpha  occ. eigenvalues --  -19.10753 -14.38280 -14.37742 -14.35273 -14.29788
 Alpha  occ. eigenvalues --  -10.33731 -10.33119 -10.29088 -10.27187 -10.25560
 Alpha  occ. eigenvalues --  -10.24140 -10.23914 -10.23203 -10.22962 -10.22827
 Alpha  occ. eigenvalues --  -10.22385 -10.21621 -10.21018 -10.20794 -10.20777
 Alpha  occ. eigenvalues --  -10.20442 -10.20375 -10.20297 -10.20200 -10.20026
 Alpha  occ. eigenvalues --  -10.19983 -10.19946 -10.19920 -10.19859 -10.19830
 Alpha  occ. eigenvalues --  -10.19813 -10.19580 -10.19379 -10.18888 -10.18681
 Alpha  occ. eigenvalues --  -10.18283 -10.17543 -10.16594  -1.11767  -1.08146
 Alpha  occ. eigenvalues --   -1.03176  -1.00985  -1.00887  -0.99254  -0.99085
 Alpha  occ. eigenvalues --   -0.97073  -0.96572  -0.90600  -0.82906  -0.82148
 Alpha  occ. eigenvalues --   -0.81528  -0.80932  -0.79674  -0.78658  -0.77543
 Alpha  occ. eigenvalues --   -0.77173  -0.76473  -0.74782  -0.74438  -0.72203
 Alpha  occ. eigenvalues --   -0.70338  -0.69563  -0.69437  -0.68879  -0.67814
 Alpha  occ. eigenvalues --   -0.67196  -0.65912  -0.64539  -0.63386  -0.62817
 Alpha  occ. eigenvalues --   -0.61657  -0.59953  -0.59496  -0.58713  -0.57685
 Alpha  occ. eigenvalues --   -0.56330  -0.55756  -0.54863  -0.53800  -0.53078
 Alpha  occ. eigenvalues --   -0.51955  -0.51564  -0.51278  -0.50395  -0.49425
 Alpha  occ. eigenvalues --   -0.49270  -0.48682  -0.48285  -0.48091  -0.47498
 Alpha  occ. eigenvalues --   -0.47269  -0.46663  -0.46536  -0.45519  -0.45366
 Alpha  occ. eigenvalues --   -0.45170  -0.44945  -0.44518  -0.44103  -0.43342
 Alpha  occ. eigenvalues --   -0.43262  -0.42968  -0.42511  -0.42278  -0.41933
 Alpha  occ. eigenvalues --   -0.41853  -0.41629  -0.41071  -0.40666  -0.40541
 Alpha  occ. eigenvalues --   -0.40359  -0.40248  -0.39913  -0.39718  -0.39254
 Alpha  occ. eigenvalues --   -0.39091  -0.38943  -0.38724  -0.38584  -0.38320
 Alpha  occ. eigenvalues --   -0.37878  -0.37695  -0.37498  -0.36752  -0.36474
 Alpha  occ. eigenvalues --   -0.35892  -0.35368  -0.35194  -0.35031  -0.34841
 Alpha  occ. eigenvalues --   -0.34779  -0.34581  -0.33992  -0.33303  -0.33147
 Alpha  occ. eigenvalues --   -0.32496  -0.32165  -0.30976  -0.30325  -0.28777
 Alpha  occ. eigenvalues --   -0.28459  -0.27967  -0.27099  -0.26540  -0.26355
 Alpha  occ. eigenvalues --   -0.25504  -0.24605  -0.23857  -0.23469  -0.22259
 Alpha  occ. eigenvalues --   -0.17989
 Alpha virt. eigenvalues --   -0.10486  -0.05956  -0.04033  -0.01243  -0.00842
 Alpha virt. eigenvalues --    0.00617   0.01961   0.02428   0.03541   0.03762
 Alpha virt. eigenvalues --    0.04251   0.04677   0.05159   0.05452   0.06383

 Mulliken charges:
               1
     1  O   -0.235654
     2  O   -0.160090
     3  O   -0.219800
     4  O   -0.256169
     5  O   -0.258909
     6  O   -0.237031
     7  N   -0.156113
     8  N   -0.045293
     9  N   -0.064671
    10  N   -0.365280
    11  C   -0.098471
    12  C    0.061568
    13  C   -0.175479
    14  C    0.043965
    15  C   -0.107144
    16  C    0.060012
    17  C   -0.004903
    18  C   -0.099808
    19  C    0.217887
    20  C   -0.046143
    21  C    0.140990
    22  C    0.101013
    23  C   -0.039723
    24  C    0.080100
    25  C   -0.107544
    26  C    0.042664
    27  C    0.083755
    28  C   -0.010232
    29  C    0.074609
    30  C    0.022139
    31  C   -0.161125
    32  C    0.073759
    33  C   -0.140633
    34  C    0.087940
    35  C   -0.134340
    36  C   -0.124434
    37  C    0.110194
    38  C    0.078155
    39  C    0.181389
    40  C   -0.008841
    41  C    0.189988
    42  C    0.265515
    43  C   -0.025943
    44  H    0.146754
    45  H   -0.009609
    46  H    0.040632
    47  H   -0.036023
    48  H    0.024885
    49  H    0.030041
    50  H   -0.018219
    51  H    0.052034
    52  H    0.102171
    53  H    0.005719
    54  H    0.032353
    55  H    0.050930
    56  H    0.125996
    57  H    0.002064
    58  H    0.047699
    59  H    0.051292
    60  H   -0.002278
    61  H    0.045889
    62  H    0.027720
    63  H    0.040199
    64  H    0.016221
    65  H    0.032994
    66  H   -0.007797
    67  H    0.014606
    68  H   -0.002328
    69  H    0.053232
    70  H   -0.011373
    71  H    0.037465
    72  H    0.011098
    73  H    0.034801
    74  H    0.004304
    75  H   -0.122788
    76  H    0.037454
    77  H    0.025709
    78  H   -0.007112
    79  H    0.066771
    80  H    0.219251
    81  H    0.205372
 Sum of Mulliken charges =  -0.00000

 Dipole moment (field-independent basis, Debye):
    X=             -2.6256    Y=              0.1327    Z=             -1.5386  Tot=              3.0461
 Quadrupole moment (field-independent basis, Debye-Ang):
   XX=           -256.2389   YY=           -238.3599   ZZ=           -254.1095
   XY=             25.1261   XZ=             14.4099   YZ=            -11.9217

 Normal termination of Gaussian 16 at Wed Jul  3 18:46:37 2019.
