 Gaussian 16, Revision A.03,
 Gaussian 16:  ES64L-G16RevA.03 25-Dec-2016

 --------------------------
 # td=(NStates=1) B3LYP/SVP
 --------------------------

 --
 TD
 --
 Symbolic Z-matrix:
 Charge =  0 Multiplicity = 1

                         Standard orientation:
 ---------------------------------------------------------------------
 Center     Atomic      Atomic             Coordinates (Angstroms)
 Number     Number       Type             X           Y           Z
 ---------------------------------------------------------------------
      1          8           0       -4.262463   -4.957208    1.839203
      2          8           0        3.124116   -4.764720    1.169624
      3          8           0        6.850456   -1.379972    1.902792
      4          8           0        3.826145   -2.909303   -0.012441
      5          8           0        7.460846   -0.698679   -0.125859
      6          8           0       -3.026794    2.304524   -0.414107
      7          7           0       -0.208435   -0.582726   -0.494347
      8          7           0        1.501606    1.873334   -0.430895
      9          7           0       -3.273123   -3.236526    0.558249
     10          7           0       -0.844834    2.899305   -0.078543
     11          6           0        0.736316   -2.359698   -1.394337
     12          6           0        1.012765   -1.041880   -1.011800
     13          6           0       -0.598982   -2.647595   -1.327353
     14          6           0       -1.219949   -1.477570   -0.740555
     15          6           0        3.778657    1.595360   -0.302894
     16          6           0        2.538157    0.932907   -0.666528
     17          6           0        2.287142   -0.418575   -1.011677
     18          6           0        3.463890    2.925948    0.041637
     19          6           0        1.772774   -3.283965   -1.937608
     20          6           0       -5.464321   -2.829578    1.263711
     21          6           0       -3.645525   -1.989434    0.026408
     22          6           0        1.967584    3.060983    0.030791
     23          6           0       -5.024833   -1.791587    0.343097
     24          6           0        5.010411    0.825502   -0.470309
     25          6           0       -2.576711   -1.132037   -0.415928
     26          6           0       -1.250792   -3.991664   -1.597295
     27          6           0       -4.305438   -3.858450    1.336835
     28          6           0        2.232487   -4.386089   -0.950310
     29          6           0        5.425114    0.183147    0.880445
     30          6           0        4.436791    3.840923    0.513945
     31          6           0        1.188734    4.170700    0.328502
     32          6           0       -6.708361   -3.631142    0.920124
     33          6           0       -5.696591   -0.661658    0.061079
     34          6           0       -0.228592    4.083113    0.232203
     35          6           0       -1.213852    5.270027    0.558455
     36          6           0       -2.447412    4.642388    0.332223
     37          6           0        3.265196   -3.963288    0.150502
     38          6           0       -5.560656    0.549385   -0.701030
     39          6           0        6.726445   -0.645783    0.840024
     40          6           0       -3.814443    5.208447    0.374386
     41          6           0       -2.214860    3.204049   -0.110303
     42          6           0       -0.925064    6.649393    0.899647
     43          6           0       -4.272057    5.489554   -1.044254
     44          1           0       -0.446517    0.387221   -0.453433
     45          1           0        3.118678   -1.126095   -1.107011
     46          1           0        2.589577   -2.929113   -2.106953
     47          1           0        1.293291   -3.657140   -2.858156
     48          1           0       -5.731025   -2.486317    2.307432
     49          1           0        5.107837    0.285632   -1.184349
     50          1           0        6.140679    1.403766   -0.696250
     51          1           0       -2.769031   -0.097621   -0.704006
     52          1           0        0.325137    1.698894   -0.851915
     53          1           0       -1.054514   -4.932567   -0.759619
     54          1           0       -2.396865   -3.828129   -1.562629
     55          1           0       -0.838720   -4.563203   -2.478624
     56          1           0       -2.317811   -3.566819    0.486305
     57          1           0        1.317956   -4.863195   -0.414533
     58          1           0        2.585748   -5.213753   -1.616636
     59          1           0        4.602050   -0.566448    1.328744
     60          1           0        5.377727    0.838861    1.842460
     61          1           0        4.198701    4.634911    0.045450
     62          1           0        5.465543    3.598251    0.031572
     63          1           0        4.321531    4.352967    1.584485
     64          1           0        1.683531    5.116031    0.569885
     65          1           0       -7.596907   -3.077295    1.006737
     66          1           0       -6.893691   -4.506545    1.426757
     67          1           0       -6.605474   -3.831144   -0.154703
     68          1           0       -6.824475   -0.926346    0.490702
     69          1           0       -5.142161    1.496461   -0.034539
     70          1           0       -6.615042    0.864623   -1.266242
     71          1           0       -4.836040    0.476363   -1.517920
     72          1           0       -3.793941    6.337366    0.638416
     73          1           0       -4.474847    4.619941    0.871948
     74          1           0       -0.327204    6.836942    1.742863
     75          1           0       -1.756878    7.154084    1.417803
     76          1           0       -0.447295    7.054425   -0.062927
     77          1           0       -3.553840    6.393303   -1.389204
     78          1           0       -5.401654    5.765714   -1.197433
     79          1           0       -3.972016    4.676305   -1.851203
     80          1           0        3.820613   -4.567263    1.939606
     81          1           0        7.798273   -1.814900    2.071174
 ---------------------------------------------------------------------

 SCF Done:  E(RB3LYP) =  -1948.99076080     A.U. after   16 cycles

 Excitation energies and oscillator strengths:

 Excited State   1:      Singlet-A      1.7468 eV  709.76 nm  f=0.3224  <S**2>=0.000
     156 ->157         0.70779
     156 <-157        -0.11512
 This state for optimization and/or second-order correction.
 Total Energy, E(TD-HF/TD-DFT) =  -1948.92656535
 Copying the excited state density for this state as the 1-particle RhoCI density.

 The electronic state is 1-A.
 Alpha  occ. eigenvalues --  -19.21952 -19.19070 -19.14483 -19.11794 -19.11600
 Alpha  occ. eigenvalues --  -19.09775 -14.37065 -14.36350 -14.35968 -14.29054
 Alpha  occ. eigenvalues --  -10.33931 -10.31585 -10.29646 -10.26353 -10.24641
 Alpha  occ. eigenvalues --  -10.23750 -10.23591 -10.23261 -10.22442 -10.22093
 Alpha  occ. eigenvalues --  -10.21932 -10.21256 -10.21111 -10.21049 -10.20980
 Alpha  occ. eigenvalues --  -10.20878 -10.20681 -10.20003 -10.19939 -10.19798
 Alpha  occ. eigenvalues --  -10.19710 -10.19663 -10.19613 -10.19407 -10.19397
 Alpha  occ. eigenvalues --  -10.19208 -10.18965 -10.18636 -10.18482 -10.18477
 Alpha  occ. eigenvalues --  -10.18391 -10.18097 -10.17353  -1.11941  -1.09949
 Alpha  occ. eigenvalues --   -1.03599  -1.03580  -0.99827  -0.99563  -0.97987
 Alpha  occ. eigenvalues --   -0.95338  -0.94798  -0.89687  -0.82695  -0.82564
 Alpha  occ. eigenvalues --   -0.81503  -0.80407  -0.80026  -0.78270  -0.77098
 Alpha  occ. eigenvalues --   -0.76762  -0.76393  -0.75600  -0.73729  -0.71826
 Alpha  occ. eigenvalues --   -0.71025  -0.70087  -0.68871  -0.68564  -0.67380
 Alpha  occ. eigenvalues --   -0.66999  -0.65087  -0.64157  -0.62033  -0.61476
 Alpha  occ. eigenvalues --   -0.60243  -0.59701  -0.58358  -0.57910  -0.57074
 Alpha  occ. eigenvalues --   -0.55357  -0.55151  -0.54385  -0.53205  -0.52208
 Alpha  occ. eigenvalues --   -0.51725  -0.51306  -0.51227  -0.50464  -0.49593
 Alpha  occ. eigenvalues --   -0.48996  -0.48900  -0.48184  -0.47875  -0.47448
 Alpha  occ. eigenvalues --   -0.47341  -0.47011  -0.46290  -0.45394  -0.45139
 Alpha  occ. eigenvalues --   -0.44837  -0.44541  -0.44463  -0.44087  -0.43623
 Alpha  occ. eigenvalues --   -0.43429  -0.42988  -0.42598  -0.42372  -0.41820
 Alpha  occ. eigenvalues --   -0.41482  -0.41212  -0.41057  -0.40880  -0.40812
 Alpha  occ. eigenvalues --   -0.40520  -0.39958  -0.39813  -0.39667  -0.39271
 Alpha  occ. eigenvalues --   -0.39150  -0.38428  -0.38015  -0.37621  -0.37503
 Alpha  occ. eigenvalues --   -0.37274  -0.37143  -0.37096  -0.36606  -0.36495
 Alpha  occ. eigenvalues --   -0.35844  -0.35622  -0.35164  -0.35027  -0.34818
 Alpha  occ. eigenvalues --   -0.34491  -0.34258  -0.33392  -0.32361  -0.31933
 Alpha  occ. eigenvalues --   -0.31568  -0.31190  -0.30564  -0.29179  -0.28941
 Alpha  occ. eigenvalues --   -0.27514  -0.27136  -0.26584  -0.26012  -0.25356
 Alpha  occ. eigenvalues --   -0.24834  -0.23974  -0.23490  -0.22985  -0.21036
 Alpha  occ. eigenvalues --   -0.16943
 Alpha virt. eigenvalues --   -0.09844  -0.05947  -0.04245  -0.01083  -0.00290
 Alpha virt. eigenvalues --    0.00442   0.00740   0.01991   0.02211   0.02744
 Alpha virt. eigenvalues --    0.03257   0.03848   0.04557   0.04897   0.05658

 Mulliken charges:
               1
     1  O   -0.190580
     2  O   -0.173687
     3  O   -0.195746
     4  O   -0.211324
     5  O   -0.237363
     6  O   -0.244769
     7  N   -0.051274
     8  N   -0.205039
     9  N   -0.184727
    10  N   -0.314448
    11  C   -0.120318
    12  C    0.056893
    13  C   -0.104850
    14  C    0.017862
    15  C   -0.015627
    16  C    0.069461
    17  C   -0.063998
    18  C   -0.168167
    19  C    0.282374
    20  C   -0.095703
    21  C    0.101873
    22  C    0.135954
    23  C    0.000135
    24  C    0.177122
    25  C   -0.095881
    26  C   -0.042366
    27  C    0.168766
    28  C   -0.089369
    29  C   -0.107401
    30  C    0.187354
    31  C   -0.136580
    32  C    0.100240
    33  C   -0.135081
    34  C    0.071560
    35  C   -0.085695
    36  C   -0.212327
    37  C    0.168390
    38  C    0.008556
    39  C    0.150556
    40  C    0.158547
    41  C    0.184590
    42  C    0.116371
    43  C   -0.108612
    44  H    0.108071
    45  H    0.035476
    46  H   -0.114517
    47  H    0.008457
    48  H    0.051136
    49  H   -0.099069
    50  H    0.030870
    51  H    0.020095
    52  H    0.237745
    53  H    0.041791
    54  H    0.059759
    55  H    0.025865
    56  H    0.129907
    57  H    0.036394
    58  H    0.036296
    59  H    0.046257
    60  H    0.042967
    61  H   -0.061585
    62  H    0.022807
    63  H    0.030161
    64  H   -0.034523
    65  H   -0.009321
    66  H    0.009713
    67  H    0.000445
    68  H    0.008488
    69  H    0.100144
    70  H    0.035962
    71  H    0.034745
    72  H    0.009032
    73  H   -0.009736
    74  H   -0.001914
    75  H    0.010117
    76  H    0.057477
    77  H    0.009507
    78  H    0.034996
    79  H    0.035440
    80  H    0.228363
    81  H    0.226512
 Sum of Mulliken charges =  -0.00000

 Dipole moment (field-independent basis, Debye):
    X=              2.9109    Y=              0.3197    Z=              2.0350  Tot=              3.5661
 Quadrupole moment (field-independent basis, Debye-Ang):
   XX=           -242.5071   YY=           -232.6976   ZZ=           -250.8718
   XY=            -21.3862   XZ=             21.9040   YZ=              8.5094

 Normal termination of Gaussian 16 at Tue Jul  2 10:00:39 2019.
