 Gaussian 16, Revision A.03,
 Gaussian 16:  ES64L-G16RevA.03 25-Dec-2016

 --------------------------
 # td=(NStates=1) B3LYP/SVP
 --------------------------

 --
 TD
 --
 Symbolic Z-matrix:
 Charge =  0 Multiplicity = 1

                         Standard orientation:
 ---------------------------------------------------------------------
 Center     Atomic      Atomic             Coordinates (Angstroms)
 Number     Number       Type             X           Y           Z
 ---------------------------------------------------------------------
      1          8           0        4.325263   -4.934845   -1.700697
      2          8           0       -3.169973   -5.079178   -0.994351
      3          8           0       -7.077127   -1.396571   -1.905042
      4          8           0       -3.598844   -3.045794    0.026031
      5          8           0       -7.659111   -0.576166    0.112823
      6          8           0        3.058279    2.526661    0.365781
      7          7           0        0.182825   -0.489384    0.617594
      8          7           0       -1.613189    1.832066    0.395492
      9          7           0        3.367354   -3.185106   -0.666443
     10          7           0        0.789153    2.890586    0.034787
     11          6           0       -0.691044   -2.454377    1.301063
     12          6           0       -1.000450   -1.019949    0.947077
     13          6           0        0.658234   -2.553706    1.139725
     14          6           0        1.278219   -1.457589    0.663533
     15          6           0       -3.799847    1.497377    0.248377
     16          6           0       -2.501576    0.822872    0.568481
     17          6           0       -2.174706   -0.470332    0.974192
     18          6           0       -3.538651    2.783288   -0.116945
     19          6           0       -1.534129   -3.333735    1.983881
     20          6           0        5.595554   -2.863225   -1.296267
     21          6           0        3.589961   -1.879671   -0.232876
     22          6           0       -2.148549    3.008981    0.031397
     23          6           0        5.070093   -1.637131   -0.523218
     24          6           0       -5.079148    0.773098    0.304181
     25          6           0        2.576608   -1.072364    0.389565
     26          6           0        1.431112   -3.727447    1.662646
     27          6           0        4.402421   -3.865960   -1.247053
     28          6           0       -1.980192   -4.512769    1.045230
     29          6           0       -5.459785   -0.130093   -0.793998
     30          6           0       -4.513865    3.827655   -0.641416
     31          6           0       -1.302177    4.142883   -0.209564
     32          6           0        6.848788   -3.476352   -0.878408
     33          6           0        5.866814   -0.650520   -0.062089
     34          6           0        0.060969    3.989014   -0.232628
     35          6           0        1.129405    5.239920   -0.424173
     36          6           0        2.359605    4.779163   -0.269605
     37          6           0       -3.061142   -4.119829   -0.002736
     38          6           0        5.469443    0.651457    0.646999
     39          6           0       -6.806050   -0.702981   -0.754053
     40          6           0        3.673697    5.414675   -0.317474
     41          6           0        2.171635    3.328343    0.178042
     42          6           0        0.625689    6.506887   -0.839707
     43          6           0        4.345278    5.641593    1.135429
     44          1           0        0.324305    0.436022    0.242743
     45          1           0       -2.978482   -0.975731    1.261547
     46          1           0       -2.361615   -3.047509    2.553405
     47          1           0       -1.101531   -3.802205    2.916814
     48          1           0        5.698407   -2.704700   -2.434460
     49          1           0       -5.106333    0.251758    1.331743
     50          1           0       -5.942274    1.584032    0.606551
     51          1           0        2.937614    0.034612    0.551892
     52          1           0       -0.531353    1.722594    0.506395
     53          1           0        1.259069   -4.516426    1.031095
     54          1           0        2.534300   -3.370796    1.797749
     55          1           0        0.916367   -4.142839    2.722651
     56          1           0        2.355445   -3.523967   -1.042332
     57          1           0       -1.026127   -4.829987    0.478963
     58          1           0       -2.390772   -5.282817    1.518667
     59          1           0       -4.635492   -0.950655   -0.813358
     60          1           0       -5.491165    0.206015   -1.823818
     61          1           0       -4.447676    4.730438   -0.009798
     62          1           0       -5.456891    3.493624   -0.666848
     63          1           0       -4.082390    3.925490   -1.725515
     64          1           0       -1.599313    5.031485   -0.646492
     65          1           0        7.770038   -2.916233   -0.977285
     66          1           0        7.076766   -4.282533   -1.564195
     67          1           0        6.840051   -3.982257    0.086206
     68          1           0        6.959531   -0.833964   -0.589234
     69          1           0        4.798601    1.454397   -0.008542
     70          1           0        6.512241    1.228987    0.829524
     71          1           0        4.843992    0.425597    1.696039
     72          1           0        3.602201    6.372963   -1.065753
     73          1           0        4.287983    4.651930   -1.071158
     74          1           0       -0.273754    6.542615   -1.672828
     75          1           0        1.347978    7.250464   -0.964013
     76          1           0        0.179329    7.181880   -0.097273
     77          1           0        3.680902    6.349558    1.631809
     78          1           0        5.408574    6.076186    1.075283
     79          1           0        4.464175    4.603202    1.552010
     80          1           0       -3.837488   -4.653580   -1.503662
     81          1           0       -8.019419   -1.902711   -1.886537
 ---------------------------------------------------------------------

 SCF Done:  E(RB3LYP) =  -1949.07166423     A.U. after   17 cycles

 Excitation energies and oscillator strengths:

 Excited State   1:      Singlet-A      1.7423 eV  711.61 nm  f=0.4158  <S**2>=0.000
     156 ->157         0.71343
     156 <-157        -0.15009
 This state for optimization and/or second-order correction.
 Total Energy, E(TD-HF/TD-DFT) =  -1949.00763557
 Copying the excited state density for this state as the 1-particle RhoCI density.

 The electronic state is 1-A.
 Alpha  occ. eigenvalues --  -19.20135 -19.17883 -19.15552 -19.12053 -19.11827
 Alpha  occ. eigenvalues --  -19.10451 -14.37628 -14.37148 -14.35889 -14.28942
 Alpha  occ. eigenvalues --  -10.34040 -10.31663 -10.29019 -10.26702 -10.25629
 Alpha  occ. eigenvalues --  -10.23406 -10.23280 -10.22588 -10.22564 -10.22185
 Alpha  occ. eigenvalues --  -10.21405 -10.21190 -10.21078 -10.21019 -10.21013
 Alpha  occ. eigenvalues --  -10.20891 -10.20621 -10.20576 -10.20305 -10.20278
 Alpha  occ. eigenvalues --  -10.20009 -10.19792 -10.19750 -10.19438 -10.19368
 Alpha  occ. eigenvalues --  -10.19362 -10.19311 -10.19160 -10.19078 -10.18707
 Alpha  occ. eigenvalues --  -10.18321 -10.18013 -10.17523  -1.11619  -1.07433
 Alpha  occ. eigenvalues --   -1.06754  -1.03722  -1.01851  -0.98907  -0.98575
 Alpha  occ. eigenvalues --   -0.97552  -0.95403  -0.89452  -0.83744  -0.82796
 Alpha  occ. eigenvalues --   -0.82105  -0.81293  -0.80119  -0.79292  -0.78028
 Alpha  occ. eigenvalues --   -0.77393  -0.76459  -0.74929  -0.74177  -0.72038
 Alpha  occ. eigenvalues --   -0.71472  -0.69531  -0.69066  -0.68737  -0.68028
 Alpha  occ. eigenvalues --   -0.67519  -0.65994  -0.63237  -0.61827  -0.61394
 Alpha  occ. eigenvalues --   -0.60696  -0.59174  -0.58459  -0.57968  -0.57155
 Alpha  occ. eigenvalues --   -0.56495  -0.55563  -0.54392  -0.52942  -0.52297
 Alpha  occ. eigenvalues --   -0.52089  -0.51399  -0.51110  -0.50866  -0.50372
 Alpha  occ. eigenvalues --   -0.49821  -0.49319  -0.48661  -0.47816  -0.47295
 Alpha  occ. eigenvalues --   -0.47007  -0.46557  -0.46199  -0.46038  -0.45644
 Alpha  occ. eigenvalues --   -0.45553  -0.44792  -0.44364  -0.44308  -0.44182
 Alpha  occ. eigenvalues --   -0.43782  -0.43094  -0.42743  -0.42415  -0.42357
 Alpha  occ. eigenvalues --   -0.41995  -0.41518  -0.41393  -0.40989  -0.40712
 Alpha  occ. eigenvalues --   -0.40537  -0.40076  -0.39936  -0.39896  -0.39526
 Alpha  occ. eigenvalues --   -0.39449  -0.38775  -0.38572  -0.38429  -0.38045
 Alpha  occ. eigenvalues --   -0.37594  -0.37356  -0.37118  -0.37076  -0.36835
 Alpha  occ. eigenvalues --   -0.36418  -0.36211  -0.35669  -0.35160  -0.34959
 Alpha  occ. eigenvalues --   -0.33853  -0.33596  -0.33523  -0.32944  -0.32784
 Alpha  occ. eigenvalues --   -0.32527  -0.31900  -0.31430  -0.30465  -0.29934
 Alpha  occ. eigenvalues --   -0.27487  -0.27351  -0.26804  -0.26214  -0.25540
 Alpha  occ. eigenvalues --   -0.25126  -0.24947  -0.24241  -0.23631  -0.21571
 Alpha  occ. eigenvalues --   -0.16991
 Alpha virt. eigenvalues --   -0.10388  -0.04934  -0.03868  -0.01759  -0.00118
 Alpha virt. eigenvalues --    0.00346   0.01988   0.02534   0.02692   0.04394
 Alpha virt. eigenvalues --    0.04493   0.04663   0.04964   0.05325   0.05724

 Mulliken charges:
               1
     1  O   -0.145638
     2  O   -0.169404
     3  O   -0.271255
     4  O   -0.199331
     5  O   -0.232892
     6  O   -0.208032
     7  N   -0.099426
     8  N   -0.091612
     9  N   -0.164936
    10  N   -0.339047
    11  C   -0.006741
    12  C    0.129089
    13  C   -0.167991
    14  C    0.148108
    15  C   -0.052792
    16  C    0.007092
    17  C    0.011820
    18  C   -0.171986
    19  C    0.075871
    20  C   -0.092932
    21  C    0.048364
    22  C    0.099667
    23  C   -0.000456
    24  C    0.004735
    25  C   -0.158267
    26  C    0.090167
    27  C    0.077223
    28  C    0.025733
    29  C    0.030094
    30  C    0.163011
    31  C   -0.059809
    32  C    0.087712
    33  C   -0.144698
    34  C    0.050254
    35  C   -0.051128
    36  C   -0.136448
    37  C    0.135082
    38  C   -0.083163
    39  C    0.142497
    40  C   -0.046796
    41  C    0.162675
    42  C    0.072967
    43  C   -0.003076
    44  H    0.112529
    45  H   -0.087593
    46  H   -0.020264
    47  H   -0.000213
    48  H    0.049674
    49  H    0.030137
    50  H    0.025134
    51  H    0.065311
    52  H    0.164127
    53  H   -0.009081
    54  H    0.059473
    55  H    0.025745
    56  H    0.178278
    57  H    0.051243
    58  H   -0.009507
    59  H    0.071460
    60  H    0.024543
    61  H    0.032779
    62  H   -0.026989
    63  H    0.040447
    64  H   -0.069318
    65  H    0.004279
    66  H    0.002569
    67  H    0.008478
    68  H    0.025760
    69  H    0.119698
    70  H    0.031703
    71  H    0.067625
    72  H    0.018893
    73  H    0.030975
    74  H    0.048642
    75  H   -0.030051
    76  H    0.004422
    77  H    0.027351
    78  H    0.027330
    79  H    0.053411
    80  H    0.157143
    81  H    0.229549
 Sum of Mulliken charges =  -0.00000

 Dipole moment (field-independent basis, Debye):
    X=             -1.9309    Y=             -0.2601    Z=             -1.0578  Tot=              2.2169
 Quadrupole moment (field-independent basis, Debye-Ang):
   XX=           -252.1343   YY=           -239.8563   ZZ=           -252.4145
   XY=             17.4288   XZ=             11.3061   YZ=             -8.4181

 Normal termination of Gaussian 16 at Sat Jun 29 23:23:42 2019.
