 Gaussian 16, Revision A.03,
 Gaussian 16:  ES64L-G16RevA.03 25-Dec-2016

 --------------------------
 # td=(NStates=1) B3LYP/SVP
 --------------------------

 --
 TD
 --
 Symbolic Z-matrix:
 Charge =  0 Multiplicity = 1

                         Standard orientation:
 ---------------------------------------------------------------------
 Center     Atomic      Atomic             Coordinates (Angstroms)
 Number     Number       Type             X           Y           Z
 ---------------------------------------------------------------------
      1          8           0        4.155631   -4.860441   -1.898773
      2          8           0       -3.028318   -4.895966   -1.087904
      3          8           0       -6.864669   -1.664788   -1.730748
      4          8           0       -3.868255   -3.162437    0.060290
      5          8           0       -7.638656   -0.336412   -0.109719
      6          8           0        3.133281    2.493716    0.390387
      7          7           0        0.279006   -0.624192    0.546063
      8          7           0       -1.488780    1.873705    0.239683
      9          7           0        3.189624   -3.110583   -0.758261
     10          7           0        0.830884    3.050138    0.203559
     11          6           0       -0.673026   -2.421684    1.447206
     12          6           0       -0.934088   -1.090509    0.908926
     13          6           0        0.683728   -2.701092    1.157347
     14          6           0        1.252121   -1.504555    0.643915
     15          6           0       -3.683413    1.587449    0.244108
     16          6           0       -2.451154    0.882161    0.375421
     17          6           0       -2.187979   -0.442882    0.824175
     18          6           0       -3.478560    2.880785   -0.097379
     19          6           0       -1.643163   -3.385714    2.067816
     20          6           0        5.499229   -2.938512   -1.296101
     21          6           0        3.574865   -1.837755   -0.378210
     22          6           0       -2.081878    3.127852   -0.106921
     23          6           0        4.989642   -1.649479   -0.559476
     24          6           0       -5.005574    0.876689    0.388638
     25          6           0        2.589025   -1.132525    0.404176
     26          6           0        1.373408   -3.883303    1.801255
     27          6           0        4.226189   -3.818035   -1.407078
     28          6           0       -2.097213   -4.487425    1.099640
     29          6           0       -5.329565   -0.109961   -0.775032
     30          6           0       -4.467232    3.976911   -0.445669
     31          6           0       -1.216325    4.263968   -0.377568
     32          6           0        6.661503   -3.754896   -0.624411
     33          6           0        5.753613   -0.651699   -0.196440
     34          6           0        0.121526    4.150587   -0.130201
     35          6           0        1.175190    5.243619   -0.334872
     36          6           0        2.395866    4.776188   -0.173543
     37          6           0       -3.113663   -4.118341   -0.020361
     38          6           0        5.310411    0.526586    0.645258
     39          6           0       -6.617246   -0.700908   -0.735142
     40          6           0        3.652846    5.407722   -0.236038
     41          6           0        2.221619    3.298722    0.109703
     42          6           0        0.705936    6.586754   -0.873395
     43          6           0        4.424409    5.437221    1.089245
     44          1           0        0.465019    0.312237    0.005548
     45          1           0       -3.046034   -1.006668    1.241615
     46          1           0       -2.458063   -2.824953    2.320084
     47          1           0       -1.095741   -3.729540    3.046222
     48          1           0        5.867105   -2.823518   -2.288511
     49          1           0       -5.046549    0.116683    1.257399
     50          1           0       -5.689383    1.563326    0.459881
     51          1           0        2.805403   -0.039121    0.374516
     52          1           0       -0.375379    2.093132    0.014522
     53          1           0        1.532164   -4.695972    0.962893
     54          1           0        2.498809   -3.706495    2.184540
     55          1           0        0.719658   -4.323149    2.641203
     56          1           0        2.101824   -3.382064   -0.864320
     57          1           0       -1.289993   -5.171833    0.694180
     58          1           0       -2.777659   -5.149443    1.748211
     59          1           0       -4.305584   -0.882740   -0.965177
     60          1           0       -5.277956    0.514690   -1.714149
     61          1           0       -4.077655    5.041161    0.123778
     62          1           0       -5.634788    3.752253    0.058957
     63          1           0       -4.616893    4.138643   -1.537312
     64          1           0       -1.509227    5.313041   -0.538242
     65          1           0        7.585482   -3.085164   -0.615892
     66          1           0        6.848982   -4.665767   -1.228304
     67          1           0        6.288738   -4.088825    0.365768
     68          1           0        6.763785   -0.777531   -0.300972
     69          1           0        4.389911    1.086109    0.225428
     70          1           0        6.283943    1.205702    0.792360
     71          1           0        5.115771    0.301149    1.791825
     72          1           0        3.319449    6.283771   -0.621728
     73          1           0        4.290836    4.901874   -0.928992
     74          1           0        0.278156    6.279993   -1.778465
     75          1           0        1.404965    7.346617   -1.044716
     76          1           0        0.043454    7.228990   -0.205179
     77          1           0        3.750367    6.040878    1.783322
     78          1           0        5.375882    5.822690    1.110004
     79          1           0        4.527380    4.254443    1.213878
     80          1           0       -3.892684   -4.646221   -1.449283
     81          1           0       -7.737022   -1.874852   -1.574421
 ---------------------------------------------------------------------

 SCF Done:  E(RB3LYP) =  -1949.10563971     A.U. after   16 cycles

 Excitation energies and oscillator strengths:

 Excited State   1:      Singlet-A      1.7964 eV  690.18 nm  f=0.3988  <S**2>=0.000
     156 ->157         0.71085
     156 <-157        -0.12760
 This state for optimization and/or second-order correction.
 Total Energy, E(TD-HF/TD-DFT) =  -1949.03962353
 Copying the excited state density for this state as the 1-particle RhoCI density.

 The electronic state is 1-A.
 Alpha  occ. eigenvalues --  -19.21098 -19.16210 -19.14737 -19.12520 -19.12378
 Alpha  occ. eigenvalues --  -19.10506 -14.38946 -14.37869 -14.34327 -14.28989
 Alpha  occ. eigenvalues --  -10.34403 -10.32146 -10.29551 -10.26814 -10.25508
 Alpha  occ. eigenvalues --  -10.24062 -10.23908 -10.23744 -10.23356 -10.23122
 Alpha  occ. eigenvalues --  -10.22645 -10.22632 -10.22128 -10.22115 -10.22017
 Alpha  occ. eigenvalues --  -10.21844 -10.20886 -10.20883 -10.20420 -10.20277
 Alpha  occ. eigenvalues --  -10.20085 -10.19717 -10.19585 -10.19510 -10.19471
 Alpha  occ. eigenvalues --  -10.19224 -10.19216 -10.19120 -10.18905 -10.18606
 Alpha  occ. eigenvalues --  -10.17437 -10.17269 -10.16463  -1.13561  -1.08156
 Alpha  occ. eigenvalues --   -1.07365  -1.02722  -1.00853  -1.00134  -0.98185
 Alpha  occ. eigenvalues --   -0.95848  -0.95687  -0.91163  -0.83087  -0.82069
 Alpha  occ. eigenvalues --   -0.81962  -0.81274  -0.80947  -0.78513  -0.77814
 Alpha  occ. eigenvalues --   -0.77421  -0.76701  -0.75464  -0.74191  -0.72193
 Alpha  occ. eigenvalues --   -0.70741  -0.69694  -0.68904  -0.68701  -0.67968
 Alpha  occ. eigenvalues --   -0.66871  -0.65219  -0.63953  -0.62566  -0.61784
 Alpha  occ. eigenvalues --   -0.61148  -0.59418  -0.58359  -0.58005  -0.56844
 Alpha  occ. eigenvalues --   -0.55792  -0.55760  -0.54890  -0.53799  -0.52779
 Alpha  occ. eigenvalues --   -0.52162  -0.51970  -0.51521  -0.51230  -0.50249
 Alpha  occ. eigenvalues --   -0.49507  -0.49156  -0.48547  -0.48111  -0.47458
 Alpha  occ. eigenvalues --   -0.47096  -0.46992  -0.46370  -0.45973  -0.45474
 Alpha  occ. eigenvalues --   -0.45249  -0.45028  -0.44946  -0.44599  -0.44202
 Alpha  occ. eigenvalues --   -0.44005  -0.43516  -0.43092  -0.42987  -0.42513
 Alpha  occ. eigenvalues --   -0.42388  -0.41667  -0.41468  -0.41141  -0.40519
 Alpha  occ. eigenvalues --   -0.40368  -0.40258  -0.39883  -0.39727  -0.39532
 Alpha  occ. eigenvalues --   -0.39394  -0.39245  -0.38800  -0.38686  -0.38436
 Alpha  occ. eigenvalues --   -0.37915  -0.37239  -0.36885  -0.36603  -0.36341
 Alpha  occ. eigenvalues --   -0.36250  -0.35815  -0.35677  -0.35513  -0.34648
 Alpha  occ. eigenvalues --   -0.34561  -0.34491  -0.34291  -0.33856  -0.33614
 Alpha  occ. eigenvalues --   -0.33076  -0.32377  -0.31036  -0.30323  -0.29906
 Alpha  occ. eigenvalues --   -0.27720  -0.27235  -0.26886  -0.26677  -0.25870
 Alpha  occ. eigenvalues --   -0.25809  -0.24935  -0.23852  -0.23330  -0.21813
 Alpha  occ. eigenvalues --   -0.17942
 Alpha virt. eigenvalues --   -0.10875  -0.05939  -0.04632  -0.02417  -0.01600
 Alpha virt. eigenvalues --    0.00091   0.02038   0.02296   0.03734   0.03830
 Alpha virt. eigenvalues --    0.04279   0.05117   0.05362   0.05561   0.05854

 Mulliken charges:
               1
     1  O   -0.129947
     2  O   -0.129870
     3  O   -0.189618
     4  O   -0.242004
     5  O   -0.269612
     6  O   -0.254562
     7  N   -0.013474
     8  N   -0.229365
     9  N   -0.195241
    10  N   -0.334608
    11  C   -0.155817
    12  C    0.048243
    13  C   -0.147599
    14  C    0.051910
    15  C   -0.096460
    16  C    0.076802
    17  C   -0.039599
    18  C   -0.069061
    19  C    0.161823
    20  C   -0.082543
    21  C    0.047535
    22  C    0.083714
    23  C    0.068716
    24  C    0.197479
    25  C   -0.098986
    26  C    0.007491
    27  C    0.109370
    28  C    0.002071
    29  C   -0.094282
    30  C   -0.049882
    31  C   -0.081370
    32  C    0.014218
    33  C   -0.103767
    34  C    0.053448
    35  C   -0.098754
    36  C   -0.184534
    37  C    0.110237
    38  C   -0.049827
    39  C    0.188723
    40  C    0.169557
    41  C    0.192476
    42  C    0.106738
    43  C   -0.021862
    44  H    0.181320
    45  H    0.018023
    46  H   -0.029930
    47  H    0.041476
    48  H    0.024303
    49  H    0.026695
    50  H   -0.063132
    51  H    0.011288
    52  H    0.195044
    53  H    0.024020
    54  H    0.054516
    55  H    0.029377
    56  H    0.186190
    57  H    0.042759
    58  H    0.051117
    59  H    0.097089
    60  H    0.055739
    61  H    0.051905
    62  H    0.048026
    63  H    0.049369
    64  H   -0.016399
    65  H    0.037613
    66  H    0.037434
    67  H    0.023944
    68  H   -0.041297
    69  H    0.124296
    70  H    0.011247
    71  H    0.047132
    72  H   -0.056891
    73  H   -0.010370
    74  H    0.023811
    75  H   -0.013588
    76  H    0.026347
    77  H    0.018098
    78  H   -0.007654
    79  H    0.057593
    80  H    0.176141
    81  H    0.139442
 Sum of Mulliken charges =  -0.00000

 Dipole moment (field-independent basis, Debye):
    X=             -0.0520    Y=             -1.6276    Z=             -0.9085  Tot=              1.8647
 Quadrupole moment (field-independent basis, Debye-Ang):
   XX=           -261.7295   YY=           -237.2344   ZZ=           -255.5788
   XY=             11.4918   XZ=              5.4019   YZ=            -16.4444

 Normal termination of Gaussian 16 at Fri Jun 28 13:32:12 2019.
