 Gaussian 16, Revision A.03,
 Gaussian 16:  ES64L-G16RevA.03 25-Dec-2016

 --------------------------
 # td=(NStates=1) B3LYP/SVP
 --------------------------

 --
 TD
 --
 Symbolic Z-matrix:
 Charge =  0 Multiplicity = 1

                         Standard orientation:
 ---------------------------------------------------------------------
 Center     Atomic      Atomic             Coordinates (Angstroms)
 Number     Number       Type             X           Y           Z
 ---------------------------------------------------------------------
      1          8           0        4.178558   -5.030895   -1.671135
      2          8           0       -3.228457   -4.830506   -1.057488
      3          8           0       -6.945141   -1.564601   -1.774140
      4          8           0       -3.846938   -3.066858   -0.025306
      5          8           0       -7.564343   -0.510301    0.074507
      6          8           0        3.052693    2.267296    0.364867
      7          7           0        0.252515   -0.549842    0.593456
      8          7           0       -1.507180    1.899743    0.248488
      9          7           0        3.298697   -3.298535   -0.484174
     10          7           0        0.863724    2.930041    0.099416
     11          6           0       -0.732767   -2.417375    1.375149
     12          6           0       -0.922933   -1.029351    1.021797
     13          6           0        0.630096   -2.638330    1.206211
     14          6           0        1.318823   -1.445379    0.707315
     15          6           0       -3.749499    1.645912    0.260878
     16          6           0       -2.503233    1.000387    0.436730
     17          6           0       -2.205997   -0.387172    0.755829
     18          6           0       -3.552091    2.887839   -0.128750
     19          6           0       -1.786839   -3.303910    2.002968
     20          6           0        5.468893   -2.918105   -1.327082
     21          6           0        3.594827   -1.862869   -0.191853
     22          6           0       -2.075725    3.134877   -0.045622
     23          6           0        4.963519   -1.663040   -0.501008
     24          6           0       -5.148412    0.903328    0.367424
     25          6           0        2.635069   -1.051625    0.377165
     26          6           0        1.407815   -3.830651    1.730583
     27          6           0        4.262278   -3.899910   -1.240268
     28          6           0       -2.203450   -4.407719    1.104667
     29          6           0       -5.404391    0.125077   -0.953676
     30          6           0       -4.521796    3.999181   -0.454651
     31          6           0       -1.216466    4.107181   -0.329442
     32          6           0        6.775720   -3.551108   -0.838369
     33          6           0        5.723633   -0.577696   -0.244290
     34          6           0        0.161809    4.046417   -0.198998
     35          6           0        1.196852    5.119463   -0.446632
     36          6           0        2.399421    4.585784   -0.194788
     37          6           0       -3.091448   -4.034116   -0.046991
     38          6           0        5.538781    0.624281    0.523631
     39          6           0       -6.788555   -0.706230   -0.807709
     40          6           0        3.870296    5.227888   -0.197499
     41          6           0        2.200818    3.203560    0.118342
     42          6           0        0.850978    6.594554   -0.801314
     43          6           0        4.487620    5.247358    1.148520
     44          1           0        0.218371    0.446977    0.150921
     45          1           0       -2.940892   -1.067615    0.897643
     46          1           0       -2.728078   -2.538930    2.222907
     47          1           0       -1.457909   -3.575403    2.850119
     48          1           0        5.395378   -2.606858   -2.445510
     49          1           0       -4.815256    0.005240    1.091380
     50          1           0       -5.857360    1.591508    0.625540
     51          1           0        2.944463    0.139418    0.458349
     52          1           0       -0.502656    1.926278    0.432485
     53          1           0        1.501124   -4.837696    1.143663
     54          1           0        2.429252   -3.584451    1.884040
     55          1           0        0.977902   -4.348284    2.581717
     56          1           0        2.304060   -3.534032   -0.572256
     57          1           0       -1.353614   -4.849981    0.747099
     58          1           0       -2.774488   -5.368600    1.519289
     59          1           0       -4.510213   -0.531805   -1.253921
     60          1           0       -5.359451    0.683598   -1.834630
     61          1           0       -4.297265    5.057683    0.193587
     62          1           0       -5.553390    3.648321    0.014653
     63          1           0       -4.416166    4.329304   -1.459274
     64          1           0       -1.680797    5.083815   -0.555427
     65          1           0        7.645987   -2.901596   -1.037574
     66          1           0        7.042509   -4.430006   -1.472726
     67          1           0        6.515375   -3.908800    0.208489
     68          1           0        6.691217   -0.680389   -0.800921
     69          1           0        4.999172    1.353460   -0.330742
     70          1           0        6.620764    1.005924    0.642132
     71          1           0        4.833484    0.178735    1.383930
     72          1           0        3.755902    6.422409   -0.515543
     73          1           0        4.538779    4.590187   -0.944000
     74          1           0        0.534602    6.705197   -1.938130
     75          1           0        1.807179    7.287514   -0.639673
     76          1           0        0.106697    6.829410   -0.063173
     77          1           0        3.866956    6.184789    1.724600
     78          1           0        5.615845    5.741074    0.987457
     79          1           0        4.476184    4.319617    1.681754
     80          1           0       -3.764347   -4.180741   -1.711566
     81          1           0       -7.836467   -1.939211   -1.487030
 ---------------------------------------------------------------------

 SCF Done:  E(RB3LYP) =  -1949.06922846     A.U. after   19 cycles

 Excitation energies and oscillator strengths:

 Excited State   1:      Singlet-A      1.5597 eV  794.92 nm  f=0.2477  <S**2>=0.000
     156 ->157         0.71031
     156 <-157        -0.13502
 This state for optimization and/or second-order correction.
 Total Energy, E(TD-HF/TD-DFT) =  -1949.01191050
 Copying the excited state density for this state as the 1-particle RhoCI density.

 The electronic state is 1-A.
 Alpha  occ. eigenvalues --  -19.19990 -19.19861 -19.13060 -19.12714 -19.09972
 Alpha  occ. eigenvalues --  -19.09943 -14.38224 -14.35949 -14.35893 -14.28854
 Alpha  occ. eigenvalues --  -10.32818 -10.32332 -10.28164 -10.26170 -10.24374
 Alpha  occ. eigenvalues --  -10.24082 -10.23971 -10.23812 -10.23200 -10.23177
 Alpha  occ. eigenvalues --  -10.22256 -10.22157 -10.21384 -10.21358 -10.21296
 Alpha  occ. eigenvalues --  -10.21208 -10.21040 -10.20844 -10.20750 -10.20596
 Alpha  occ. eigenvalues --  -10.20584 -10.20566 -10.20343 -10.20193 -10.20085
 Alpha  occ. eigenvalues --  -10.19834 -10.19792 -10.19579 -10.19423 -10.19308
 Alpha  occ. eigenvalues --  -10.19111 -10.19108 -10.18724  -1.12593  -1.12390
 Alpha  occ. eigenvalues --   -1.02523  -1.02167  -0.99899  -0.99376  -0.98604
 Alpha  occ. eigenvalues --   -0.98089  -0.93012  -0.91742  -0.83310  -0.82809
 Alpha  occ. eigenvalues --   -0.81399  -0.81250  -0.79507  -0.78595  -0.77918
 Alpha  occ. eigenvalues --   -0.76884  -0.76309  -0.75047  -0.74359  -0.72462
 Alpha  occ. eigenvalues --   -0.71194  -0.70032  -0.69521  -0.68749  -0.67432
 Alpha  occ. eigenvalues --   -0.66987  -0.65582  -0.63719  -0.62212  -0.60442
 Alpha  occ. eigenvalues --   -0.60036  -0.58914  -0.58812  -0.57536  -0.57189
 Alpha  occ. eigenvalues --   -0.56322  -0.56002  -0.55223  -0.53897  -0.52496
 Alpha  occ. eigenvalues --   -0.51954  -0.51562  -0.50952  -0.50455  -0.50379
 Alpha  occ. eigenvalues --   -0.49682  -0.49234  -0.49059  -0.48331  -0.47697
 Alpha  occ. eigenvalues --   -0.47274  -0.46825  -0.46197  -0.45858  -0.45639
 Alpha  occ. eigenvalues --   -0.44981  -0.44564  -0.44371  -0.44188  -0.44018
 Alpha  occ. eigenvalues --   -0.43840  -0.43394  -0.42765  -0.42335  -0.41985
 Alpha  occ. eigenvalues --   -0.41878  -0.41673  -0.41231  -0.41085  -0.40894
 Alpha  occ. eigenvalues --   -0.40594  -0.40509  -0.40231  -0.39734  -0.39155
 Alpha  occ. eigenvalues --   -0.39135  -0.38795  -0.38550  -0.38270  -0.37966
 Alpha  occ. eigenvalues --   -0.37302  -0.37205  -0.36864  -0.36617  -0.36465
 Alpha  occ. eigenvalues --   -0.36395  -0.35993  -0.35330  -0.34836  -0.34572
 Alpha  occ. eigenvalues --   -0.33934  -0.33502  -0.33363  -0.33139  -0.32643
 Alpha  occ. eigenvalues --   -0.32569  -0.32142  -0.31202  -0.29268  -0.28940
 Alpha  occ. eigenvalues --   -0.28699  -0.26962  -0.26784  -0.26521  -0.25523
 Alpha  occ. eigenvalues --   -0.25503  -0.24751  -0.24299  -0.23899  -0.21884
 Alpha  occ. eigenvalues --   -0.17580
 Alpha virt. eigenvalues --   -0.11239  -0.06355  -0.04061  -0.01116   0.01197
 Alpha virt. eigenvalues --    0.01269   0.01959   0.02436   0.02974   0.03422
 Alpha virt. eigenvalues --    0.04013   0.04252   0.04791   0.05170   0.05357

 Mulliken charges:
               1
     1  O   -0.213279
     2  O   -0.171436
     3  O   -0.144653
     4  O   -0.280977
     5  O   -0.218934
     6  O   -0.284215
     7  N   -0.084366
     8  N   -0.099582
     9  N   -0.153642
    10  N   -0.288310
    11  C   -0.140080
    12  C   -0.009515
    13  C   -0.138076
    14  C    0.099504
    15  C   -0.118183
    16  C    0.085064
    17  C    0.016662
    18  C   -0.086113
    19  C    0.211968
    20  C   -0.081336
    21  C    0.079994
    22  C    0.082763
    23  C   -0.021491
    24  C    0.154898
    25  C   -0.190011
    26  C    0.059057
    27  C    0.097273
    28  C    0.065589
    29  C   -0.024961
    30  C    0.025963
    31  C   -0.114460
    32  C    0.062119
    33  C   -0.186023
    34  C    0.078688
    35  C   -0.113109
    36  C   -0.121728
    37  C    0.085574
    38  C    0.047237
    39  C    0.146868
    40  C    0.019036
    41  C    0.152412
    42  C    0.042348
    43  C   -0.057373
    44  H    0.161038
    45  H   -0.060913
    46  H    0.038807
    47  H   -0.060987
    48  H    0.046765
    49  H    0.047477
    50  H   -0.006057
    51  H    0.098678
    52  H    0.136069
    53  H    0.020383
    54  H    0.024699
    55  H   -0.003307
    56  H    0.142744
    57  H   -0.006147
    58  H    0.060905
    59  H    0.034580
    60  H    0.000544
    61  H    0.038511
    62  H    0.046718
    63  H    0.031355
    64  H   -0.030829
    65  H    0.019510
    66  H    0.025489
    67  H    0.038821
    68  H   -0.012676
    69  H    0.102701
    70  H    0.035881
    71  H    0.074586
    72  H    0.017572
    73  H    0.037466
    74  H    0.053834
    75  H    0.033037
    76  H    0.031664
    77  H    0.018986
    78  H    0.029697
    79  H    0.049368
    80  H    0.229098
    81  H    0.182769
 Sum of Mulliken charges =  -0.00000

 Dipole moment (field-independent basis, Debye):
    X=             -2.8830    Y=              1.8449    Z=             -1.1209  Tot=              3.6016
 Quadrupole moment (field-independent basis, Debye-Ang):
   XX=           -249.8293   YY=           -247.4268   ZZ=           -254.9468
   XY=             15.4097   XZ=             11.5124   YZ=            -15.4009

 Normal termination of Gaussian 16 at Sun Jun 30 09:52:46 2019.
