 Gaussian 16, Revision A.03,
 Gaussian 16:  ES64L-G16RevA.03 25-Dec-2016

 --------------------------
 # td=(NStates=1) B3LYP/SVP
 --------------------------

 --
 TD
 --
 Symbolic Z-matrix:
 Charge =  0 Multiplicity = 1

                         Standard orientation:
 ---------------------------------------------------------------------
 Center     Atomic      Atomic             Coordinates (Angstroms)
 Number     Number       Type             X           Y           Z
 ---------------------------------------------------------------------
      1          8           0        4.302584   -4.980663   -1.701002
      2          8           0       -2.975691   -4.804980   -1.049324
      3          8           0       -7.025159   -1.485087   -2.055052
      4          8           0       -3.823330   -3.123262    0.206701
      5          8           0       -7.639192   -0.626939   -0.089382
      6          8           0        3.071364    2.389645    0.275626
      7          7           0        0.193569   -0.466096    0.569076
      8          7           0       -1.524190    1.906238    0.560954
      9          7           0        3.299884   -3.137435   -0.572035
     10          7           0        0.729062    2.870537    0.071858
     11          6           0       -0.643936   -2.314175    1.460025
     12          6           0       -0.944139   -1.019523    0.972541
     13          6           0        0.747295   -2.571965    1.230332
     14          6           0        1.334491   -1.364806    0.703141
     15          6           0       -3.817158    1.520413    0.373980
     16          6           0       -2.494045    0.926485    0.724906
     17          6           0       -2.263301   -0.404181    0.984224
     18          6           0       -3.522978    2.838818   -0.082736
     19          6           0       -1.630189   -3.390825    1.953900
     20          6           0        5.438967   -2.815754   -1.383048
     21          6           0        3.565361   -1.903439   -0.231916
     22          6           0       -2.146383    3.073468    0.038204
     23          6           0        4.915946   -1.604237   -0.536265
     24          6           0       -5.083974    0.864247    0.422321
     25          6           0        2.596205   -1.001015    0.336051
     26          6           0        1.438424   -3.820755    1.693211
     27          6           0        4.301037   -3.794078   -1.281399
     28          6           0       -1.957619   -4.476560    1.027364
     29          6           0       -5.334706   -0.053725   -0.767792
     30          6           0       -4.499850    3.819050   -0.578500
     31          6           0       -1.243839    4.117926   -0.304554
     32          6           0        6.844400   -3.344977   -1.003280
     33          6           0        5.719992   -0.539509   -0.242117
     34          6           0        0.184485    4.021539   -0.279921
     35          6           0        1.141896    5.069542   -0.514135
     36          6           0        2.331825    4.534484   -0.305121
     37          6           0       -3.074600   -3.988334   -0.006247
     38          6           0        5.374883    0.427144    0.806989
     39          6           0       -6.769544   -0.798454   -0.851416
     40          6           0        3.725761    5.219560   -0.336474
     41          6           0        2.175134    3.136394    0.084338
     42          6           0        0.749272    6.543679   -0.833714
     43          6           0        4.361705    5.555893    1.080635
     44          1           0        0.156383    0.412193    0.112658
     45          1           0       -3.023421   -1.184285    1.041048
     46          1           0       -2.424076   -2.873657    2.149992
     47          1           0       -0.964971   -3.834715    2.831267
     48          1           0        5.564179   -2.652323   -2.353188
     49          1           0       -5.076244    0.237633    1.248604
     50          1           0       -6.135615    1.347781    0.659086
     51          1           0        2.870971   -0.067997    0.527260
     52          1           0       -0.613074    1.910132    0.711765
     53          1           0        1.666985   -4.607018    0.890971
     54          1           0        2.533630   -3.647146    2.024753
     55          1           0        0.912763   -4.273544    2.526953
     56          1           0        2.408015   -3.568810   -0.635786
     57          1           0       -0.878959   -4.785501    0.447398
     58          1           0       -2.501937   -5.278072    1.457765
     59          1           0       -4.446718   -0.862464   -1.009951
     60          1           0       -5.425143    0.740976   -1.617419
     61          1           0       -4.618503    4.783525    0.238940
     62          1           0       -5.571281    3.215451   -0.554538
     63          1           0       -3.999616    4.001111   -1.538302
     64          1           0       -1.698717    5.150644   -0.408918
     65          1           0        7.632545   -2.525025   -1.072835
     66          1           0        7.028124   -4.338202   -1.604796
     67          1           0        6.980027   -3.293231    0.212426
     68          1           0        6.815637   -0.551962   -0.691052
     69          1           0        4.602483    1.436310    0.669963
     70          1           0        6.434620    0.757315    1.302173
     71          1           0        4.775433    0.080005    1.520719
     72          1           0        3.715394    6.130451   -0.890216
     73          1           0        4.322914    4.358064   -0.967685
     74          1           0       -0.069316    6.315285   -1.701005
     75          1           0        1.656064    6.985570   -1.301958
     76          1           0        0.375878    7.218672   -0.050127
     77          1           0        3.716446    6.426832    1.547418
     78          1           0        5.354129    6.010089    0.972730
     79          1           0        4.366324    4.985296    1.902003
     80          1           0       -3.836827   -4.438400   -1.654929
     81          1           0       -7.902302   -1.657386   -2.173845
 ---------------------------------------------------------------------

 SCF Done:  E(RB3LYP) =  -1949.01810568     A.U. after   16 cycles

 Excitation energies and oscillator strengths:

 Excited State   1:      Singlet-A      1.6395 eV  756.25 nm  f=0.3296  <S**2>=0.000
     156 ->157         0.71130
     156 <-157        -0.13159
 This state for optimization and/or second-order correction.
 Total Energy, E(TD-HF/TD-DFT) =  -1948.95785640
 Copying the excited state density for this state as the 1-particle RhoCI density.

 The electronic state is 1-A.
 Alpha  occ. eigenvalues --  -19.21155 -19.16734 -19.15694 -19.13928 -19.12141
 Alpha  occ. eigenvalues --  -19.11694 -14.38128 -14.36665 -14.35187 -14.28379
 Alpha  occ. eigenvalues --  -10.33399 -10.33011 -10.29767 -10.27022 -10.24686
 Alpha  occ. eigenvalues --  -10.24051 -10.23936 -10.23425 -10.23204 -10.22549
 Alpha  occ. eigenvalues --  -10.22291 -10.22152 -10.21707 -10.21354 -10.21106
 Alpha  occ. eigenvalues --  -10.21059 -10.21032 -10.21000 -10.20723 -10.20600
 Alpha  occ. eigenvalues --  -10.20513 -10.20262 -10.19813 -10.19737 -10.19684
 Alpha  occ. eigenvalues --  -10.19611 -10.19491 -10.19275 -10.19252 -10.18334
 Alpha  occ. eigenvalues --  -10.18311 -10.17898 -10.17854  -1.12502  -1.10234
 Alpha  occ. eigenvalues --   -1.04760  -1.04356  -1.03143  -1.01936  -0.98004
 Alpha  occ. eigenvalues --   -0.97339  -0.96685  -0.92338  -0.83335  -0.82211
 Alpha  occ. eigenvalues --   -0.81941  -0.81432  -0.79680  -0.79202  -0.77312
 Alpha  occ. eigenvalues --   -0.77126  -0.75761  -0.74688  -0.73745  -0.72060
 Alpha  occ. eigenvalues --   -0.70936  -0.70414  -0.69330  -0.68077  -0.67685
 Alpha  occ. eigenvalues --   -0.66984  -0.65521  -0.64387  -0.63372  -0.62428
 Alpha  occ. eigenvalues --   -0.60817  -0.59433  -0.59058  -0.58810  -0.57247
 Alpha  occ. eigenvalues --   -0.56877  -0.55619  -0.54338  -0.54062  -0.53402
 Alpha  occ. eigenvalues --   -0.52487  -0.51867  -0.51714  -0.51025  -0.50146
 Alpha  occ. eigenvalues --   -0.50056  -0.49764  -0.49189  -0.48127  -0.47935
 Alpha  occ. eigenvalues --   -0.47541  -0.46818  -0.46573  -0.45926  -0.45497
 Alpha  occ. eigenvalues --   -0.45179  -0.45026  -0.44747  -0.44524  -0.44452
 Alpha  occ. eigenvalues --   -0.44143  -0.43842  -0.42915  -0.42523  -0.42375
 Alpha  occ. eigenvalues --   -0.41998  -0.41789  -0.41615  -0.41382  -0.40906
 Alpha  occ. eigenvalues --   -0.40496  -0.40311  -0.40108  -0.39800  -0.39771
 Alpha  occ. eigenvalues --   -0.39146  -0.38928  -0.38826  -0.38393  -0.38232
 Alpha  occ. eigenvalues --   -0.38097  -0.37928  -0.37736  -0.36767  -0.36580
 Alpha  occ. eigenvalues --   -0.36226  -0.35746  -0.35388  -0.35071  -0.34853
 Alpha  occ. eigenvalues --   -0.34251  -0.33976  -0.33856  -0.33554  -0.33323
 Alpha  occ. eigenvalues --   -0.32951  -0.32575  -0.32219  -0.30028  -0.29667
 Alpha  occ. eigenvalues --   -0.29064  -0.28657  -0.26640  -0.26205  -0.25411
 Alpha  occ. eigenvalues --   -0.25132  -0.24534  -0.24285  -0.23672  -0.20909
 Alpha  occ. eigenvalues --   -0.17181
 Alpha virt. eigenvalues --   -0.10701  -0.06415  -0.04678  -0.01068  -0.00288
 Alpha virt. eigenvalues --   -0.00025   0.00351   0.02295   0.03212   0.03296
 Alpha virt. eigenvalues --    0.04158   0.04440   0.04813   0.04866   0.06482

 Mulliken charges:
               1
     1  O   -0.248080
     2  O   -0.209694
     3  O   -0.207944
     4  O   -0.177729
     5  O   -0.169967
     6  O   -0.159183
     7  N   -0.050494
     8  N   -0.048654
     9  N   -0.027326
    10  N   -0.346347
    11  C   -0.181031
    12  C   -0.020317
    13  C   -0.143819
    14  C    0.143806
    15  C   -0.047223
    16  C    0.150904
    17  C   -0.072543
    18  C   -0.119988
    19  C    0.193889
    20  C    0.014602
    21  C    0.047879
    22  C    0.108273
    23  C   -0.031169
    24  C    0.087731
    25  C   -0.018733
    26  C    0.041016
    27  C    0.126120
    28  C   -0.006221
    29  C   -0.111219
    30  C   -0.010011
    31  C   -0.144882
    32  C   -0.036059
    33  C   -0.109207
    34  C    0.067858
    35  C   -0.078165
    36  C   -0.182060
    37  C    0.104640
    38  C   -0.026677
    39  C    0.153085
    40  C    0.066688
    41  C    0.171818
    42  C    0.052587
    43  C    0.026107
    44  H    0.106055
    45  H    0.016804
    46  H   -0.058832
    47  H    0.026823
    48  H   -0.000633
    49  H   -0.012813
    50  H    0.045112
    51  H   -0.098596
    52  H    0.055925
    53  H    0.024846
    54  H    0.032303
    55  H    0.013515
    56  H    0.127692
    57  H    0.065227
    58  H    0.028062
    59  H    0.080785
    60  H    0.045958
    61  H    0.063990
    62  H    0.046214
    63  H    0.051238
    64  H   -0.010524
    65  H    0.019353
    66  H    0.071372
    67  H    0.018751
    68  H    0.025720
    69  H    0.125516
    70  H    0.018284
    71  H   -0.017009
    72  H   -0.008624
    73  H    0.039831
    74  H    0.042277
    75  H    0.018120
    76  H    0.051356
    77  H   -0.002155
    78  H    0.015467
    79  H   -0.007581
    80  H    0.223564
    81  H    0.144344
 Sum of Mulliken charges =  -0.00000

 Dipole moment (field-independent basis, Debye):
    X=             -2.6009    Y=              1.5513    Z=             -0.7801  Tot=              3.1272
 Quadrupole moment (field-independent basis, Debye-Ang):
   XX=           -248.7759   YY=           -246.5566   ZZ=           -254.8095
   XY=             18.2462   XZ=             13.6422   YZ=             -7.0324

 Normal termination of Gaussian 16 at Sun Jun 30 01:21:03 2019.
