 Gaussian 16, Revision A.03,
 Gaussian 16:  ES64L-G16RevA.03 25-Dec-2016

 --------------------------
 # td=(NStates=1) B3LYP/SVP
 --------------------------

 --
 TD
 --
 Symbolic Z-matrix:
 Charge =  0 Multiplicity = 1

                         Standard orientation:
 ---------------------------------------------------------------------
 Center     Atomic      Atomic             Coordinates (Angstroms)
 Number     Number       Type             X           Y           Z
 ---------------------------------------------------------------------
      1          8           0        4.270946   -4.835684   -1.801756
      2          8           0       -2.811571   -4.798001   -1.192173
      3          8           0       -6.893826   -1.705316   -1.770026
      4          8           0       -3.621346   -3.080203   -0.005256
      5          8           0       -7.700428   -0.564120   -0.016606
      6          8           0        2.972288    2.415193    0.336389
      7          7           0        0.249760   -0.484712    0.583553
      8          7           0       -1.533759    1.894298    0.340626
      9          7           0        3.215609   -3.149719   -0.672662
     10          7           0        0.769343    2.965058   -0.114818
     11          6           0       -0.685690   -2.337023    1.458497
     12          6           0       -0.897709   -1.061752    0.899731
     13          6           0        0.751452   -2.527153    1.350553
     14          6           0        1.278764   -1.399149    0.714903
     15          6           0       -3.755885    1.491433    0.281081
     16          6           0       -2.494097    0.813542    0.560477
     17          6           0       -2.195813   -0.505008    0.862758
     18          6           0       -3.585333    2.717456   -0.055160
     19          6           0       -1.560036   -3.282946    2.019711
     20          6           0        5.470191   -2.891282   -1.344250
     21          6           0        3.565637   -1.851170   -0.192532
     22          6           0       -2.118880    2.988681   -0.027850
     23          6           0        5.021350   -1.724356   -0.455208
     24          6           0       -5.127750    0.716893    0.389488
     25          6           0        2.661127   -0.941818    0.430585
     26          6           0        1.475084   -3.701004    1.798593
     27          6           0        4.272023   -3.770782   -1.403108
     28          6           0       -1.929405   -4.510484    1.072259
     29          6           0       -5.325020   -0.224970   -0.761845
     30          6           0       -4.588592    3.736486   -0.416801
     31          6           0       -1.336575    4.104856   -0.482512
     32          6           0        6.764853   -3.509702   -0.737956
     33          6           0        5.768608   -0.603450   -0.119891
     34          6           0        0.082214    4.045530   -0.323674
     35          6           0        1.045842    5.193109   -0.499296
     36          6           0        2.346373    4.741023   -0.187859
     37          6           0       -2.922155   -4.067358   -0.061207
     38          6           0        5.416298    0.600447    0.717620
     39          6           0       -6.767879   -0.740728   -0.756845
     40          6           0        3.766422    5.396098   -0.317812
     41          6           0        2.119195    3.263929    0.045970
     42          6           0        0.567847    6.579086   -0.764988
     43          6           0        4.209212    5.609541    1.082057
     44          1           0        0.419304    0.371670    0.106760
     45          1           0       -2.991835   -1.184248    1.152012
     46          1           0       -2.416747   -2.840398    2.242433
     47          1           0       -1.006728   -3.827752    2.808052
     48          1           0        5.625203   -2.554416   -2.433872
     49          1           0       -5.197286    0.211567    1.504623
     50          1           0       -5.994769    1.501412    0.458756
     51          1           0        3.065955    0.115624    0.534247
     52          1           0       -0.431483    1.850904    0.307666
     53          1           0        1.113162   -4.644472    1.207576
     54          1           0        2.715087   -3.543004    1.673511
     55          1           0        1.278763   -4.069348    2.865458
     56          1           0        2.207880   -3.478454   -0.713498
     57          1           0       -1.047664   -5.163417    0.661903
     58          1           0       -2.629847   -5.291163    1.816369
     59          1           0       -4.589844   -1.111742   -0.878823
     60          1           0       -5.329982    0.182275   -1.775307
     61          1           0       -4.549486    4.660924    0.370864
     62          1           0       -5.677777    3.291110   -0.488211
     63          1           0       -4.293058    4.038258   -1.403119
     64          1           0       -1.864134    5.008100   -0.758264
     65          1           0        7.566506   -2.923463   -1.097553
     66          1           0        7.009929   -4.550476   -1.083438
     67          1           0        6.715828   -3.490011    0.283162
     68          1           0        6.722201   -0.681493   -0.523449
     69          1           0        4.776575    1.329505   -0.014732
     70          1           0        6.422595    1.134532    0.793581
     71          1           0        4.545155    0.310340    1.549363
     72          1           0        3.648332    6.372285   -0.940778
     73          1           0        4.344996    4.747634   -0.922891
     74          1           0        0.045602    6.793062   -1.671727
     75          1           0        1.372765    7.211082   -0.843531
     76          1           0        0.087158    7.227424    0.044124
     77          1           0        3.491734    6.279716    1.782010
     78          1           0        5.190920    6.213685    1.208311
     79          1           0        4.501691    4.742309    1.693077
     80          1           0       -3.410883   -4.347196   -1.818076
     81          1           0       -7.821028   -2.009631   -1.711016
 ---------------------------------------------------------------------

 SCF Done:  E(RB3LYP) =  -1949.14219330     A.U. after   16 cycles

 Excitation energies and oscillator strengths:

 Excited State   1:      Singlet-A      1.7641 eV  702.80 nm  f=0.2092  <S**2>=0.000
     156 ->157         0.70401
 This state for optimization and/or second-order correction.
 Total Energy, E(TD-HF/TD-DFT) =  -1949.07736203
 Copying the excited state density for this state as the 1-particle RhoCI density.

 The electronic state is 1-A.
 Alpha  occ. eigenvalues --  -19.19964 -19.16680 -19.14821 -19.13345 -19.11017
 Alpha  occ. eigenvalues --  -19.10687 -14.37212 -14.36032 -14.35853 -14.29108
 Alpha  occ. eigenvalues --  -10.34074 -10.32018 -10.28172 -10.27149 -10.24544
 Alpha  occ. eigenvalues --  -10.24239 -10.23881 -10.23302 -10.22989 -10.22885
 Alpha  occ. eigenvalues --  -10.22307 -10.22267 -10.21349 -10.21120 -10.21070
 Alpha  occ. eigenvalues --  -10.21015 -10.20835 -10.20490 -10.20410 -10.20133
 Alpha  occ. eigenvalues --  -10.20052 -10.19935 -10.19785 -10.19340 -10.19263
 Alpha  occ. eigenvalues --  -10.19217 -10.19107 -10.18970 -10.18964 -10.18773
 Alpha  occ. eigenvalues --  -10.18749 -10.18546 -10.17897  -1.11591  -1.08390
 Alpha  occ. eigenvalues --   -1.07274  -1.02405  -1.01113  -0.99612  -0.99478
 Alpha  occ. eigenvalues --   -0.98093  -0.93225  -0.92683  -0.83394  -0.82600
 Alpha  occ. eigenvalues --   -0.80923  -0.80423  -0.79403  -0.78249  -0.77679
 Alpha  occ. eigenvalues --   -0.76554  -0.76010  -0.75303  -0.73389  -0.71741
 Alpha  occ. eigenvalues --   -0.70795  -0.69405  -0.68926  -0.68758  -0.67303
 Alpha  occ. eigenvalues --   -0.66753  -0.65023  -0.63853  -0.61752  -0.61286
 Alpha  occ. eigenvalues --   -0.60928  -0.58510  -0.58132  -0.56942  -0.56699
 Alpha  occ. eigenvalues --   -0.55880  -0.55375  -0.54964  -0.53396  -0.52834
 Alpha  occ. eigenvalues --   -0.52228  -0.52152  -0.50826  -0.50526  -0.49319
 Alpha  occ. eigenvalues --   -0.48855  -0.48264  -0.48116  -0.47761  -0.47510
 Alpha  occ. eigenvalues --   -0.46956  -0.46376  -0.46136  -0.45462  -0.45255
 Alpha  occ. eigenvalues --   -0.44734  -0.44399  -0.44214  -0.43921  -0.43726
 Alpha  occ. eigenvalues --   -0.43699  -0.43244  -0.42934  -0.42509  -0.42272
 Alpha  occ. eigenvalues --   -0.41534  -0.41424  -0.41144  -0.41061  -0.40817
 Alpha  occ. eigenvalues --   -0.40656  -0.40361  -0.39987  -0.39911  -0.39733
 Alpha  occ. eigenvalues --   -0.39629  -0.39283  -0.39138  -0.38980  -0.38458
 Alpha  occ. eigenvalues --   -0.38208  -0.37527  -0.37324  -0.37018  -0.36917
 Alpha  occ. eigenvalues --   -0.36243  -0.36127  -0.35900  -0.34805  -0.34468
 Alpha  occ. eigenvalues --   -0.34318  -0.33975  -0.33889  -0.33628  -0.33130
 Alpha  occ. eigenvalues --   -0.32410  -0.32375  -0.31878  -0.30416  -0.29840
 Alpha  occ. eigenvalues --   -0.28430  -0.27339  -0.26790  -0.26279  -0.25048
 Alpha  occ. eigenvalues --   -0.24683  -0.24266  -0.24029  -0.23471  -0.21087
 Alpha  occ. eigenvalues --   -0.17567
 Alpha virt. eigenvalues --   -0.09945  -0.05784  -0.03610  -0.02200   0.00129
 Alpha virt. eigenvalues --    0.01050   0.01817   0.02652   0.04015   0.04306
 Alpha virt. eigenvalues --    0.04579   0.05050   0.05337   0.06140   0.06279

 Mulliken charges:
               1
     1  O   -0.116789
     2  O   -0.168854
     3  O   -0.240961
     4  O   -0.224904
     5  O   -0.211329
     6  O   -0.222928
     7  N    0.000036
     8  N   -0.128846
     9  N   -0.210535
    10  N   -0.284545
    11  C   -0.122430
    12  C    0.055136
    13  C   -0.105894
    14  C    0.029990
    15  C   -0.041728
    16  C    0.096454
    17  C   -0.072936
    18  C   -0.129401
    19  C    0.227918
    20  C   -0.071012
    21  C    0.072652
    22  C    0.040613
    23  C   -0.075715
    24  C    0.018697
    25  C   -0.120659
    26  C   -0.045368
    27  C    0.100126
    28  C   -0.117223
    29  C    0.002948
    30  C    0.051541
    31  C   -0.095730
    32  C    0.112092
    33  C   -0.104677
    34  C    0.089179
    35  C   -0.105098
    36  C   -0.187949
    37  C    0.151503
    38  C   -0.000748
    39  C    0.134492
    40  C    0.137432
    41  C    0.161676
    42  C    0.124765
    43  C   -0.057105
    44  H    0.119971
    45  H    0.006117
    46  H   -0.041908
    47  H    0.004997
    48  H    0.048673
    49  H    0.051602
    50  H    0.033208
    51  H    0.040532
    52  H    0.175340
    53  H    0.020845
    54  H    0.074418
    55  H    0.030481
    56  H    0.150818
    57  H    0.065247
    58  H    0.066068
    59  H    0.081205
    60  H    0.025935
    61  H    0.053747
    62  H    0.030995
    63  H    0.023536
    64  H   -0.028109
    65  H    0.002803
    66  H    0.023256
    67  H   -0.000491
    68  H   -0.046805
    69  H    0.092673
    70  H    0.025538
    71  H    0.079924
    72  H    0.016725
    73  H    0.011929
    74  H    0.009655
    75  H   -0.045610
    76  H    0.027800
    77  H    0.027181
    78  H    0.002939
    79  H    0.035886
    80  H    0.185516
    81  H    0.173476
 Sum of Mulliken charges =  -0.00000

 Dipole moment (field-independent basis, Debye):
    X=             -1.6660    Y=              1.3054    Z=             -1.0993  Tot=              2.3850
 Quadrupole moment (field-independent basis, Debye-Ang):
   XX=           -255.3194   YY=           -239.0596   ZZ=           -253.2560
   XY=             14.9057   XZ=              8.5851   YZ=            -12.2204

 Normal termination of Gaussian 16 at Fri Jun 28 09:28:32 2019.
