 Gaussian 16, Revision A.03,
 Gaussian 16:  ES64L-G16RevA.03 25-Dec-2016

 --------------------------
 # td=(NStates=1) B3LYP/SVP
 --------------------------

 --
 TD
 --
 Symbolic Z-matrix:
 Charge =  0 Multiplicity = 1

                         Standard orientation:
 ---------------------------------------------------------------------
 Center     Atomic      Atomic             Coordinates (Angstroms)
 Number     Number       Type             X           Y           Z
 ---------------------------------------------------------------------
      1          8           0        4.201761   -4.770603   -2.012371
      2          8           0       -3.056869   -5.025956   -1.045471
      3          8           0       -7.105163   -1.410148   -1.732110
      4          8           0       -3.769035   -3.099581   -0.064035
      5          8           0       -7.640859   -0.151652    0.104114
      6          8           0        3.113619    2.314614    0.423931
      7          7           0        0.186463   -0.503315    0.561137
      8          7           0       -1.474781    1.790461    0.353224
      9          7           0        3.318033   -3.114486   -0.655324
     10          7           0        0.822940    2.786016    0.013718
     11          6           0       -0.696825   -2.440361    1.349193
     12          6           0       -0.945021   -1.124813    0.964537
     13          6           0        0.778769   -2.618351    1.189159
     14          6           0        1.253126   -1.373177    0.705774
     15          6           0       -3.750224    1.494408    0.253589
     16          6           0       -2.508736    0.846355    0.520619
     17          6           0       -2.228881   -0.427777    0.854176
     18          6           0       -3.419926    2.853419   -0.119426
     19          6           0       -1.723354   -3.253214    1.908098
     20          6           0        5.516892   -2.737431   -1.342514
     21          6           0        3.625471   -1.801499   -0.173413
     22          6           0       -2.035016    2.955248   -0.072221
     23          6           0        4.998295   -1.639974   -0.496706
     24          6           0       -5.108706    0.793400    0.409208
     25          6           0        2.545795   -0.914202    0.277462
     26          6           0        1.416658   -3.762416    1.718441
     27          6           0        4.295123   -3.714688   -1.377584
     28          6           0       -2.089213   -4.375951    1.076804
     29          6           0       -5.471727   -0.099672   -0.716660
     30          6           0       -4.389424    4.003702   -0.476667
     31          6           0       -1.170770    4.026932   -0.546430
     32          6           0        6.732022   -3.524224   -0.774470
     33          6           0        5.818446   -0.629472   -0.068585
     34          6           0        0.252571    3.907326   -0.347333
     35          6           0        1.241175    4.991335   -0.596141
     36          6           0        2.436258    4.541655   -0.311566
     37          6           0       -3.019250   -4.015688   -0.051717
     38          6           0        5.418082    0.492833    0.795412
     39          6           0       -6.840161   -0.565286   -0.685588
     40          6           0        3.738877    5.216313   -0.178872
     41          6           0        2.216962    3.070208    0.146337
     42          6           0        0.858677    6.335381   -0.943338
     43          6           0        4.229649    5.467910    1.271572
     44          1           0        0.248784    0.439711    0.127176
     45          1           0       -2.989191   -1.122480    0.926406
     46          1           0       -2.474105   -2.678098    2.224994
     47          1           0       -1.453385   -3.775565    2.883305
     48          1           0        5.661357   -2.370026   -2.512936
     49          1           0       -5.449558    0.364384    1.427252
     50          1           0       -5.974014    1.541439    0.372288
     51          1           0        2.760987    0.291251    0.308030
     52          1           0       -0.338748    1.914597    0.385416
     53          1           0        1.167541   -4.854438    1.239376
     54          1           0        2.493841   -3.700900    1.937368
     55          1           0        1.054397   -3.828519    2.764295
     56          1           0        2.325258   -3.384534   -0.481496
     57          1           0       -1.233394   -5.008803    0.831682
     58          1           0       -2.619491   -5.106349    1.782100
     59          1           0       -4.731506   -1.042923   -1.050768
     60          1           0       -5.163699    0.402416   -1.787797
     61          1           0       -4.384572    4.952088    0.202605
     62          1           0       -5.539094    3.704574   -0.124204
     63          1           0       -4.368642    4.191359   -1.404223
     64          1           0       -1.618711    4.966817   -0.779326
     65          1           0        7.561198   -2.882210   -0.988674
     66          1           0        6.559783   -4.386341   -1.179819
     67          1           0        6.642531   -3.589310    0.276439
     68          1           0        6.860143   -0.561780   -0.126284
     69          1           0        4.985024    1.417126    0.268225
     70          1           0        6.206987    0.975288    1.577980
     71          1           0        4.763569    0.311501    1.697769
     72          1           0        3.570331    6.266888   -0.757469
     73          1           0        4.576013    4.619090   -0.803727
     74          1           0       -0.152495    6.200219   -1.732067
     75          1           0        1.741164    7.059958   -1.318574
     76          1           0        0.513946    7.006993   -0.054339
     77          1           0        3.633998    6.139165    1.828342
     78          1           0        5.285351    5.752194    1.375946
     79          1           0        4.185492    4.518328    1.778211
     80          1           0       -3.818567   -4.824089   -1.732458
     81          1           0       -8.258437   -1.352537   -1.649695
 ---------------------------------------------------------------------

 SCF Done:  E(RB3LYP) =  -1949.06367016     A.U. after   16 cycles

 Excitation energies and oscillator strengths:

 Excited State   1:      Singlet-A      1.7163 eV  722.40 nm  f=0.3011  <S**2>=0.000
     156 ->157         0.70778
 This state for optimization and/or second-order correction.
 Total Energy, E(TD-HF/TD-DFT) =  -1949.00059800
 Copying the excited state density for this state as the 1-particle RhoCI density.

 The electronic state is 1-A.
 Alpha  occ. eigenvalues --  -19.19099 -19.18271 -19.15101 -19.13330 -19.12204
 Alpha  occ. eigenvalues --  -19.09957 -14.37177 -14.36874 -14.34456 -14.30860
 Alpha  occ. eigenvalues --  -10.33514 -10.31727 -10.28413 -10.28273 -10.24785
 Alpha  occ. eigenvalues --  -10.23745 -10.23511 -10.23495 -10.23069 -10.22872
 Alpha  occ. eigenvalues --  -10.22130 -10.21831 -10.21773 -10.21690 -10.21224
 Alpha  occ. eigenvalues --  -10.21148 -10.20995 -10.20775 -10.20769 -10.20566
 Alpha  occ. eigenvalues --  -10.20458 -10.20311 -10.20153 -10.19742 -10.19694
 Alpha  occ. eigenvalues --  -10.19592 -10.19536 -10.19527 -10.19011 -10.18775
 Alpha  occ. eigenvalues --  -10.17943 -10.17866 -10.16982  -1.09729  -1.08822
 Alpha  occ. eigenvalues --   -1.03836  -1.01731  -1.00615  -1.00280  -0.98562
 Alpha  occ. eigenvalues --   -0.96951  -0.94478  -0.93716  -0.84764  -0.82095
 Alpha  occ. eigenvalues --   -0.81732  -0.81177  -0.80909  -0.79241  -0.77790
 Alpha  occ. eigenvalues --   -0.77175  -0.76252  -0.75432  -0.73668  -0.72745
 Alpha  occ. eigenvalues --   -0.71265  -0.70320  -0.69075  -0.68583  -0.67802
 Alpha  occ. eigenvalues --   -0.67003  -0.65094  -0.63442  -0.62796  -0.61416
 Alpha  occ. eigenvalues --   -0.60113  -0.58727  -0.58033  -0.57432  -0.57175
 Alpha  occ. eigenvalues --   -0.55874  -0.55046  -0.54475  -0.53601  -0.53241
 Alpha  occ. eigenvalues --   -0.52951  -0.52748  -0.51264  -0.50478  -0.49895
 Alpha  occ. eigenvalues --   -0.49479  -0.49116  -0.48721  -0.48377  -0.47361
 Alpha  occ. eigenvalues --   -0.47084  -0.46697  -0.45954  -0.45683  -0.45504
 Alpha  occ. eigenvalues --   -0.44869  -0.44718  -0.44468  -0.44098  -0.43978
 Alpha  occ. eigenvalues --   -0.43697  -0.42958  -0.42863  -0.42745  -0.42342
 Alpha  occ. eigenvalues --   -0.42270  -0.42129  -0.41533  -0.41426  -0.41000
 Alpha  occ. eigenvalues --   -0.40899  -0.40667  -0.40272  -0.40235  -0.39710
 Alpha  occ. eigenvalues --   -0.39559  -0.39235  -0.38964  -0.38520  -0.38402
 Alpha  occ. eigenvalues --   -0.37918  -0.37763  -0.37321  -0.36950  -0.36524
 Alpha  occ. eigenvalues --   -0.36206  -0.36045  -0.35123  -0.34721  -0.34613
 Alpha  occ. eigenvalues --   -0.34420  -0.33948  -0.33397  -0.33273  -0.33011
 Alpha  occ. eigenvalues --   -0.32739  -0.30937  -0.30635  -0.30473  -0.30060
 Alpha  occ. eigenvalues --   -0.29683  -0.29099  -0.26180  -0.25563  -0.25406
 Alpha  occ. eigenvalues --   -0.25096  -0.24747  -0.24587  -0.24343  -0.21211
 Alpha  occ. eigenvalues --   -0.17836
 Alpha virt. eigenvalues --   -0.10702  -0.06229  -0.05319  -0.01981  -0.01068
 Alpha virt. eigenvalues --    0.00142   0.00567   0.02219   0.03165   0.03305
 Alpha virt. eigenvalues --    0.03673   0.04137   0.04486   0.04951   0.06023

 Mulliken charges:
               1
     1  O   -0.243772
     2  O   -0.277594
     3  O   -0.276808
     4  O   -0.177411
     5  O   -0.224684
     6  O   -0.195898
     7  N   -0.065460
     8  N   -0.206169
     9  N   -0.115990
    10  N   -0.313387
    11  C   -0.089540
    12  C    0.022281
    13  C   -0.140276
    14  C    0.083697
    15  C   -0.035038
    16  C    0.150643
    17  C   -0.030047
    18  C   -0.127017
    19  C    0.157961
    20  C   -0.166495
    21  C    0.061577
    22  C    0.055880
    23  C    0.010579
    24  C    0.096344
    25  C   -0.127644
    26  C    0.000314
    27  C    0.133609
    28  C    0.021737
    29  C   -0.143709
    30  C    0.093185
    31  C   -0.076236
    32  C    0.194377
    33  C   -0.073186
    34  C    0.071643
    35  C   -0.014298
    36  C   -0.144954
    37  C    0.162171
    38  C   -0.061299
    39  C    0.189513
    40  C   -0.015916
    41  C    0.185958
    42  C   -0.063489
    43  C    0.047218
    44  H    0.134012
    45  H   -0.039419
    46  H   -0.040535
    47  H   -0.006275
    48  H    0.071854
    49  H    0.040758
    50  H    0.011425
    51  H    0.093208
    52  H    0.199843
    53  H    0.052395
    54  H    0.023965
    55  H    0.021850
    56  H    0.140398
    57  H    0.021569
    58  H    0.045334
    59  H    0.074479
    60  H    0.059820
    61  H    0.042168
    62  H    0.026061
    63  H   -0.017246
    64  H   -0.035260
    65  H    0.018229
    66  H   -0.017696
    67  H   -0.007776
    68  H   -0.020874
    69  H    0.083924
    70  H   -0.004095
    71  H    0.025199
    72  H    0.008367
    73  H    0.036697
    74  H    0.053501
    75  H    0.040532
    76  H    0.048188
    77  H    0.002112
    78  H    0.012826
    79  H    0.012572
    80  H    0.217316
    81  H    0.238207
 Sum of Mulliken charges =  -0.00000

 Dipole moment (field-independent basis, Debye):
    X=             -2.8639    Y=              1.9249    Z=              1.2730  Tot=              3.6780
 Quadrupole moment (field-independent basis, Debye-Ang):
   XX=           -247.3344   YY=           -245.6175   ZZ=           -255.0929
   XY=             19.5970   XZ=             17.7104   YZ=            -16.4862

 Normal termination of Gaussian 16 at Sat Jun 29 16:51:03 2019.
