 Gaussian 16, Revision A.03,
 Gaussian 16:  ES64L-G16RevA.03 25-Dec-2016

 --------------------------
 # td=(NStates=1) B3LYP/SVP
 --------------------------

 --
 TD
 --
 Symbolic Z-matrix:
 Charge =  0 Multiplicity = 1

                         Standard orientation:
 ---------------------------------------------------------------------
 Center     Atomic      Atomic             Coordinates (Angstroms)
 Number     Number       Type             X           Y           Z
 ---------------------------------------------------------------------
      1          8           0        4.251550   -4.838701   -1.768217
      2          8           0       -2.934086   -4.731808   -1.173006
      3          8           0       -6.948875   -1.801409   -1.543143
      4          8           0       -3.793993   -3.035241    0.080799
      5          8           0       -7.744738   -0.442614    0.055041
      6          8           0        3.066208    2.387745    0.382479
      7          7           0        0.213097   -0.468654    0.574625
      8          7           0       -1.551578    1.773973    0.172361
      9          7           0        3.176643   -3.013896   -0.783113
     10          7           0        0.754914    2.956276   -0.006426
     11          6           0       -0.555341   -2.428680    1.396642
     12          6           0       -0.921413   -1.080177    0.861698
     13          6           0        0.854163   -2.564197    1.086983
     14          6           0        1.389649   -1.290433    0.715084
     15          6           0       -3.799672    1.479848    0.242788
     16          6           0       -2.544884    0.777391    0.539859
     17          6           0       -2.246893   -0.462558    0.938735
     18          6           0       -3.621762    2.865491   -0.191278
     19          6           0       -1.592940   -3.444762    1.898838
     20          6           0        5.416009   -2.789578   -1.307157
     21          6           0        3.539576   -1.773407   -0.226618
     22          6           0       -2.075303    3.001870   -0.195235
     23          6           0        4.975754   -1.651295   -0.438529
     24          6           0       -5.121359    0.793746    0.414047
     25          6           0        2.657699   -0.811083    0.285350
     26          6           0        1.689764   -3.788236    1.674583
     27          6           0        4.214937   -3.705901   -1.335962
     28          6           0       -2.019547   -4.498489    1.054232
     29          6           0       -5.489921   -0.116081   -0.746401
     30          6           0       -4.493567    4.002496   -0.487276
     31          6           0       -1.299253    4.097431   -0.501688
     32          6           0        6.643405   -3.683353   -0.806551
     33          6           0        5.814915   -0.663817   -0.050143
     34          6           0        0.158107    4.187129   -0.198951
     35          6           0        1.160893    5.264590   -0.418513
     36          6           0        2.370704    4.651947   -0.186534
     37          6           0       -3.015069   -4.049352   -0.032064
     38          6           0        5.445831    0.524034    0.735113
     39          6           0       -6.834570   -0.763852   -0.654157
     40          6           0        3.810962    5.229359   -0.267987
     41          6           0        2.204975    3.190625    0.078382
     42          6           0        0.615973    6.558451   -0.775454
     43          6           0        4.399388    5.324764    1.217536
     44          1           0        0.340804    0.406346    0.264832
     45          1           0       -3.107111   -1.151724    0.974990
     46          1           0       -2.315226   -2.791814    2.445393
     47          1           0       -1.017441   -3.751091    2.700002
     48          1           0        5.559798   -2.436106   -2.275616
     49          1           0       -5.032562    0.125094    1.483949
     50          1           0       -5.880925    1.572994    0.623547
     51          1           0        2.774073    0.172269    0.619423
     52          1           0       -0.572088    1.925920    0.512664
     53          1           0        1.703566   -4.693551    1.325948
     54          1           0        2.612169   -3.650012    1.933332
     55          1           0        1.386793   -4.280500    2.692460
     56          1           0        2.326750   -3.349344   -0.949899
     57          1           0       -1.292045   -5.244303    0.632512
     58          1           0       -2.693002   -5.169999    1.695189
     59          1           0       -4.808705   -0.953686   -0.933363
     60          1           0       -5.535291    0.458546   -1.665852
     61          1           0       -4.052742    4.874514    0.091684
     62          1           0       -5.500786    3.785331   -0.276663
     63          1           0       -4.386829    4.112615   -1.474637
     64          1           0       -1.879287    5.081313   -0.691942
     65          1           0        7.388537   -3.065032   -1.083761
     66          1           0        6.755379   -4.607683   -1.426430
     67          1           0        6.443275   -4.009225    0.235120
     68          1           0        6.707264   -0.605918   -0.494206
     69          1           0        5.057302    1.131209   -0.202415
     70          1           0        6.362768    1.164139    1.119601
     71          1           0        4.806675    0.281394    1.612238
     72          1           0        3.905050    6.338128   -0.528235
     73          1           0        4.590867    4.694262   -0.942325
     74          1           0        0.168339    6.322754   -1.711073
     75          1           0        1.632347    7.127445   -1.164690
     76          1           0       -0.220093    7.172284   -0.313157
     77          1           0        3.636014    5.953955    1.774805
     78          1           0        5.432955    5.664587    1.386766
     79          1           0        4.642372    4.353255    1.539196
     80          1           0       -3.766991   -4.317547   -1.980626
     81          1           0       -7.879300   -1.982009   -1.438761
 ---------------------------------------------------------------------

 SCF Done:  E(RB3LYP) =  -1949.02090697     A.U. after   16 cycles

 Excitation energies and oscillator strengths:

 Excited State   1:      Singlet-A      1.4859 eV  834.42 nm  f=0.1841  <S**2>=0.000
     156 ->157         0.70735
     156 <-157        -0.10496
 This state for optimization and/or second-order correction.
 Total Energy, E(TD-HF/TD-DFT) =  -1948.96630215
 Copying the excited state density for this state as the 1-particle RhoCI density.

 The electronic state is 1-A.
 Alpha  occ. eigenvalues --  -19.21168 -19.17638 -19.13206 -19.12693 -19.12251
 Alpha  occ. eigenvalues --  -19.10197 -14.36380 -14.36186 -14.34754 -14.29358
 Alpha  occ. eigenvalues --  -10.33717 -10.31495 -10.27839 -10.27794 -10.24503
 Alpha  occ. eigenvalues --  -10.24280 -10.23950 -10.23051 -10.22877 -10.22750
 Alpha  occ. eigenvalues --  -10.22735 -10.21629 -10.21592 -10.21301 -10.21215
 Alpha  occ. eigenvalues --  -10.21200 -10.20696 -10.20560 -10.20292 -10.20277
 Alpha  occ. eigenvalues --  -10.20086 -10.20034 -10.19839 -10.19799 -10.19416
 Alpha  occ. eigenvalues --  -10.19086 -10.18740 -10.18568 -10.18561 -10.18265
 Alpha  occ. eigenvalues --  -10.17698 -10.17633 -10.17438  -1.09966  -1.08171
 Alpha  occ. eigenvalues --   -1.03127  -1.02718  -1.00797  -0.97844  -0.97664
 Alpha  occ. eigenvalues --   -0.95645  -0.94738  -0.90441  -0.82611  -0.82018
 Alpha  occ. eigenvalues --   -0.81627  -0.80709  -0.79424  -0.78958  -0.77597
 Alpha  occ. eigenvalues --   -0.76999  -0.76140  -0.75585  -0.74027  -0.72400
 Alpha  occ. eigenvalues --   -0.71903  -0.70374  -0.69391  -0.68553  -0.67345
 Alpha  occ. eigenvalues --   -0.66537  -0.64724  -0.64251  -0.62604  -0.60836
 Alpha  occ. eigenvalues --   -0.59785  -0.58778  -0.58255  -0.58147  -0.56905
 Alpha  occ. eigenvalues --   -0.55632  -0.54949  -0.54439  -0.53721  -0.52916
 Alpha  occ. eigenvalues --   -0.51837  -0.51238  -0.50785  -0.49439  -0.49392
 Alpha  occ. eigenvalues --   -0.48723  -0.48554  -0.48404  -0.48264  -0.47999
 Alpha  occ. eigenvalues --   -0.47255  -0.46769  -0.46101  -0.45855  -0.45612
 Alpha  occ. eigenvalues --   -0.45361  -0.44817  -0.44418  -0.43959  -0.43636
 Alpha  occ. eigenvalues --   -0.43244  -0.43046  -0.42731  -0.42180  -0.42148
 Alpha  occ. eigenvalues --   -0.41983  -0.41766  -0.41552  -0.41434  -0.40908
 Alpha  occ. eigenvalues --   -0.40749  -0.40643  -0.40433  -0.40201  -0.39732
 Alpha  occ. eigenvalues --   -0.39597  -0.39308  -0.39184  -0.38570  -0.38342
 Alpha  occ. eigenvalues --   -0.37596  -0.37472  -0.36726  -0.35869  -0.35697
 Alpha  occ. eigenvalues --   -0.35587  -0.34942  -0.34682  -0.34270  -0.33998
 Alpha  occ. eigenvalues --   -0.33839  -0.33553  -0.33190  -0.32991  -0.32829
 Alpha  occ. eigenvalues --   -0.32468  -0.31897  -0.31796  -0.29702  -0.28525
 Alpha  occ. eigenvalues --   -0.28388  -0.28179  -0.26266  -0.25338  -0.24762
 Alpha  occ. eigenvalues --   -0.24391  -0.24333  -0.23971  -0.23454  -0.21150
 Alpha  occ. eigenvalues --   -0.17021
 Alpha virt. eigenvalues --   -0.10670  -0.06601  -0.04198  -0.03927  -0.01874
 Alpha virt. eigenvalues --    0.00901   0.01116   0.02133   0.03258   0.03768
 Alpha virt. eigenvalues --    0.03972   0.04915   0.05048   0.05976   0.06687

 Mulliken charges:
               1
     1  O   -0.213101
     2  O   -0.262356
     3  O   -0.187760
     4  O   -0.296616
     5  O   -0.215221
     6  O   -0.188415
     7  N   -0.004400
     8  N   -0.175462
     9  N   -0.044453
    10  N   -0.390673
    11  C   -0.207097
    12  C    0.020245
    13  C   -0.123264
    14  C    0.007315
    15  C   -0.097794
    16  C    0.155043
    17  C   -0.063524
    18  C   -0.150188
    19  C    0.169071
    20  C   -0.064364
    21  C    0.135225
    22  C    0.048447
    23  C   -0.021470
    24  C    0.010474
    25  C   -0.011688
    26  C    0.162689
    27  C    0.082775
    28  C    0.099380
    29  C    0.059961
    30  C    0.202690
    31  C   -0.082466
    32  C    0.107890
    33  C   -0.102456
    34  C    0.044508
    35  C   -0.045983
    36  C   -0.159185
    37  C    0.156095
    38  C    0.030737
    39  C    0.110505
    40  C    0.007953
    41  C    0.215306
    42  C    0.071735
    43  C   -0.025969
    44  H    0.069010
    45  H    0.031689
    46  H    0.018821
    47  H   -0.027085
    48  H    0.014325
    49  H    0.042975
    50  H    0.016769
    51  H   -0.011576
    52  H    0.161585
    53  H   -0.051211
    54  H   -0.041293
    55  H   -0.015563
    56  H    0.082999
    57  H    0.042548
    58  H    0.045417
    59  H    0.041083
    60  H    0.023506
    61  H    0.043990
    62  H   -0.002910
    63  H   -0.003244
    64  H   -0.013700
    65  H   -0.020309
    66  H    0.031341
    67  H    0.022381
    68  H   -0.056300
    69  H    0.078887
    70  H    0.016753
    71  H    0.052712
    72  H    0.011122
    73  H    0.033426
    74  H    0.016076
    75  H    0.028866
    76  H    0.061481
    77  H    0.033682
    78  H   -0.000893
    79  H    0.012309
    80  H    0.289223
    81  H    0.156964
 Sum of Mulliken charges =  -0.00000

 Dipole moment (field-independent basis, Debye):
    X=             -2.1148    Y=              1.8783    Z=             -1.1271  Tot=              3.0448
 Quadrupole moment (field-independent basis, Debye-Ang):
   XX=           -253.8468   YY=           -234.8737   ZZ=           -251.8605
   XY=             17.1012   XZ=             14.8575   YZ=            -13.4109

 Normal termination of Gaussian 16 at Wed Jul  3 07:18:31 2019.
