 Gaussian 16, Revision A.03,
 Gaussian 16:  ES64L-G16RevA.03 25-Dec-2016

 --------------------------
 # td=(NStates=1) B3LYP/SVP
 --------------------------

 --
 TD
 --
 Symbolic Z-matrix:
 Charge =  0 Multiplicity = 1

                         Standard orientation:
 ---------------------------------------------------------------------
 Center     Atomic      Atomic             Coordinates (Angstroms)
 Number     Number       Type             X           Y           Z
 ---------------------------------------------------------------------
      1          8           0       -4.216450   -4.842909    2.000552
      2          8           0        3.251139   -4.657760    1.127123
      3          8           0        7.060074   -1.290368    1.867186
      4          8           0        3.937671   -2.971633   -0.069911
      5          8           0        7.444866   -0.733263   -0.294473
      6          8           0       -3.100538    2.395798   -0.264503
      7          7           0       -0.226711   -0.524161   -0.571060
      8          7           0        1.487377    1.840031   -0.385632
      9          7           0       -3.216295   -3.169800    0.767118
     10          7           0       -0.839171    2.899048    0.104875
     11          6           0        0.700114   -2.439557   -1.398067
     12          6           0        1.009507   -1.126472   -1.030992
     13          6           0       -0.671281   -2.695710   -1.192135
     14          6           0       -1.187805   -1.422001   -0.681900
     15          6           0        3.755013    1.569221   -0.377576
     16          6           0        2.479468    0.909984   -0.662888
     17          6           0        2.239073   -0.409992   -0.883111
     18          6           0        3.470407    2.945616    0.082862
     19          6           0        1.724863   -3.306703   -1.931070
     20          6           0       -5.532334   -2.898421    1.265277
     21          6           0       -3.581523   -1.855037    0.220193
     22          6           0        2.014907    3.089284    0.023986
     23          6           0       -5.018844   -1.742981    0.430408
     24          6           0        5.054451    0.898709   -0.379195
     25          6           0       -2.543599   -1.071282   -0.337535
     26          6           0       -1.383612   -3.927683   -1.651958
     27          6           0       -4.305131   -3.770979    1.360829
     28          6           0        2.186666   -4.440613   -0.950748
     29          6           0        5.317728   -0.061449    0.741290
     30          6           0        4.497447    3.941781    0.709564
     31          6           0        1.203975    4.194413    0.260760
     32          6           0       -6.780611   -3.664958    0.772918
     33          6           0       -5.789375   -0.734603   -0.100097
     34          6           0       -0.196670    4.100357    0.327072
     35          6           0       -1.177280    5.241947    0.482205
     36          6           0       -2.441041    4.604461    0.380220
     37          6           0        3.192100   -3.931367    0.039547
     38          6           0       -5.392283    0.409638   -1.011563
     39          6           0        6.712252   -0.653067    0.714971
     40          6           0       -3.817391    5.291921    0.239044
     41          6           0       -2.202357    3.219364    0.061874
     42          6           0       -0.782837    6.614365    0.642778
     43          6           0       -4.559050    5.248066   -1.048594
     44          1           0       -0.564088    0.189986    0.220807
     45          1           0        3.165672   -0.975338   -0.940345
     46          1           0        2.640778   -2.869586   -1.979856
     47          1           0        1.313620   -3.855682   -2.808104
     48          1           0       -5.723359   -2.474422    2.352649
     49          1           0        5.329834    0.305214   -1.257428
     50          1           0        5.874000    1.763165   -0.653638
     51          1           0       -2.770645    0.024422   -0.370291
     52          1           0        0.346904    1.897592   -0.388222
     53          1           0       -1.224008   -4.595297   -0.714264
     54          1           0       -2.430701   -3.784651   -2.039338
     55          1           0       -0.770756   -4.454363   -2.298750
     56          1           0       -2.189592   -3.401727    0.777945
     57          1           0        1.537143   -5.031066   -0.266537
     58          1           0        2.643188   -5.288811   -1.458361
     59          1           0        4.772240   -0.963354    0.609239
     60          1           0        5.180484    0.519599    1.741253
     61          1           0        4.557091    4.994160    0.281038
     62          1           0        5.514850    3.615879    0.781524
     63          1           0        3.940459    4.059830    1.692626
     64          1           0        1.610676    5.345490    0.431750
     65          1           0       -7.672014   -2.838068    0.399062
     66          1           0       -7.308135   -4.331448    1.589958
     67          1           0       -6.409795   -4.096795   -0.098591
     68          1           0       -6.921506   -0.900244    0.306333
     69          1           0       -5.352292    1.408776   -0.465716
     70          1           0       -6.270134    0.352962   -2.075002
     71          1           0       -4.317314    0.169144   -1.470330
     72          1           0       -3.781080    6.260244    0.858750
     73          1           0       -4.446477    4.635667    0.964924
     74          1           0       -0.301575    6.838750    1.655956
     75          1           0       -1.728623    7.180821    0.539292
     76          1           0       -0.166378    7.091811   -0.428648
     77          1           0       -4.193090    6.065632   -1.690005
     78          1           0       -5.695938    5.545697   -1.065918
     79          1           0       -4.508227    4.212112   -1.380928
     80          1           0        3.842422   -4.247150    1.834482
     81          1           0        7.856181   -1.641211    1.767560
 ---------------------------------------------------------------------

 SCF Done:  E(RB3LYP) =  -1949.09438835     A.U. after   19 cycles

 Excitation energies and oscillator strengths:

 Excited State   1:      Singlet-A      1.7831 eV  695.34 nm  f=0.3439  <S**2>=0.000
     156 ->157         0.70836
     156 <-157        -0.11769
 This state for optimization and/or second-order correction.
 Total Energy, E(TD-HF/TD-DFT) =  -1949.02886197
 Copying the excited state density for this state as the 1-particle RhoCI density.

 The electronic state is 1-A.
 Alpha  occ. eigenvalues --  -19.20435 -19.17924 -19.14253 -19.12474 -19.09882
 Alpha  occ. eigenvalues --  -19.09576 -14.38277 -14.37365 -14.34709 -14.29088
 Alpha  occ. eigenvalues --  -10.33845 -10.32477 -10.29075 -10.25965 -10.25494
 Alpha  occ. eigenvalues --  -10.24132 -10.24099 -10.23852 -10.22896 -10.22607
 Alpha  occ. eigenvalues --  -10.22478 -10.22099 -10.21829 -10.21654 -10.21637
 Alpha  occ. eigenvalues --  -10.21358 -10.21235 -10.21176 -10.21078 -10.20970
 Alpha  occ. eigenvalues --  -10.20947 -10.20943 -10.20817 -10.20686 -10.20610
 Alpha  occ. eigenvalues --  -10.20473 -10.20435 -10.20266 -10.19988 -10.19731
 Alpha  occ. eigenvalues --  -10.19712 -10.19495 -10.18000  -1.12652  -1.10390
 Alpha  occ. eigenvalues --   -1.01852  -1.01229  -0.99413  -0.99084  -0.98510
 Alpha  occ. eigenvalues --   -0.94962  -0.93371  -0.90321  -0.84395  -0.81862
 Alpha  occ. eigenvalues --   -0.81731  -0.80615  -0.79308  -0.79198  -0.78116
 Alpha  occ. eigenvalues --   -0.76627  -0.76348  -0.75447  -0.73813  -0.73174
 Alpha  occ. eigenvalues --   -0.71420  -0.70100  -0.69239  -0.68926  -0.67774
 Alpha  occ. eigenvalues --   -0.67015  -0.65181  -0.63930  -0.62659  -0.61677
 Alpha  occ. eigenvalues --   -0.61351  -0.59928  -0.58158  -0.57919  -0.56907
 Alpha  occ. eigenvalues --   -0.56010  -0.54599  -0.54522  -0.53044  -0.51958
 Alpha  occ. eigenvalues --   -0.51915  -0.51389  -0.51038  -0.50612  -0.49754
 Alpha  occ. eigenvalues --   -0.49321  -0.48884  -0.48675  -0.48057  -0.47846
 Alpha  occ. eigenvalues --   -0.47415  -0.46830  -0.46036  -0.45256  -0.45079
 Alpha  occ. eigenvalues --   -0.44844  -0.44522  -0.43967  -0.43642  -0.43386
 Alpha  occ. eigenvalues --   -0.43073  -0.42976  -0.42362  -0.42193  -0.42038
 Alpha  occ. eigenvalues --   -0.41513  -0.41387  -0.41334  -0.41105  -0.40579
 Alpha  occ. eigenvalues --   -0.40442  -0.40291  -0.40106  -0.39562  -0.39413
 Alpha  occ. eigenvalues --   -0.39395  -0.39031  -0.38897  -0.38541  -0.38208
 Alpha  occ. eigenvalues --   -0.38043  -0.37492  -0.37133  -0.36637  -0.36463
 Alpha  occ. eigenvalues --   -0.36294  -0.36028  -0.35829  -0.35471  -0.35213
 Alpha  occ. eigenvalues --   -0.34091  -0.33624  -0.33369  -0.32657  -0.32285
 Alpha  occ. eigenvalues --   -0.32202  -0.31868  -0.30771  -0.30057  -0.29568
 Alpha  occ. eigenvalues --   -0.27778  -0.27629  -0.26358  -0.25896  -0.25295
 Alpha  occ. eigenvalues --   -0.24754  -0.24010  -0.23726  -0.22913  -0.21407
 Alpha  occ. eigenvalues --   -0.17880
 Alpha virt. eigenvalues --   -0.10735  -0.06811  -0.05024  -0.01834  -0.01019
 Alpha virt. eigenvalues --   -0.00351   0.01139   0.02183   0.02483   0.03087
 Alpha virt. eigenvalues --    0.03987   0.04251   0.04443   0.04594   0.04910

 Mulliken charges:
               1
     1  O   -0.254048
     2  O   -0.165550
     3  O   -0.129817
     4  O   -0.241164
     5  O   -0.266451
     6  O   -0.271910
     7  N   -0.118831
     8  N   -0.202861
     9  N   -0.159818
    10  N   -0.334460
    11  C   -0.068995
    12  C    0.112095
    13  C   -0.203420
    14  C    0.014998
    15  C   -0.063616
    16  C    0.120176
    17  C   -0.071726
    18  C   -0.114923
    19  C    0.188440
    20  C   -0.037835
    21  C    0.091474
    22  C    0.121185
    23  C   -0.047099
    24  C   -0.008741
    25  C   -0.159024
    26  C    0.156432
    27  C    0.131783
    28  C   -0.016784
    29  C    0.049356
    30  C    0.070640
    31  C   -0.147409
    32  C    0.011831
    33  C   -0.138294
    34  C    0.059663
    35  C   -0.082431
    36  C   -0.138517
    37  C    0.097546
    38  C   -0.032934
    39  C    0.121479
    40  C    0.033102
    41  C    0.163119
    42  C    0.003417
    43  C    0.016706
    44  H    0.207814
    45  H    0.000349
    46  H   -0.010517
    47  H    0.016715
    48  H    0.068675
    49  H    0.016069
    50  H    0.031518
    51  H    0.046865
    52  H    0.197340
    53  H    0.020223
    54  H    0.061101
    55  H   -0.032633
    56  H    0.150101
    57  H    0.027535
    58  H    0.040472
    59  H    0.042852
    60  H    0.044409
    61  H    0.030244
    62  H    0.018496
    63  H    0.038957
    64  H    0.024265
    65  H    0.032203
    66  H    0.066050
    67  H    0.014882
    68  H    0.021065
    69  H    0.092703
    70  H    0.034321
    71  H    0.067607
    72  H    0.003094
    73  H    0.008418
    74  H    0.059074
    75  H    0.015162
    76  H    0.056192
    77  H    0.004992
    78  H    0.011727
    79  H    0.045383
    80  H    0.213855
    81  H    0.125635
 Sum of Mulliken charges =  -0.00000

 Dipole moment (field-independent basis, Debye):
    X=              2.0977    Y=             -0.1282    Z=              1.1382  Tot=              2.3900
 Quadrupole moment (field-independent basis, Debye-Ang):
   XX=           -254.8048   YY=           -238.3252   ZZ=           -257.2190
   XY=            -14.7054   XZ=             19.2428   YZ=             15.1694

 Normal termination of Gaussian 16 at Tue Jul  2 19:10:48 2019.
