 Gaussian 16, Revision A.03,
 Gaussian 16:  ES64L-G16RevA.03 25-Dec-2016

 --------------------------
 # td=(NStates=1) B3LYP/SVP
 --------------------------

 --
 TD
 --
 Symbolic Z-matrix:
 Charge =  0 Multiplicity = 1

                         Standard orientation:
 ---------------------------------------------------------------------
 Center     Atomic      Atomic             Coordinates (Angstroms)
 Number     Number       Type             X           Y           Z
 ---------------------------------------------------------------------
      1          8           0        4.119246   -4.789390   -1.938527
      2          8           0       -2.979719   -4.783414   -1.213419
      3          8           0       -6.878462   -1.687044   -1.884515
      4          8           0       -3.667892   -2.991857    0.125708
      5          8           0       -7.493460   -0.759905    0.129616
      6          8           0        2.947727    2.341921    0.323798
      7          7           0        0.370175   -0.470699    0.662695
      8          7           0       -1.591075    1.923579    0.326452
      9          7           0        3.201760   -3.008322   -0.615071
     10          7           0        0.655257    2.890416    0.147530
     11          6           0       -0.586001   -2.292725    1.563568
     12          6           0       -0.909837   -1.014443    1.039403
     13          6           0        0.687309   -2.621866    1.355383
     14          6           0        1.338185   -1.325897    0.834610
     15          6           0       -3.771135    1.495549    0.237750
     16          6           0       -2.507279    0.866776    0.563710
     17          6           0       -2.191167   -0.474144    0.913775
     18          6           0       -3.579458    2.812772   -0.082907
     19          6           0       -1.539172   -3.386641    1.975458
     20          6           0        5.538132   -2.740237   -1.382690
     21          6           0        3.617753   -1.840645   -0.164421
     22          6           0       -2.194713    3.075463   -0.036038
     23          6           0        5.019731   -1.556477   -0.480442
     24          6           0       -5.083092    0.640396    0.287664
     25          6           0        2.654022   -1.007940    0.492912
     26          6           0        1.466160   -3.852524    1.687582
     27          6           0        4.313517   -3.714030   -1.341087
     28          6           0       -1.921084   -4.424988    0.848761
     29          6           0       -5.347477   -0.145198   -0.853483
     30          6           0       -4.623649    3.825697   -0.359843
     31          6           0       -1.355022    4.149878   -0.224698
     32          6           0        6.787247   -3.538162   -0.783784
     33          6           0        5.777232   -0.497644   -0.099024
     34          6           0        0.035437    4.104034   -0.223604
     35          6           0        1.016629    5.134106   -0.558502
     36          6           0        2.260709    4.558729   -0.234878
     37          6           0       -3.020821   -3.978779   -0.094174
     38          6           0        5.595723    0.666497    0.754560
     39          6           0       -6.692802   -0.890081   -0.778280
     40          6           0        3.715539    5.121563   -0.436307
     41          6           0        2.086330    3.183878   -0.019779
     42          6           0        0.588982    6.506870   -0.856943
     43          6           0        4.258223    5.582762    1.001592
     44          1           0        0.368148    0.562887    0.320798
     45          1           0       -3.077914   -1.085248    1.038936
     46          1           0       -2.511861   -2.994922    2.385144
     47          1           0       -1.090389   -3.890444    2.824555
     48          1           0        5.950350   -2.422550   -2.417299
     49          1           0       -4.978323    0.025131    1.266901
     50          1           0       -5.881512    1.354490    0.609030
     51          1           0        2.959393    0.035974    0.779892
     52          1           0       -0.601649    2.126694    0.468255
     53          1           0        1.511064   -4.718906    0.819015
     54          1           0        2.646981   -3.846168    1.847843
     55          1           0        1.084529   -4.390707    2.496861
     56          1           0        2.165450   -3.309051   -0.667020
     57          1           0       -0.993789   -4.727873    0.257721
     58          1           0       -2.385694   -5.280410    1.386869
     59          1           0       -4.689066   -1.042685   -0.982846
     60          1           0       -5.285971    0.483086   -1.783300
     61          1           0       -4.731404    4.669668    0.329825
     62          1           0       -5.699733    3.668313   -0.223873
     63          1           0       -4.433887    4.167029   -1.388328
     64          1           0       -1.738063    5.034858   -0.778230
     65          1           0        7.626181   -2.796398   -0.681786
     66          1           0        7.100862   -4.484248   -1.418277
     67          1           0        6.426639   -3.708182    0.355456
     68          1           0        6.788260   -0.613000   -0.579602
     69          1           0        4.894864    1.471017    0.169501
     70          1           0        6.572311    1.071638    0.991551
     71          1           0        5.189426    0.382074    1.771816
     72          1           0        3.471168    5.874155   -0.997461
     73          1           0        4.218139    4.281455   -0.836204
     74          1           0       -0.284038    6.504897   -1.795668
     75          1           0        1.535202    6.967957   -1.458931
     76          1           0        0.401382    7.193382    0.106003
     77          1           0        3.928663    6.472093    1.455753
     78          1           0        5.332552    5.670827    0.788482
     79          1           0        4.108941    4.855020    1.681996
     80          1           0       -3.665610   -4.216069   -1.825013
     81          1           0       -7.668839   -1.868389   -1.585964
 ---------------------------------------------------------------------

 SCF Done:  E(RB3LYP) =  -1949.08199063     A.U. after   19 cycles

 Excitation energies and oscillator strengths:

 Excited State   1:      Singlet-A      1.6628 eV  745.64 nm  f=0.2895  <S**2>=0.000
     156 ->157         0.70518
     156 <-157        -0.12615
 This state for optimization and/or second-order correction.
 Total Energy, E(TD-HF/TD-DFT) =  -1949.02088441
 Copying the excited state density for this state as the 1-particle RhoCI density.

 The electronic state is 1-A.
 Alpha  occ. eigenvalues --  -19.21136 -19.18391 -19.15841 -19.13918 -19.13482
 Alpha  occ. eigenvalues --  -19.09257 -14.38533 -14.38252 -14.33019 -14.27201
 Alpha  occ. eigenvalues --  -10.34130 -10.32587 -10.31837 -10.25102 -10.24979
 Alpha  occ. eigenvalues --  -10.24543 -10.23686 -10.22882 -10.22441 -10.22159
 Alpha  occ. eigenvalues --  -10.22155 -10.22147 -10.21692 -10.21530 -10.21287
 Alpha  occ. eigenvalues --  -10.21284 -10.21101 -10.20941 -10.20889 -10.20167
 Alpha  occ. eigenvalues --  -10.20084 -10.19873 -10.19671 -10.19531 -10.19194
 Alpha  occ. eigenvalues --  -10.19065 -10.18580 -10.18559 -10.18280 -10.18205
 Alpha  occ. eigenvalues --  -10.17730 -10.17686 -10.16514  -1.12592  -1.10645
 Alpha  occ. eigenvalues --   -1.03158  -1.03057  -1.02155  -0.98810  -0.98621
 Alpha  occ. eigenvalues --   -0.96569  -0.96059  -0.88637  -0.83038  -0.81854
 Alpha  occ. eigenvalues --   -0.81737  -0.80292  -0.78823  -0.77911  -0.77310
 Alpha  occ. eigenvalues --   -0.77103  -0.76188  -0.74822  -0.73842  -0.71897
 Alpha  occ. eigenvalues --   -0.70614  -0.69879  -0.68772  -0.67951  -0.67011
 Alpha  occ. eigenvalues --   -0.66889  -0.64915  -0.64374  -0.62927  -0.61588
 Alpha  occ. eigenvalues --   -0.59164  -0.58455  -0.58356  -0.57495  -0.57294
 Alpha  occ. eigenvalues --   -0.55261  -0.54764  -0.54129  -0.53520  -0.52803
 Alpha  occ. eigenvalues --   -0.52047  -0.51362  -0.50776  -0.50656  -0.50051
 Alpha  occ. eigenvalues --   -0.49593  -0.49381  -0.49015  -0.48476  -0.47896
 Alpha  occ. eigenvalues --   -0.46888  -0.46680  -0.45676  -0.45302  -0.44822
 Alpha  occ. eigenvalues --   -0.44747  -0.44616  -0.44229  -0.44069  -0.43911
 Alpha  occ. eigenvalues --   -0.43381  -0.43027  -0.42879  -0.42768  -0.42117
 Alpha  occ. eigenvalues --   -0.41825  -0.41644  -0.41603  -0.41319  -0.41199
 Alpha  occ. eigenvalues --   -0.40781  -0.40652  -0.40394  -0.40060  -0.39824
 Alpha  occ. eigenvalues --   -0.39553  -0.38728  -0.38515  -0.38249  -0.37763
 Alpha  occ. eigenvalues --   -0.37677  -0.36944  -0.36908  -0.36306  -0.36212
 Alpha  occ. eigenvalues --   -0.35893  -0.35798  -0.35379  -0.35120  -0.34885
 Alpha  occ. eigenvalues --   -0.34801  -0.34651  -0.34129  -0.33591  -0.33374
 Alpha  occ. eigenvalues --   -0.32900  -0.32121  -0.31427  -0.30490  -0.29567
 Alpha  occ. eigenvalues --   -0.28805  -0.27528  -0.26878  -0.26544  -0.26373
 Alpha  occ. eigenvalues --   -0.24678  -0.23890  -0.23170  -0.21953  -0.20478
 Alpha  occ. eigenvalues --   -0.16775
 Alpha virt. eigenvalues --   -0.09986  -0.06302  -0.04125  -0.03608  -0.02065
 Alpha virt. eigenvalues --   -0.00229   0.01164   0.01988   0.02978   0.03840
 Alpha virt. eigenvalues --    0.03992   0.04856   0.05385   0.05750   0.06356

 Mulliken charges:
               1
     1  O   -0.216336
     2  O   -0.237727
     3  O   -0.116430
     4  O   -0.202288
     5  O   -0.229059
     6  O   -0.267641
     7  N   -0.065616
     8  N   -0.100502
     9  N   -0.159779
    10  N   -0.407394
    11  C   -0.081331
    12  C    0.104484
    13  C   -0.118826
    14  C    0.068510
    15  C   -0.112739
    16  C    0.052280
    17  C   -0.040766
    18  C   -0.071799
    19  C    0.098967
    20  C   -0.101938
    21  C    0.067251
    22  C    0.048007
    23  C   -0.020234
    24  C    0.072261
    25  C   -0.157315
    26  C    0.014990
    27  C    0.211878
    28  C   -0.006691
    29  C    0.044963
    30  C    0.067129
    31  C   -0.072216
    32  C   -0.034621
    33  C   -0.156645
    34  C    0.050597
    35  C   -0.056562
    36  C   -0.221647
    37  C    0.155137
    38  C    0.056822
    39  C    0.130337
    40  C    0.207660
    41  C    0.199506
    42  C   -0.046726
    43  C    0.051261
    44  H    0.179600
    45  H    0.007026
    46  H    0.009879
    47  H   -0.001152
    48  H    0.070256
    49  H    0.020798
    50  H    0.009691
    51  H    0.039008
    52  H    0.114041
    53  H    0.022508
    54  H    0.051569
    55  H   -0.002820
    56  H    0.178352
    57  H    0.053603
    58  H    0.045042
    59  H    0.034947
    60  H    0.042130
    61  H    0.011811
    62  H   -0.004296
    63  H    0.022253
    64  H   -0.027409
    65  H    0.028754
    66  H    0.073894
    67  H    0.035500
    68  H   -0.002237
    69  H    0.122625
    70  H    0.002845
    71  H    0.039507
    72  H   -0.061651
    73  H    0.007134
    74  H    0.055868
    75  H    0.031370
    76  H    0.078436
    77  H   -0.000017
    78  H    0.001780
    79  H   -0.005431
    80  H    0.224808
    81  H    0.090763
 Sum of Mulliken charges =  -0.00000

 Dipole moment (field-independent basis, Debye):
    X=              0.3224    Y=             -0.9819    Z=             -0.9627  Tot=              1.4124
 Quadrupole moment (field-independent basis, Debye-Ang):
   XX=           -241.8982   YY=           -243.7944   ZZ=           -254.8003
   XY=              7.4690   XZ=             10.3723   YZ=            -12.9207

 Normal termination of Gaussian 16 at Tue Jul  2 16:12:24 2019.
