 Gaussian 16, Revision A.03,
 Gaussian 16:  ES64L-G16RevA.03 25-Dec-2016

 --------------------------
 # td=(NStates=1) B3LYP/SVP
 --------------------------

 --
 TD
 --
 Symbolic Z-matrix:
 Charge =  0 Multiplicity = 1

                         Standard orientation:
 ---------------------------------------------------------------------
 Center     Atomic      Atomic             Coordinates (Angstroms)
 Number     Number       Type             X           Y           Z
 ---------------------------------------------------------------------
      1          8           0        4.117112   -4.900673   -2.014241
      2          8           0       -3.013953   -4.761550   -1.142740
      3          8           0       -6.862999   -1.490443   -1.905415
      4          8           0       -3.966692   -3.183709    0.207993
      5          8           0       -7.381746   -0.692556    0.156715
      6          8           0        3.135676    2.391713    0.374687
      7          7           0        0.174530   -0.546171    0.488091
      8          7           0       -1.554269    1.812154    0.441753
      9          7           0        3.196100   -3.146766   -0.827819
     10          7           0        0.875355    2.939905    0.106161
     11          6           0       -0.738122   -2.397184    1.351108
     12          6           0       -0.983837   -1.083108    0.871100
     13          6           0        0.619174   -2.577899    1.328133
     14          6           0        1.185128   -1.493707    0.674495
     15          6           0       -3.758798    1.633637    0.309104
     16          6           0       -2.533684    0.836711    0.638808
     17          6           0       -2.234472   -0.483803    0.877861
     18          6           0       -3.447561    2.911843   -0.048303
     19          6           0       -1.695026   -3.212727    2.055380
     20          6           0        5.507076   -2.930505   -1.327076
     21          6           0        3.524932   -1.953605   -0.176290
     22          6           0       -2.026746    3.129811    0.001844
     23          6           0        4.922894   -1.710360   -0.525091
     24          6           0       -5.013288    0.933020    0.270580
     25          6           0        2.543127   -1.111665    0.411088
     26          6           0        1.386119   -3.752255    1.936847
     27          6           0        4.243933   -3.789059   -1.415862
     28          6           0       -2.077251   -4.429332    1.031370
     29          6           0       -5.403225    0.105347   -0.902002
     30          6           0       -4.381821    3.901061   -0.650315
     31          6           0       -1.153945    4.160394   -0.381792
     32          6           0        6.853280   -3.637044   -0.834995
     33          6           0        5.763729   -0.761710   -0.028124
     34          6           0        0.226530    3.993948   -0.236738
     35          6           0        1.185018    5.148280   -0.468002
     36          6           0        2.463339    4.674697   -0.249704
     37          6           0       -3.093379   -4.021252    0.080625
     38          6           0        5.439669    0.334701    0.829234
     39          6           0       -6.726436   -0.635495   -0.812667
     40          6           0        3.781970    5.360835   -0.282585
     41          6           0        2.274022    3.248755    0.057311
     42          6           0        0.686016    6.483062   -0.950965
     43          6           0        4.257901    5.647137    1.247662
     44          1           0        0.356957    0.348413    0.096933
     45          1           0       -3.148390   -1.175145    0.960718
     46          1           0       -2.639852   -2.687509    2.339026
     47          1           0       -1.459183   -3.666863    3.156699
     48          1           0        5.928898   -2.654903   -2.302505
     49          1           0       -5.173497    0.142531    1.163638
     50          1           0       -5.946736    1.681038    0.534367
     51          1           0        2.626484    0.057449    0.336252
     52          1           0       -0.590942    1.886855    0.710750
     53          1           0        1.496760   -4.487384    1.190180
     54          1           0        2.358322   -3.554872    2.239092
     55          1           0        0.929004   -4.284262    2.797449
     56          1           0        2.262935   -3.339393   -1.172547
     57          1           0       -1.225973   -4.783465    0.441468
     58          1           0       -2.544120   -5.353034    1.591199
     59          1           0       -4.671478   -0.610588   -0.885683
     60          1           0       -5.240866    0.750573   -1.875040
     61          1           0       -4.242645    5.013376   -0.524643
     62          1           0       -5.421319    3.788198   -0.126084
     63          1           0       -4.668955    3.713703   -1.981960
     64          1           0       -1.683589    5.097994   -0.713866
     65          1           0        7.549715   -2.855550   -0.691125
     66          1           0        7.078120   -4.393537   -1.562621
     67          1           0        6.368968   -4.190833   -0.032599
     68          1           0        6.688045   -0.833035   -0.571868
     69          1           0        4.909823    1.220543    0.481178
     70          1           0        6.485762    0.801120    1.158935
     71          1           0        4.957691    0.253703    1.650913
     72          1           0        3.792298    6.496838   -0.699370
     73          1           0        4.650200    4.918733   -0.787478
     74          1           0        0.198260    6.440399   -1.953879
     75          1           0        1.581200    7.145703   -1.110456
     76          1           0        0.117147    6.960449   -0.189343
     77          1           0        3.573989    6.383525    1.737395
     78          1           0        5.357923    5.891698    1.381236
     79          1           0        4.194765    4.615212    1.678099
     80          1           0       -3.701409   -4.418674   -1.698697
     81          1           0       -7.743106   -1.770295   -1.731287
 ---------------------------------------------------------------------

 SCF Done:  E(RB3LYP) =  -1949.12888816     A.U. after   16 cycles

 Excitation energies and oscillator strengths:

 Excited State   1:      Singlet-A      1.6652 eV  744.56 nm  f=0.3414  <S**2>=0.000
     156 ->157         0.71110
     156 <-157        -0.13118
 This state for optimization and/or second-order correction.
 Total Energy, E(TD-HF/TD-DFT) =  -1949.06769276
 Copying the excited state density for this state as the 1-particle RhoCI density.

 The electronic state is 1-A.
 Alpha  occ. eigenvalues --  -19.17824 -19.17607 -19.14661 -19.14257 -19.11445
 Alpha  occ. eigenvalues --  -19.10490 -14.37825 -14.37792 -14.35476 -14.29256
 Alpha  occ. eigenvalues --  -10.33446 -10.32468 -10.29329 -10.27657 -10.25366
 Alpha  occ. eigenvalues --  -10.24599 -10.23869 -10.23341 -10.23144 -10.22749
 Alpha  occ. eigenvalues --  -10.22736 -10.22667 -10.22404 -10.21385 -10.21095
 Alpha  occ. eigenvalues --  -10.21049 -10.20981 -10.20817 -10.20700 -10.20610
 Alpha  occ. eigenvalues --  -10.20295 -10.20236 -10.20150 -10.19854 -10.19817
 Alpha  occ. eigenvalues --  -10.19808 -10.19756 -10.19541 -10.19412 -10.19122
 Alpha  occ. eigenvalues --  -10.18819 -10.18737 -10.16474  -1.10863  -1.08852
 Alpha  occ. eigenvalues --   -1.02692  -1.01715  -1.00731  -1.00702  -0.99908
 Alpha  occ. eigenvalues --   -0.95843  -0.94702  -0.92706  -0.83433  -0.82595
 Alpha  occ. eigenvalues --   -0.81919  -0.81734  -0.79850  -0.79269  -0.78193
 Alpha  occ. eigenvalues --   -0.77519  -0.77017  -0.75491  -0.74383  -0.72788
 Alpha  occ. eigenvalues --   -0.71338  -0.70676  -0.69696  -0.69193  -0.68047
 Alpha  occ. eigenvalues --   -0.66988  -0.65727  -0.65236  -0.62844  -0.61217
 Alpha  occ. eigenvalues --   -0.59776  -0.59320  -0.59093  -0.58349  -0.57662
 Alpha  occ. eigenvalues --   -0.56133  -0.55705  -0.54498  -0.54193  -0.53273
 Alpha  occ. eigenvalues --   -0.52815  -0.52292  -0.51268  -0.50592  -0.49792
 Alpha  occ. eigenvalues --   -0.49589  -0.49220  -0.49156  -0.48446  -0.48210
 Alpha  occ. eigenvalues --   -0.47710  -0.47117  -0.46486  -0.45970  -0.45314
 Alpha  occ. eigenvalues --   -0.45065  -0.44817  -0.44322  -0.44110  -0.43923
 Alpha  occ. eigenvalues --   -0.43676  -0.43479  -0.42881  -0.42650  -0.42488
 Alpha  occ. eigenvalues --   -0.42229  -0.42136  -0.41644  -0.41396  -0.41069
 Alpha  occ. eigenvalues --   -0.40894  -0.40693  -0.40542  -0.40160  -0.39526
 Alpha  occ. eigenvalues --   -0.39423  -0.39110  -0.38941  -0.38592  -0.38209
 Alpha  occ. eigenvalues --   -0.38138  -0.38013  -0.37600  -0.36934  -0.36758
 Alpha  occ. eigenvalues --   -0.36114  -0.35634  -0.35409  -0.35228  -0.34972
 Alpha  occ. eigenvalues --   -0.34185  -0.33910  -0.33636  -0.33525  -0.33000
 Alpha  occ. eigenvalues --   -0.32669  -0.32340  -0.31983  -0.30271  -0.29695
 Alpha  occ. eigenvalues --   -0.29443  -0.27469  -0.26697  -0.26084  -0.25392
 Alpha  occ. eigenvalues --   -0.25322  -0.25243  -0.25167  -0.23834  -0.21881
 Alpha  occ. eigenvalues --   -0.17619
 Alpha virt. eigenvalues --   -0.11031  -0.06867  -0.04994  -0.02493  -0.01738
 Alpha virt. eigenvalues --   -0.00460   0.01085   0.01642   0.03063   0.04408
 Alpha virt. eigenvalues --    0.04671   0.05438   0.05530   0.05913   0.06329

 Mulliken charges:
               1
     1  O   -0.266849
     2  O   -0.231019
     3  O   -0.189672
     4  O   -0.223694
     5  O   -0.170543
     6  O   -0.235654
     7  N   -0.019372
     8  N   -0.189778
     9  N   -0.089530
    10  N   -0.262202
    11  C   -0.060228
    12  C    0.096059
    13  C   -0.143514
    14  C    0.025908
    15  C    0.022526
    16  C    0.085563
    17  C   -0.110697
    18  C   -0.065699
    19  C    0.005407
    20  C   -0.114813
    21  C    0.098304
    22  C    0.082344
    23  C   -0.045131
    24  C   -0.085269
    25  C   -0.147617
    26  C    0.167487
    27  C    0.126826
    28  C    0.018392
    29  C    0.052913
    30  C   -0.039055
    31  C   -0.124592
    32  C    0.090719
    33  C   -0.082835
    34  C    0.104693
    35  C   -0.151874
    36  C   -0.093115
    37  C    0.132398
    38  C    0.135790
    39  C    0.142172
    40  C    0.001085
    41  C    0.170541
    42  C    0.129157
    43  C   -0.054440
    44  H    0.115678
    45  H    0.049482
    46  H    0.025737
    47  H    0.041035
    48  H    0.038584
    49  H    0.037467
    50  H    0.025090
    51  H    0.070900
    52  H    0.123696
    53  H   -0.002394
    54  H   -0.004239
    55  H    0.007614
    56  H    0.142929
    57  H    0.043155
    58  H    0.071494
    59  H    0.003896
    60  H    0.042606
    61  H    0.033875
    62  H    0.029245
    63  H    0.045412
    64  H   -0.005191
    65  H    0.021871
    66  H    0.027100
    67  H    0.018504
    68  H   -0.010752
    69  H    0.054267
    70  H   -0.003211
    71  H   -0.038762
    72  H    0.016709
    73  H    0.022501
    74  H    0.040217
    75  H    0.005705
    76  H    0.019710
    77  H    0.028370
    78  H    0.021141
    79  H    0.029128
    80  H    0.171122
    81  H    0.149217
 Sum of Mulliken charges =  -0.00000

 Dipole moment (field-independent basis, Debye):
    X=             -1.6835    Y=              2.1269    Z=             -0.3265  Tot=              2.7321
 Quadrupole moment (field-independent basis, Debye-Ang):
   XX=           -246.7895   YY=           -244.9729   ZZ=           -256.3963
   XY=             10.2822   XZ=             10.9945   YZ=            -17.3641

 Normal termination of Gaussian 16 at Sat Jun 29 01:49:52 2019.
