 Gaussian 16, Revision A.03,
 Gaussian 16:  ES64L-G16RevA.03 25-Dec-2016

 --------------------------
 # td=(NStates=1) B3LYP/SVP
 --------------------------

 --
 TD
 --
 Symbolic Z-matrix:
 Charge =  0 Multiplicity = 1

                         Standard orientation:
 ---------------------------------------------------------------------
 Center     Atomic      Atomic             Coordinates (Angstroms)
 Number     Number       Type             X           Y           Z
 ---------------------------------------------------------------------
      1          8           0        4.063528   -4.936924   -1.881602
      2          8           0       -3.108984   -4.856424   -0.978868
      3          8           0       -6.874453   -1.541889   -1.899027
      4          8           0       -3.716983   -2.900373    0.006364
      5          8           0       -7.403228   -0.537239    0.019136
      6          8           0        3.115991    2.470213    0.442337
      7          7           0        0.265778   -0.522843    0.621927
      8          7           0       -1.423355    1.821063    0.305352
      9          7           0        3.162926   -3.322414   -0.590194
     10          7           0        0.810096    2.935899    0.186998
     11          6           0       -0.701627   -2.398978    1.590766
     12          6           0       -0.959705   -1.104719    1.022031
     13          6           0        0.725915   -2.649952    1.354516
     14          6           0        1.217833   -1.426382    0.705406
     15          6           0       -3.804710    1.606591    0.236007
     16          6           0       -2.400928    0.995481    0.500504
     17          6           0       -2.240097   -0.310329    0.973025
     18          6           0       -3.478492    2.854121   -0.219784
     19          6           0       -1.773344   -3.277070    2.113322
     20          6           0        5.293537   -2.907732   -1.487782
     21          6           0        3.523325   -2.022122   -0.070424
     22          6           0       -1.945261    3.081362   -0.182511
     23          6           0        4.976115   -1.759900   -0.697192
     24          6           0       -5.056687    0.896947    0.283614
     25          6           0        2.579660   -1.109598    0.377835
     26          6           0        1.425977   -3.857861    1.778039
     27          6           0        4.164536   -3.864801   -1.334825
     28          6           0       -2.292981   -4.413737    1.280622
     29          6           0       -5.262396    0.041338   -0.961742
     30          6           0       -4.373680    4.008145   -0.646897
     31          6           0       -1.169292    4.150865   -0.396668
     32          6           0        6.589530   -3.734400   -1.212252
     33          6           0        5.812606   -0.814081   -0.178120
     34          6           0        0.258981    4.111867   -0.204853
     35          6           0        1.166176    5.236169   -0.458427
     36          6           0        2.428322    4.743615   -0.286662
     37          6           0       -3.138832   -3.922846    0.085046
     38          6           0        5.409633    0.296598    0.720690
     39          6           0       -6.648773   -0.674078   -0.922616
     40          6           0        3.799862    5.364558   -0.237606
     41          6           0        2.228102    3.256407    0.175128
     42          6           0        0.743022    6.563574   -0.831258
     43          6           0        4.368153    5.628607    1.213938
     44          1           0        0.202636    0.369000    0.272430
     45          1           0       -3.099504   -1.049563    1.098551
     46          1           0       -2.700724   -2.817502    2.597226
     47          1           0       -1.477440   -3.850477    3.036464
     48          1           0        5.297613   -2.601593   -2.595589
     49          1           0       -5.049520    0.194465    1.256686
     50          1           0       -6.067438    1.566677    0.517828
     51          1           0        2.867593   -0.102776    0.574586
     52          1           0       -0.298804    2.016898    0.392354
     53          1           0        1.812438   -4.792592    1.181331
     54          1           0        2.531044   -3.445236    2.092429
     55          1           0        0.736961   -4.148688    2.516293
     56          1           0        2.214121   -3.635863   -0.415545
     57          1           0       -1.445037   -5.098729    0.770114
     58          1           0       -2.704544   -5.231242    1.878537
     59          1           0       -4.468329   -0.727121   -0.967330
     60          1           0       -5.301564    0.434868   -1.866673
     61          1           0       -4.145134    4.915408   -0.208794
     62          1           0       -5.479995    3.674407   -0.595985
     63          1           0       -4.015394    4.228172   -1.862847
     64          1           0       -1.906842    4.861222   -0.748023
     65          1           0        7.550102   -2.915662   -1.183710
     66          1           0        6.677435   -4.418939   -2.023411
     67          1           0        6.469000   -4.378728   -0.154501
     68          1           0        6.868306   -0.622426   -0.421540
     69          1           0        4.829698    0.973824    0.248983
     70          1           0        6.195942    0.600122    1.290644
     71          1           0        4.816769    0.247601    1.456740
     72          1           0        3.781795    6.218490   -0.710172
     73          1           0        4.469963    4.622601   -0.646014
     74          1           0        0.344145    6.451113   -1.756325
     75          1           0        1.523291    7.242070   -0.647829
     76          1           0        0.052440    6.957102    0.103652
     77          1           0        3.778268    6.385552    1.797502
     78          1           0        5.445970    6.010379    1.079233
     79          1           0        4.304572    4.811822    2.027688
     80          1           0       -3.905360   -4.622311   -1.616201
     81          1           0       -7.806433   -1.809139   -1.589308
 ---------------------------------------------------------------------

 SCF Done:  E(RB3LYP) =  -1949.03413657     A.U. after   16 cycles

 Excitation energies and oscillator strengths:

 Excited State   1:      Singlet-A      1.7128 eV  723.88 nm  f=0.3101  <S**2>=0.000
     156 ->157         0.70934
     156 <-157        -0.13007
 This state for optimization and/or second-order correction.
 Total Energy, E(TD-HF/TD-DFT) =  -1948.97119353
 Copying the excited state density for this state as the 1-particle RhoCI density.

 The electronic state is 1-A.
 Alpha  occ. eigenvalues --  -19.19663 -19.18156 -19.15097 -19.12651 -19.12158
 Alpha  occ. eigenvalues --  -19.09286 -14.37212 -14.36032 -14.34742 -14.31636
 Alpha  occ. eigenvalues --  -10.33276 -10.31953 -10.28619 -10.27779 -10.24583
 Alpha  occ. eigenvalues --  -10.24400 -10.23767 -10.23390 -10.23123 -10.22705
 Alpha  occ. eigenvalues --  -10.22330 -10.21810 -10.21580 -10.21309 -10.20973
 Alpha  occ. eigenvalues --  -10.20859 -10.20765 -10.20602 -10.20562 -10.20317
 Alpha  occ. eigenvalues --  -10.20314 -10.20071 -10.20012 -10.20005 -10.20003
 Alpha  occ. eigenvalues --  -10.19955 -10.19847 -10.19780 -10.19544 -10.19159
 Alpha  occ. eigenvalues --  -10.19124 -10.18517 -10.13716  -1.11226  -1.09875
 Alpha  occ. eigenvalues --   -1.02942  -1.02901  -1.00699  -1.00660  -0.98657
 Alpha  occ. eigenvalues --   -0.96750  -0.93479  -0.92560  -0.82335  -0.82106
 Alpha  occ. eigenvalues --   -0.81551  -0.81504  -0.80524  -0.78987  -0.77457
 Alpha  occ. eigenvalues --   -0.77110  -0.76693  -0.76232  -0.73958  -0.71733
 Alpha  occ. eigenvalues --   -0.70906  -0.70178  -0.69338  -0.68005  -0.66820
 Alpha  occ. eigenvalues --   -0.66529  -0.65311  -0.65054  -0.62673  -0.61365
 Alpha  occ. eigenvalues --   -0.59836  -0.59139  -0.58188  -0.57770  -0.57404
 Alpha  occ. eigenvalues --   -0.55236  -0.55041  -0.54252  -0.54113  -0.53520
 Alpha  occ. eigenvalues --   -0.52582  -0.51886  -0.51160  -0.49945  -0.49875
 Alpha  occ. eigenvalues --   -0.49209  -0.49127  -0.48670  -0.48271  -0.47802
 Alpha  occ. eigenvalues --   -0.47594  -0.47126  -0.46942  -0.46387  -0.45841
 Alpha  occ. eigenvalues --   -0.45248  -0.44937  -0.44340  -0.44182  -0.43928
 Alpha  occ. eigenvalues --   -0.43677  -0.43299  -0.42885  -0.42708  -0.42462
 Alpha  occ. eigenvalues --   -0.42119  -0.41819  -0.41523  -0.41280  -0.41059
 Alpha  occ. eigenvalues --   -0.40648  -0.40336  -0.40056  -0.39669  -0.39445
 Alpha  occ. eigenvalues --   -0.38835  -0.38700  -0.38425  -0.38338  -0.37916
 Alpha  occ. eigenvalues --   -0.37576  -0.37235  -0.36860  -0.36554  -0.35981
 Alpha  occ. eigenvalues --   -0.35682  -0.35439  -0.35258  -0.34827  -0.34709
 Alpha  occ. eigenvalues --   -0.34133  -0.34027  -0.33961  -0.33231  -0.33211
 Alpha  occ. eigenvalues --   -0.33090  -0.32717  -0.32548  -0.30367  -0.29804
 Alpha  occ. eigenvalues --   -0.29065  -0.28317  -0.26095  -0.25634  -0.25381
 Alpha  occ. eigenvalues --   -0.25107  -0.24567  -0.24271  -0.23771  -0.21573
 Alpha  occ. eigenvalues --   -0.17061
 Alpha virt. eigenvalues --   -0.10407  -0.05139  -0.03369  -0.01325   0.00540
 Alpha virt. eigenvalues --    0.00705   0.02291   0.02503   0.03030   0.03595
 Alpha virt. eigenvalues --    0.04385   0.04517   0.04648   0.04959   0.05860

 Mulliken charges:
               1
     1  O   -0.211460
     2  O   -0.274092
     3  O   -0.174413
     4  O   -0.168406
     5  O   -0.250389
     6  O   -0.185309
     7  N    0.023948
     8  N   -0.163977
     9  N   -0.126478
    10  N   -0.331656
    11  C   -0.027523
    12  C   -0.051401
    13  C   -0.130729
    14  C    0.068689
    15  C   -0.020829
    16  C    0.084580
    17  C   -0.067423
    18  C   -0.095569
    19  C    0.043578
    20  C   -0.034075
    21  C    0.056513
    22  C    0.004435
    23  C    0.018737
    24  C   -0.034993
    25  C   -0.080455
    26  C   -0.024183
    27  C    0.081666
    28  C   -0.050776
    29  C    0.087740
    30  C    0.046718
    31  C   -0.078664
    32  C   -0.008073
    33  C   -0.157274
    34  C    0.143198
    35  C   -0.129337
    36  C   -0.218291
    37  C    0.172087
    38  C    0.198657
    39  C    0.113110
    40  C    0.206814
    41  C    0.190287
    42  C    0.175621
    43  C   -0.070248
    44  H    0.074624
    45  H    0.034940
    46  H    0.026683
    47  H   -0.000680
    48  H    0.053345
    49  H    0.046586
    50  H    0.050501
    51  H   -0.004037
    52  H    0.210395
    53  H    0.053868
    54  H    0.045832
    55  H    0.010888
    56  H    0.137134
    57  H    0.048610
    58  H    0.040276
    59  H    0.052776
    60  H   -0.019902
    61  H    0.020415
    62  H    0.041428
    63  H    0.032628
    64  H   -0.055164
    65  H    0.039636
    66  H    0.033115
    67  H    0.044147
    68  H    0.000798
    69  H    0.020672
    70  H   -0.028755
    71  H   -0.063573
    72  H   -0.046970
    73  H    0.014354
    74  H    0.024222
    75  H   -0.003917
    76  H    0.034130
    77  H    0.005610
    78  H    0.032751
    79  H    0.038796
    80  H    0.214448
    81  H    0.189038
 Sum of Mulliken charges =  -0.00000

 Dipole moment (field-independent basis, Debye):
    X=             -2.9257    Y=              3.2383    Z=             -0.2707  Tot=              4.3726
 Quadrupole moment (field-independent basis, Debye-Ang):
   XX=           -247.0685   YY=           -236.2344   ZZ=           -255.2028
   XY=             24.6973   XZ=             13.0970   YZ=            -16.6144

 Normal termination of Gaussian 16 at Sat Jun 29 09:00:37 2019.
