 Gaussian 16, Revision A.03,
 Gaussian 16:  ES64L-G16RevA.03 25-Dec-2016

 --------------------------
 # td=(NStates=1) B3LYP/SVP
 --------------------------

 --
 TD
 --
 Symbolic Z-matrix:
 Charge =  0 Multiplicity = 1

                         Standard orientation:
 ---------------------------------------------------------------------
 Center     Atomic      Atomic             Coordinates (Angstroms)
 Number     Number       Type             X           Y           Z
 ---------------------------------------------------------------------
      1          8           0       -4.177043   -4.851302    1.897299
      2          8           0        3.048899   -4.994268    0.877021
      3          8           0        6.967274   -1.400373    2.215397
      4          8           0        3.801918   -3.082554   -0.232945
      5          8           0        7.497304   -0.661245    0.171885
      6          8           0       -2.992109    2.384439   -0.397794
      7          7           0       -0.364490   -0.425169   -0.748995
      8          7           0        1.536044    1.831247   -0.474669
      9          7           0       -3.215323   -3.037181    0.803627
     10          7           0       -0.771973    2.906596   -0.212450
     11          6           0        0.532818   -2.430964   -1.469045
     12          6           0        0.883761   -1.085054   -1.087379
     13          6           0       -0.781197   -2.608394   -1.242976
     14          6           0       -1.373101   -1.288494   -0.737797
     15          6           0        3.817557    1.436126   -0.402030
     16          6           0        2.441612    0.867962   -0.680521
     17          6           0        2.218384   -0.458419   -1.065149
     18          6           0        3.504212    2.775138    0.011812
     19          6           0        1.503607   -3.386620   -2.123649
     20          6           0       -5.474622   -2.841184    1.346990
     21          6           0       -3.557320   -1.749271    0.281252
     22          6           0        2.125799    2.955837   -0.008123
     23          6           0       -4.957803   -1.599185    0.610486
     24          6           0        5.128114    0.729805   -0.432410
     25          6           0       -2.623459   -0.879944   -0.290478
     26          6           0       -1.534427   -3.821192   -1.539065
     27          6           0       -4.312258   -3.788212    1.436812
     28          6           0        1.973384   -4.469380   -1.151121
     29          6           0        5.333706   -0.133842    0.927705
     30          6           0        4.561973    3.850445    0.387449
     31          6           0        1.268987    3.993808    0.370377
     32          6           0       -6.798211   -3.485318    0.880084
     33          6           0       -5.791434   -0.538499    0.215519
     34          6           0       -0.146178    4.026759    0.261040
     35          6           0       -1.025975    5.158760    0.476134
     36          6           0       -2.251791    4.623421    0.308486
     37          6           0        3.074907   -4.066423   -0.191097
     38          6           0       -5.454984    0.596587   -0.670172
     39          6           0        6.701212   -0.747442    1.033705
     40          6           0       -3.690498    5.251181    0.285179
     41          6           0       -2.158217    3.247132   -0.085956
     42          6           0       -0.615514    6.534588    0.919147
     43          6           0       -4.119663    5.590097   -1.168211
     44          1           0       -0.501858    0.660575   -0.356113
     45          1           0        3.127670   -1.144749   -1.198649
     46          1           0        2.337281   -2.722353   -2.437779
     47          1           0        1.076271   -3.811154   -3.039603
     48          1           0       -5.688474   -2.572171    2.377169
     49          1           0        5.084861    0.019606   -1.082228
     50          1           0        5.975037    1.675921   -0.543632
     51          1           0       -2.920325    0.108567   -0.385811
     52          1           0        0.429855    1.885259   -0.715238
     53          1           0       -1.451053   -4.693902   -0.813043
     54          1           0       -2.730526   -3.686931   -1.720884
     55          1           0       -1.234610   -4.328870   -2.446016
     56          1           0       -2.265290   -3.652053    0.750243
     57          1           0        1.241773   -4.967574   -0.662262
     58          1           0        2.462323   -5.191031   -1.856890
     59          1           0        4.560924   -0.787268    0.991745
     60          1           0        4.978827    0.625768    1.827024
     61          1           0        4.436551    4.709280   -0.278126
     62          1           0        5.440039    3.448518    0.552912
     63          1           0        4.428040    4.218447    1.444676
     64          1           0        1.631069    5.066942    0.564121
     65          1           0       -7.557490   -2.673471    0.720223
     66          1           0       -6.763805   -4.453641    1.474553
     67          1           0       -6.531481   -3.790646   -0.137688
     68          1           0       -6.840807   -0.410117    0.729969
     69          1           0       -4.699822    1.125447   -0.008097
     70          1           0       -6.228552    1.493176   -0.647414
     71          1           0       -4.993887    0.268750   -1.690990
     72          1           0       -3.487308    6.126503    0.903227
     73          1           0       -4.351325    4.644425    0.710082
     74          1           0        0.117904    6.395513    1.939041
     75          1           0       -1.587114    7.264092    1.432669
     76          1           0       -0.048984    6.924029    0.226448
     77          1           0       -3.306397    6.309596   -1.568145
     78          1           0       -5.207969    5.976426   -1.260232
     79          1           0       -4.271493    4.612218   -1.870797
     80          1           0        3.601690   -4.656034    1.638519
     81          1           0        7.858406   -1.661969    2.175534
 ---------------------------------------------------------------------

 SCF Done:  E(RB3LYP) =  -1949.06729513     A.U. after   19 cycles

 Excitation energies and oscillator strengths:

 Excited State   1:      Singlet-A      1.6237 eV  763.58 nm  f=0.3093  <S**2>=0.000
     156 ->157         0.71366
     156 <-157        -0.13789
 This state for optimization and/or second-order correction.
 Total Energy, E(TD-HF/TD-DFT) =  -1949.00762423
 Copying the excited state density for this state as the 1-particle RhoCI density.

 The electronic state is 1-A.
 Alpha  occ. eigenvalues --  -19.19198 -19.17340 -19.15668 -19.12940 -19.12858
 Alpha  occ. eigenvalues --  -19.09356 -14.38407 -14.36671 -14.34889 -14.28100
 Alpha  occ. eigenvalues --  -10.34562 -10.31962 -10.29772 -10.25293 -10.25160
 Alpha  occ. eigenvalues --  -10.24094 -10.23564 -10.22528 -10.22351 -10.21957
 Alpha  occ. eigenvalues --  -10.21847 -10.21846 -10.21745 -10.21617 -10.21426
 Alpha  occ. eigenvalues --  -10.20854 -10.20794 -10.20741 -10.20669 -10.20660
 Alpha  occ. eigenvalues --  -10.20369 -10.20101 -10.19979 -10.19841 -10.19775
 Alpha  occ. eigenvalues --  -10.19689 -10.19337 -10.19297 -10.18495 -10.18468
 Alpha  occ. eigenvalues --  -10.18464 -10.18084 -10.18056  -1.10243  -1.08839
 Alpha  occ. eigenvalues --   -1.06810  -1.01793  -1.01487  -0.99857  -0.97891
 Alpha  occ. eigenvalues --   -0.96865  -0.93027  -0.90739  -0.83345  -0.80969
 Alpha  occ. eigenvalues --   -0.80882  -0.80071  -0.79130  -0.78663  -0.78348
 Alpha  occ. eigenvalues --   -0.76484  -0.75902  -0.75069  -0.73731  -0.71981
 Alpha  occ. eigenvalues --   -0.70774  -0.69772  -0.69152  -0.68194  -0.67541
 Alpha  occ. eigenvalues --   -0.66957  -0.65120  -0.63491  -0.61604  -0.60876
 Alpha  occ. eigenvalues --   -0.59974  -0.59781  -0.58117  -0.57342  -0.56335
 Alpha  occ. eigenvalues --   -0.55473  -0.54816  -0.54466  -0.53129  -0.52443
 Alpha  occ. eigenvalues --   -0.52179  -0.51450  -0.51049  -0.50496  -0.49972
 Alpha  occ. eigenvalues --   -0.49416  -0.48875  -0.48416  -0.47979  -0.47846
 Alpha  occ. eigenvalues --   -0.46647  -0.46461  -0.45814  -0.45557  -0.45168
 Alpha  occ. eigenvalues --   -0.44755  -0.44458  -0.44206  -0.43583  -0.43501
 Alpha  occ. eigenvalues --   -0.43282  -0.43131  -0.42904  -0.42579  -0.42355
 Alpha  occ. eigenvalues --   -0.41975  -0.41920  -0.41339  -0.41000  -0.40741
 Alpha  occ. eigenvalues --   -0.40608  -0.40445  -0.40231  -0.39943  -0.39602
 Alpha  occ. eigenvalues --   -0.39260  -0.38938  -0.38724  -0.38346  -0.38111
 Alpha  occ. eigenvalues --   -0.37839  -0.37203  -0.36962  -0.36569  -0.36298
 Alpha  occ. eigenvalues --   -0.35934  -0.35618  -0.35358  -0.35260  -0.34730
 Alpha  occ. eigenvalues --   -0.34571  -0.34211  -0.33940  -0.33572  -0.32872
 Alpha  occ. eigenvalues --   -0.32797  -0.32420  -0.31235  -0.30497  -0.29663
 Alpha  occ. eigenvalues --   -0.28618  -0.27971  -0.27563  -0.26691  -0.25342
 Alpha  occ. eigenvalues --   -0.24469  -0.24185  -0.23654  -0.22790  -0.20716
 Alpha  occ. eigenvalues --   -0.16574
 Alpha virt. eigenvalues --   -0.10082  -0.06097  -0.04347  -0.02753  -0.00126
 Alpha virt. eigenvalues --    0.00317   0.02263   0.02851   0.03331   0.03753
 Alpha virt. eigenvalues --    0.04277   0.04571   0.04931   0.05110   0.06121

 Mulliken charges:
               1
     1  O   -0.145202
     2  O   -0.250336
     3  O   -0.184840
     4  O   -0.214483
     5  O   -0.186612
     6  O   -0.236012
     7  N   -0.166188
     8  N   -0.103660
     9  N   -0.288635
    10  N   -0.374959
    11  C   -0.079650
    12  C    0.045288
    13  C   -0.130418
    14  C    0.136070
    15  C   -0.155273
    16  C    0.067202
    17  C   -0.092625
    18  C   -0.165049
    19  C    0.104008
    20  C   -0.043576
    21  C    0.147915
    22  C    0.130985
    23  C   -0.037325
    24  C    0.182907
    25  C   -0.078550
    26  C   -0.006237
    27  C    0.123413
    28  C    0.080919
    29  C   -0.043359
    30  C    0.190440
    31  C   -0.136281
    32  C    0.055271
    33  C   -0.180264
    34  C    0.035055
    35  C   -0.053742
    36  C   -0.228932
    37  C    0.161828
    38  C    0.007609
    39  C    0.166305
    40  C    0.201167
    41  C    0.177982
    42  C    0.047931
    43  C   -0.078975
    44  H    0.208212
    45  H    0.048930
    46  H    0.014496
    47  H    0.013708
    48  H    0.032852
    49  H   -0.048263
    50  H    0.062139
    51  H   -0.045766
    52  H    0.197322
    53  H    0.023184
    54  H    0.051033
    55  H    0.000235
    56  H    0.176754
    57  H    0.001850
    58  H    0.047727
    59  H    0.002884
    60  H    0.049717
    61  H    0.033122
    62  H   -0.047866
    63  H    0.001444
    64  H   -0.027169
    65  H    0.037066
    66  H    0.051981
    67  H   -0.000863
    68  H    0.026974
    69  H    0.085448
    70  H    0.022064
    71  H    0.067371
    72  H   -0.018554
    73  H   -0.034694
    74  H    0.050221
    75  H    0.062484
    76  H   -0.002569
    77  H    0.032088
    78  H    0.022484
    79  H    0.044928
    80  H    0.201906
    81  H    0.154007
 Sum of Mulliken charges =  -0.00000

 Dipole moment (field-independent basis, Debye):
    X=              0.6807    Y=             -0.7694    Z=              0.7627  Tot=              1.2795
 Quadrupole moment (field-independent basis, Debye-Ang):
   XX=           -248.6401   YY=           -239.0986   ZZ=           -254.0843
   XY=            -10.9823   XZ=             11.2994   YZ=             14.2553

 Normal termination of Gaussian 16 at Fri Jun 28 05:24:27 2019.
