 Gaussian 16, Revision A.03,
 Gaussian 16:  ES64L-G16RevA.03 25-Dec-2016

 --------------------------
 # td=(NStates=1) B3LYP/SVP
 --------------------------

 --
 TD
 --
 Symbolic Z-matrix:
 Charge =  0 Multiplicity = 1

                         Standard orientation:
 ---------------------------------------------------------------------
 Center     Atomic      Atomic             Coordinates (Angstroms)
 Number     Number       Type             X           Y           Z
 ---------------------------------------------------------------------
      1          8           0        3.893118   -5.040570   -1.911327
      2          8           0       -3.433282   -4.923256   -0.859035
      3          8           0       -7.038482   -1.150893   -1.936576
      4          8           0       -3.992198   -2.953166    0.094652
      5          8           0       -7.513853   -0.296834    0.163637
      6          8           0        3.218909    2.307143    0.338403
      7          7           0        0.251367   -0.543652    0.665459
      8          7           0       -1.404658    1.918348    0.322741
      9          7           0        3.065315   -3.270248   -0.709690
     10          7           0        1.026936    2.868113   -0.105144
     11          6           0       -0.743388   -2.405619    1.370339
     12          6           0       -1.018130   -1.006169    0.989591
     13          6           0        0.620577   -2.661327    1.179182
     14          6           0        1.259498   -1.480046    0.759501
     15          6           0       -3.687058    1.650313    0.228178
     16          6           0       -2.393917    1.043558    0.513575
     17          6           0       -2.301616   -0.263005    0.975329
     18          6           0       -3.336504    2.970138   -0.220179
     19          6           0       -1.790321   -3.203984    2.080783
     20          6           0        5.280693   -3.074841   -1.381608
     21          6           0        3.543986   -1.998320   -0.238122
     22          6           0       -1.862966    3.034690   -0.215827
     23          6           0        4.909909   -1.872040   -0.522354
     24          6           0       -5.065653    1.090125    0.349818
     25          6           0        2.608650   -1.120856    0.407986
     26          6           0        1.302463   -3.953424    1.634898
     27          6           0        4.007983   -3.970265   -1.395944
     28          6           0       -2.371306   -4.391988    1.208559
     29          6           0       -5.382683    0.190567   -0.929977
     30          6           0       -4.293617    4.043119   -0.594396
     31          6           0       -1.015641    4.221672   -0.373323
     32          6           0        6.593665   -3.838820   -1.087971
     33          6           0        5.810865   -0.959583   -0.021601
     34          6           0        0.391809    4.094664   -0.309140
     35          6           0        1.393556    5.172467   -0.380600
     36          6           0        2.577714    4.550124   -0.137163
     37          6           0       -3.349863   -3.890753    0.107865
     38          6           0        5.499696    0.263085    0.827315
     39          6           0       -6.688380   -0.474659   -0.819304
     40          6           0        3.954478    5.241579   -0.179395
     41          6           0        2.306559    3.191497    0.090836
     42          6           0        0.970549    6.504466   -0.711717
     43          6           0        4.605496    5.394832    1.152137
     44          1           0        0.698573    0.381222    0.064329
     45          1           0       -3.099664   -0.829383    1.025938
     46          1           0       -2.719483   -2.569228    2.615074
     47          1           0       -1.447140   -3.841340    2.952920
     48          1           0        5.373243   -2.775950   -2.375785
     49          1           0       -5.207891    0.353877    1.248351
     50          1           0       -5.844870    1.816878    0.531773
     51          1           0        3.005404   -0.188422    0.450956
     52          1           0       -0.352823    1.790535    0.453855
     53          1           0        1.463462   -4.639588    0.935827
     54          1           0        2.239502   -3.519466    2.123769
     55          1           0        0.566392   -4.465968    2.446454
     56          1           0        2.009301   -3.507091   -0.667383
     57          1           0       -1.712162   -5.136130    0.702409
     58          1           0       -2.938517   -5.147337    1.762155
     59          1           0       -4.711234   -0.672203   -1.128766
     60          1           0       -5.317607    0.913169   -1.901176
     61          1           0       -4.048721    4.858651   -0.097962
     62          1           0       -5.438521    3.872835   -0.629885
     63          1           0       -4.054929    4.226405   -1.608046
     64          1           0       -1.499631    5.117298   -0.699254
     65          1           0        7.453271   -3.178789   -1.256605
     66          1           0        6.769422   -4.890188   -1.673459
     67          1           0        6.526392   -4.187921   -0.083164
     68          1           0        7.007170   -0.664473   -0.420016
     69          1           0        4.969344    1.090230    0.334939
     70          1           0        6.385443    0.693103    1.237525
     71          1           0        4.824055   -0.100665    1.722464
     72          1           0        3.792392    6.284529   -0.617565
     73          1           0        4.601028    4.777365   -0.997754
     74          1           0        0.256705    6.584974   -1.495722
     75          1           0        2.039655    7.232644   -0.782199
     76          1           0        0.219055    7.148081    0.036597
     77          1           0        4.201244    6.015057    2.162866
     78          1           0        5.592195    5.765514    0.819132
     79          1           0        4.873523    4.404435    1.660961
     80          1           0       -4.060578   -4.532428   -1.475014
     81          1           0       -8.082053   -1.374750   -1.853762
 ---------------------------------------------------------------------

 SCF Done:  E(RB3LYP) =  -1949.07360464     A.U. after   24 cycles

 Excitation energies and oscillator strengths:

 Excited State   1:      Singlet-A      1.6705 eV  742.22 nm  f=0.3169  <S**2>=0.000
     156 ->157         0.71027
     156 <-157        -0.12642
 This state for optimization and/or second-order correction.
 Total Energy, E(TD-HF/TD-DFT) =  -1949.01221633
 Copying the excited state density for this state as the 1-particle RhoCI density.

 The electronic state is 1-A.
 Alpha  occ. eigenvalues --  -19.19991 -19.17799 -19.15970 -19.12588 -19.10545
 Alpha  occ. eigenvalues --  -19.08203 -14.38811 -14.37453 -14.37210 -14.28586
 Alpha  occ. eigenvalues --  -10.33053 -10.32914 -10.28543 -10.25152 -10.25115
 Alpha  occ. eigenvalues --  -10.24636 -10.24596 -10.24031 -10.23868 -10.23270
 Alpha  occ. eigenvalues --  -10.22811 -10.22660 -10.22284 -10.21952 -10.21774
 Alpha  occ. eigenvalues --  -10.21758 -10.21609 -10.21282 -10.21171 -10.21005
 Alpha  occ. eigenvalues --  -10.20662 -10.20249 -10.20151 -10.19940 -10.19912
 Alpha  occ. eigenvalues --  -10.19775 -10.19562 -10.19377 -10.19135 -10.19059
 Alpha  occ. eigenvalues --  -10.18880 -10.18335 -10.17433  -1.12748  -1.08150
 Alpha  occ. eigenvalues --   -1.03985  -1.03042  -1.00681  -0.97791  -0.97567
 Alpha  occ. eigenvalues --   -0.97142  -0.94935  -0.90725  -0.82550  -0.81635
 Alpha  occ. eigenvalues --   -0.81458  -0.81256  -0.79691  -0.79009  -0.77795
 Alpha  occ. eigenvalues --   -0.77128  -0.76519  -0.75206  -0.74033  -0.72902
 Alpha  occ. eigenvalues --   -0.71987  -0.69796  -0.69644  -0.68526  -0.67891
 Alpha  occ. eigenvalues --   -0.67295  -0.65731  -0.63873  -0.61767  -0.60618
 Alpha  occ. eigenvalues --   -0.60056  -0.59164  -0.58759  -0.58240  -0.57044
 Alpha  occ. eigenvalues --   -0.56673  -0.55855  -0.54948  -0.53598  -0.52693
 Alpha  occ. eigenvalues --   -0.52018  -0.51684  -0.51230  -0.50407  -0.49898
 Alpha  occ. eigenvalues --   -0.49537  -0.48776  -0.48597  -0.48090  -0.47838
 Alpha  occ. eigenvalues --   -0.47167  -0.46967  -0.46482  -0.46282  -0.45632
 Alpha  occ. eigenvalues --   -0.44854  -0.44640  -0.44222  -0.43928  -0.43828
 Alpha  occ. eigenvalues --   -0.43531  -0.43495  -0.43025  -0.42960  -0.42779
 Alpha  occ. eigenvalues --   -0.42456  -0.42122  -0.41580  -0.41378  -0.41121
 Alpha  occ. eigenvalues --   -0.41063  -0.40462  -0.40006  -0.39736  -0.39564
 Alpha  occ. eigenvalues --   -0.39196  -0.38883  -0.38727  -0.38354  -0.37969
 Alpha  occ. eigenvalues --   -0.37886  -0.37573  -0.37148  -0.37034  -0.36674
 Alpha  occ. eigenvalues --   -0.36466  -0.36248  -0.36084  -0.35299  -0.34817
 Alpha  occ. eigenvalues --   -0.34199  -0.34078  -0.33750  -0.32196  -0.31892
 Alpha  occ. eigenvalues --   -0.31704  -0.31418  -0.31080  -0.30500  -0.29343
 Alpha  occ. eigenvalues --   -0.27784  -0.27517  -0.26599  -0.25906  -0.25599
 Alpha  occ. eigenvalues --   -0.25326  -0.24993  -0.23506  -0.23198  -0.21457
 Alpha  occ. eigenvalues --   -0.18087
 Alpha virt. eigenvalues --   -0.11371  -0.06731  -0.05313  -0.02519  -0.00212
 Alpha virt. eigenvalues --    0.01153   0.01564   0.01955   0.03140   0.03551
 Alpha virt. eigenvalues --    0.03906   0.04076   0.04478   0.04829   0.05109

 Mulliken charges:
               1
     1  O   -0.186887
     2  O   -0.229989
     3  O   -0.232470
     4  O   -0.131097
     5  O   -0.313220
     6  O   -0.299344
     7  N   -0.183974
     8  N   -0.004185
     9  N   -0.165375
    10  N   -0.300232
    11  C   -0.026182
    12  C    0.027232
    13  C   -0.197214
    14  C    0.099116
    15  C   -0.064555
    16  C    0.072052
    17  C    0.060290
    18  C   -0.180611
    19  C    0.004541
    20  C   -0.039625
    21  C    0.032965
    22  C    0.059060
    23  C    0.064176
    24  C    0.082544
    25  C   -0.019626
    26  C    0.102584
    27  C    0.108249
    28  C   -0.020363
    29  C   -0.051538
    30  C    0.175799
    31  C   -0.092278
    32  C    0.023288
    33  C   -0.213946
    34  C    0.078300
    35  C   -0.013337
    36  C   -0.123334
    37  C    0.114757
    38  C    0.013049
    39  C    0.189433
    40  C    0.070406
    41  C    0.124631
    42  C   -0.009345
    43  C   -0.047687
    44  H    0.223243
    45  H   -0.080653
    46  H    0.058862
    47  H    0.023451
    48  H    0.018632
    49  H    0.040023
    50  H    0.018716
    51  H   -0.058006
    52  H    0.160027
    53  H   -0.003509
    54  H    0.051905
    55  H    0.021293
    56  H    0.167617
    57  H    0.033429
    58  H    0.032671
    59  H    0.057078
    60  H    0.068404
    61  H   -0.014294
    62  H    0.034122
    63  H    0.002736
    64  H   -0.037450
    65  H    0.024609
    66  H    0.046679
    67  H    0.004379
    68  H    0.050826
    69  H    0.085357
    70  H   -0.006312
    71  H    0.034809
    72  H   -0.009960
    73  H    0.027676
    74  H    0.013039
    75  H    0.049034
    76  H    0.031879
    77  H    0.040910
    78  H    0.005169
    79  H    0.033476
    80  H    0.159943
    81  H    0.234136
 Sum of Mulliken charges =  -0.00000

 Dipole moment (field-independent basis, Debye):
    X=             -3.9025    Y=              1.6320    Z=             -0.9740  Tot=              4.3407
 Quadrupole moment (field-independent basis, Debye-Ang):
   XX=           -245.4615   YY=           -248.4782   ZZ=           -255.4779
   XY=             10.8429   XZ=             15.9806   YZ=            -16.8812

 Normal termination of Gaussian 16 at Fri Jun 28 15:26:16 2019.
