 Gaussian 16, Revision A.03,
 Gaussian 16:  ES64L-G16RevA.03 25-Dec-2016

 --------------------------
 # td=(NStates=1) B3LYP/SVP
 --------------------------

 --
 TD
 --
 Symbolic Z-matrix:
 Charge =  0 Multiplicity = 1

                         Standard orientation:
 ---------------------------------------------------------------------
 Center     Atomic      Atomic             Coordinates (Angstroms)
 Number     Number       Type             X           Y           Z
 ---------------------------------------------------------------------
      1          8           0        4.142364   -4.911973   -1.926584
      2          8           0       -3.260634   -4.691992   -1.016471
      3          8           0       -7.114626   -1.221486   -1.982946
      4          8           0       -4.001169   -3.040420    0.118635
      5          8           0       -7.549751   -0.537853    0.136595
      6          8           0        3.119674    2.372614    0.605520
      7          7           0        0.211798   -0.565811    0.616711
      8          7           0       -1.390342    1.837305    0.330921
      9          7           0        3.268556   -3.211347   -0.753270
     10          7           0        0.942528    2.861412    0.193723
     11          6           0       -0.741092   -2.368172    1.459271
     12          6           0       -1.007468   -0.993791    1.005383
     13          6           0        0.605041   -2.617594    1.251517
     14          6           0        1.215085   -1.542071    0.684903
     15          6           0       -3.654782    1.535196    0.266203
     16          6           0       -2.406380    0.959227    0.487299
     17          6           0       -2.166463   -0.341705    0.812819
     18          6           0       -3.424945    2.808256   -0.186778
     19          6           0       -1.711926   -3.383790    2.084549
     20          6           0        5.440979   -2.829507   -1.500792
     21          6           0        3.563020   -1.954279   -0.254724
     22          6           0       -1.970877    3.004916   -0.105143
     23          6           0        4.999454   -1.738444   -0.486477
     24          6           0       -5.070753    0.995790    0.370259
     25          6           0        2.584517   -1.127098    0.198454
     26          6           0        1.361431   -3.884974    1.842727
     27          6           0        4.268433   -3.810919   -1.480292
     28          6           0       -2.217325   -4.395528    1.170938
     29          6           0       -5.438050    0.132688   -0.856153
     30          6           0       -4.363095    3.915506   -0.541688
     31          6           0       -1.133736    4.177636   -0.445522
     32          6           0        6.744255   -3.694524   -1.056031
     33          6           0        5.697946   -0.601797   -0.078088
     34          6           0        0.296932    4.023173   -0.230560
     35          6           0        1.275117    5.131239   -0.499268
     36          6           0        2.448526    4.513852   -0.176612
     37          6           0       -3.239141   -3.931373    0.028379
     38          6           0        5.424337    0.603331    0.822269
     39          6           0       -6.774258   -0.554361   -0.788096
     40          6           0        3.726285    5.216905   -0.175803
     41          6           0        2.172587    3.114496    0.289268
     42          6           0        0.956117    6.480262   -0.998700
     43          6           0        4.457426    5.184718    1.223555
     44          1           0        0.325441    0.411355    0.124948
     45          1           0       -2.947037   -0.952262    0.889689
     46          1           0       -2.460691   -2.524807    2.384974
     47          1           0       -1.143463   -4.015886    2.921749
     48          1           0        5.455440   -2.394394   -2.603429
     49          1           0       -5.060051    0.350539    1.204824
     50          1           0       -5.874741    1.803629    0.505433
     51          1           0        2.642782   -0.035494    0.545296
     52          1           0       -0.469402    1.992153    0.409345
     53          1           0        0.889901   -4.771087    1.176689
     54          1           0        2.498449   -3.820577    1.906272
     55          1           0        1.003049   -4.218076    2.834715
     56          1           0        2.373925   -3.556608   -0.667014
     57          1           0       -1.366005   -4.997358    0.699533
     58          1           0       -2.676058   -5.145872    1.816903
     59          1           0       -4.808980   -0.576898   -1.049845
     60          1           0       -5.276312    0.733569   -1.794475
     61          1           0       -4.502866    4.868137    0.310491
     62          1           0       -5.298927    3.482302   -0.626110
     63          1           0       -3.996767    4.398676   -1.551465
     64          1           0       -1.626662    5.214868   -0.828822
     65          1           0        7.523590   -2.782481   -1.359578
     66          1           0        6.775023   -4.735584   -1.605077
     67          1           0        6.737965   -3.819704    0.105864
     68          1           0        6.860546   -0.662804   -0.252692
     69          1           0        4.987795    1.434076    0.260256
     70          1           0        6.453016    0.888160    1.311783
     71          1           0        4.639240    0.143013    1.500764
     72          1           0        3.785048    6.165445   -0.535035
     73          1           0        4.489897    4.544488   -0.904361
     74          1           0        0.700989    6.229477   -2.111711
     75          1           0        1.956512    7.384035   -0.738599
     76          1           0        0.024005    6.764397   -0.378800
     77          1           0        3.752276    5.651954    1.979411
     78          1           0        5.481674    5.734350    1.178594
     79          1           0        4.664164    4.106992    1.558475
     80          1           0       -3.925497   -4.201382   -1.751967
     81          1           0       -8.005103   -1.455967   -1.884053
 ---------------------------------------------------------------------

 SCF Done:  E(RB3LYP) =  -1949.04977594     A.U. after   24 cycles

 Excitation energies and oscillator strengths:

 Excited State   1:      Singlet-A      1.8859 eV  657.43 nm  f=0.3669  <S**2>=0.000
     156 ->157         0.70458
     156 <-157        -0.11174
 This state for optimization and/or second-order correction.
 Total Energy, E(TD-HF/TD-DFT) =  -1948.98047121
 Copying the excited state density for this state as the 1-particle RhoCI density.

 The electronic state is 1-A.
 Alpha  occ. eigenvalues --  -19.20399 -19.17368 -19.13904 -19.13731 -19.11005
 Alpha  occ. eigenvalues --  -19.08103 -14.38025 -14.36233 -14.36146 -14.28637
 Alpha  occ. eigenvalues --  -10.33282 -10.32831 -10.28885 -10.24791 -10.24648
 Alpha  occ. eigenvalues --  -10.24529 -10.24284 -10.23998 -10.23693 -10.23132
 Alpha  occ. eigenvalues --  -10.22535 -10.22527 -10.22475 -10.22392 -10.22062
 Alpha  occ. eigenvalues --  -10.21998 -10.21739 -10.21513 -10.21449 -10.21352
 Alpha  occ. eigenvalues --  -10.21008 -10.20902 -10.20567 -10.20551 -10.20312
 Alpha  occ. eigenvalues --  -10.20174 -10.19936 -10.19675 -10.18678 -10.18641
 Alpha  occ. eigenvalues --  -10.18323 -10.17982 -10.17414  -1.13040  -1.09147
 Alpha  occ. eigenvalues --   -1.04812  -1.02428  -1.00911  -1.00710  -0.99817
 Alpha  occ. eigenvalues --   -0.98539  -0.96044  -0.92257  -0.84259  -0.82728
 Alpha  occ. eigenvalues --   -0.82592  -0.80583  -0.79818  -0.79156  -0.78707
 Alpha  occ. eigenvalues --   -0.77448  -0.76385  -0.74528  -0.73639  -0.71945
 Alpha  occ. eigenvalues --   -0.71112  -0.70002  -0.69142  -0.67872  -0.67375
 Alpha  occ. eigenvalues --   -0.67120  -0.65649  -0.64188  -0.62279  -0.61490
 Alpha  occ. eigenvalues --   -0.61249  -0.59660  -0.59268  -0.57844  -0.57698
 Alpha  occ. eigenvalues --   -0.57121  -0.55662  -0.54707  -0.53453  -0.52758
 Alpha  occ. eigenvalues --   -0.52651  -0.52357  -0.51421  -0.50846  -0.50222
 Alpha  occ. eigenvalues --   -0.49641  -0.49331  -0.49057  -0.48061  -0.47717
 Alpha  occ. eigenvalues --   -0.47509  -0.46405  -0.46084  -0.45794  -0.45420
 Alpha  occ. eigenvalues --   -0.45093  -0.44411  -0.44148  -0.43803  -0.43312
 Alpha  occ. eigenvalues --   -0.43156  -0.43057  -0.42955  -0.42518  -0.42238
 Alpha  occ. eigenvalues --   -0.42037  -0.41807  -0.41277  -0.41053  -0.40862
 Alpha  occ. eigenvalues --   -0.40490  -0.40319  -0.40190  -0.39893  -0.39632
 Alpha  occ. eigenvalues --   -0.39549  -0.39318  -0.38940  -0.38697  -0.38237
 Alpha  occ. eigenvalues --   -0.37838  -0.37490  -0.37398  -0.36796  -0.36577
 Alpha  occ. eigenvalues --   -0.36292  -0.36166  -0.35515  -0.34860  -0.34718
 Alpha  occ. eigenvalues --   -0.34066  -0.34003  -0.33539  -0.33198  -0.32789
 Alpha  occ. eigenvalues --   -0.32388  -0.31544  -0.31236  -0.29997  -0.29683
 Alpha  occ. eigenvalues --   -0.29076  -0.27792  -0.26760  -0.26335  -0.25994
 Alpha  occ. eigenvalues --   -0.25636  -0.24933  -0.23179  -0.22492  -0.22144
 Alpha  occ. eigenvalues --   -0.18372
 Alpha virt. eigenvalues --   -0.10830  -0.05758  -0.04342  -0.00845  -0.00550
 Alpha virt. eigenvalues --    0.00227   0.00433   0.01825   0.02538   0.02774
 Alpha virt. eigenvalues --    0.03068   0.04096   0.04483   0.04999   0.05948

 Mulliken charges:
               1
     1  O   -0.188015
     2  O   -0.194344
     3  O   -0.211265
     4  O   -0.205237
     5  O   -0.210467
     6  O   -0.270008
     7  N   -0.126693
     8  N    0.018575
     9  N   -0.064701
    10  N   -0.212696
    11  C   -0.111851
    12  C    0.071048
    13  C   -0.148110
    14  C    0.023974
    15  C   -0.096497
    16  C    0.144410
    17  C   -0.045952
    18  C   -0.132865
    19  C    0.040589
    20  C   -0.119047
    21  C    0.128177
    22  C    0.013060
    23  C   -0.008928
    24  C    0.148180
    25  C   -0.128969
    26  C    0.013538
    27  C    0.108585
    28  C    0.027451
    29  C    0.081550
    30  C    0.047642
    31  C   -0.131635
    32  C   -0.047861
    33  C   -0.190019
    34  C    0.059804
    35  C   -0.086936
    36  C   -0.147698
    37  C    0.105580
    38  C    0.057471
    39  C    0.155868
    40  C    0.063406
    41  C    0.101886
    42  C   -0.016087
    43  C   -0.070765
    44  H    0.167865
    45  H   -0.093045
    46  H    0.047216
    47  H    0.029929
    48  H    0.076160
    49  H    0.000157
    50  H    0.038660
    51  H    0.062348
    52  H    0.047995
    53  H    0.030917
    54  H    0.060585
    55  H    0.024141
    56  H    0.091629
    57  H    0.032496
    58  H    0.038392
    59  H   -0.037275
    60  H    0.029009
    61  H    0.054934
    62  H   -0.008583
    63  H    0.045269
    64  H    0.034812
    65  H    0.051747
    66  H    0.078035
    67  H    0.045873
    68  H    0.013705
    69  H    0.082596
    70  H    0.028600
    71  H    0.044990
    72  H   -0.036617
    73  H    0.014059
    74  H    0.062417
    75  H    0.060913
    76  H    0.048602
    77  H    0.016051
    78  H    0.016775
    79  H    0.055403
    80  H    0.244971
    81  H    0.154124
 Sum of Mulliken charges =  -0.00000

 Dipole moment (field-independent basis, Debye):
    X=             -3.2322    Y=             -0.0656    Z=             -1.1325  Tot=              3.4255
 Quadrupole moment (field-independent basis, Debye-Ang):
   XX=           -255.5267   YY=           -248.5360   ZZ=           -255.4652
   XY=              5.8535   XZ=             14.8839   YZ=            -15.7433

 Normal termination of Gaussian 16 at Fri Jun 28 23:19:32 2019.
