 Gaussian 16, Revision A.03,
 Gaussian 16:  ES64L-G16RevA.03 25-Dec-2016

 --------------------------
 # td=(NStates=1) B3LYP/SVP
 --------------------------

 --
 TD
 --
 Symbolic Z-matrix:
 Charge =  0 Multiplicity = 1

                         Standard orientation:
 ---------------------------------------------------------------------
 Center     Atomic      Atomic             Coordinates (Angstroms)
 Number     Number       Type             X           Y           Z
 ---------------------------------------------------------------------
      1          8           0        4.867379   -4.708714   -1.765533
      2          8           0       -2.570669   -4.949770   -1.194485
      3          8           0       -6.760608   -2.047911   -1.832866
      4          8           0       -3.547766   -3.335008    0.062869
      5          8           0       -7.543920   -1.222531    0.015225
      6          8           0        2.810264    2.770812    0.378797
      7          7           0        0.257981   -0.570941    0.427075
      8          7           0       -1.704169    1.725420    0.141572
      9          7           0        3.712816   -3.069768   -0.556098
     10          7           0        0.578888    2.904837   -0.175124
     11          6           0       -0.486578   -2.413207    1.369190
     12          6           0       -0.826364   -1.126008    0.800979
     13          6           0        0.917602   -2.598467    1.306739
     14          6           0        1.458095   -1.423654    0.743974
     15          6           0       -3.990460    1.254355    0.298979
     16          6           0       -2.538723    0.748647    0.519820
     17          6           0       -2.147203   -0.541917    0.871131
     18          6           0       -3.796100    2.605610    0.012154
     19          6           0       -1.465924   -3.379500    1.935938
     20          6           0        5.831769   -2.458198   -1.292888
     21          6           0        3.846565   -1.747768   -0.189202
     22          6           0       -2.358772    2.914558   -0.152818
     23          6           0        5.210446   -1.307880   -0.493284
     24          6           0       -5.190967    0.430591    0.459339
     25          6           0        2.800188   -0.937436    0.318811
     26          6           0        1.656055   -3.818338    1.855521
     27          6           0        4.816702   -3.615035   -1.255077
     28          6           0       -1.746589   -4.633402    1.004837
     29          6           0       -5.424493   -0.389614   -0.837537
     30          6           0       -4.824829    3.637105   -0.292940
     31          6           0       -1.629033    4.081397   -0.357008
     32          6           0        7.159870   -3.002725   -0.572287
     33          6           0        5.779579   -0.144527   -0.262254
     34          6           0       -0.221035    4.019886   -0.267157
     35          6           0        0.687972    5.239374   -0.487937
     36          6           0        1.928541    4.883851   -0.345212
     37          6           0       -2.647560   -4.184290   -0.091108
     38          6           0        5.419968    0.992195    0.591502
     39          6           0       -6.680830   -1.250859   -0.773704
     40          6           0        3.137512    5.677086   -0.301783
     41          6           0        1.915674    3.422914   -0.003666
     42          6           0        0.018561    6.565791   -0.679301
     43          6           0        3.593646    6.009155    1.206692
     44          1           0        0.405007    0.289564   -0.161151
     45          1           0       -2.797452   -1.445432    1.173733
     46          1           0       -2.449489   -3.027523    2.337671
     47          1           0       -1.058267   -3.850818    2.893455
     48          1           0        5.941456   -2.338895   -2.467800
     49          1           0       -4.989638   -0.332595    1.335934
     50          1           0       -6.084575    1.036843    0.517741
     51          1           0        2.551210    0.191332    0.332015
     52          1           0       -0.723164    1.837245    0.172833
     53          1           0        1.672226   -4.666191    1.317450
     54          1           0        2.687412   -3.501622    2.071948
     55          1           0        1.345942   -4.111126    2.946190
     56          1           0        2.792906   -3.628254   -0.319789
     57          1           0       -0.804540   -5.169831    0.672749
     58          1           0       -2.293123   -5.251905    1.600151
     59          1           0       -4.821545   -1.231253   -1.021524
     60          1           0       -5.547067    0.123483   -1.882373
     61          1           0       -4.557932    4.279884    0.594794
     62          1           0       -5.886810    3.289365   -0.295840
     63          1           0       -4.609480    3.986007   -1.333745
     64          1           0       -2.090587    5.208791   -0.497461
     65          1           0        7.874770   -2.338909   -0.760499
     66          1           0        7.279801   -3.813505   -1.193665
     67          1           0        7.183699   -3.226629    0.335775
     68          1           0        6.884270   -0.203606   -0.509327
     69          1           0        4.790395    1.613487   -0.057601
     70          1           0        6.347096    1.204985    1.158390
     71          1           0        4.885222    0.587964    1.539916
     72          1           0        3.047211    6.716212   -0.798488
     73          1           0        4.084830    5.164704   -0.896596
     74          1           0       -0.391796    6.667691   -1.609421
     75          1           0        0.754720    7.408343   -0.805177
     76          1           0       -0.749916    7.044036    0.210478
     77          1           0        2.824203    6.805892    1.666420
     78          1           0        4.729187    6.553202    1.312727
     79          1           0        3.595391    5.214110    1.825685
     80          1           0       -3.453418   -4.508374   -1.628158
     81          1           0       -7.543909   -2.616642   -1.794132
 ---------------------------------------------------------------------

 SCF Done:  E(RB3LYP) =  -1949.06724174     A.U. after   16 cycles

 Excitation energies and oscillator strengths:

 Excited State   1:      Singlet-A      1.7381 eV  713.32 nm  f=0.3465  <S**2>=0.000
     156 ->157         0.70942
     156 <-157        -0.11754
 This state for optimization and/or second-order correction.
 Total Energy, E(TD-HF/TD-DFT) =  -1949.00336667
 Copying the excited state density for this state as the 1-particle RhoCI density.

 The electronic state is 1-A.
 Alpha  occ. eigenvalues --  -19.20638 -19.17386 -19.14394 -19.11730 -19.11673
 Alpha  occ. eigenvalues --  -19.11311 -14.37544 -14.37072 -14.35709 -14.29259
 Alpha  occ. eigenvalues --  -10.33572 -10.30798 -10.29453 -10.26871 -10.24595
 Alpha  occ. eigenvalues --  -10.24462 -10.23853 -10.23243 -10.23100 -10.22310
 Alpha  occ. eigenvalues --  -10.21576 -10.21392 -10.21335 -10.21094 -10.21078
 Alpha  occ. eigenvalues --  -10.20954 -10.20824 -10.20457 -10.20428 -10.20395
 Alpha  occ. eigenvalues --  -10.20260 -10.20130 -10.19994 -10.19975 -10.19867
 Alpha  occ. eigenvalues --  -10.19748 -10.19735 -10.19253 -10.19002 -10.18864
 Alpha  occ. eigenvalues --  -10.18444 -10.17898 -10.16146  -1.10866  -1.10631
 Alpha  occ. eigenvalues --   -1.04715  -1.03765  -1.01192  -1.00498  -0.98490
 Alpha  occ. eigenvalues --   -0.97271  -0.94885  -0.90828  -0.82262  -0.81762
 Alpha  occ. eigenvalues --   -0.81326  -0.80848  -0.79991  -0.78822  -0.77466
 Alpha  occ. eigenvalues --   -0.77224  -0.76155  -0.74662  -0.73442  -0.72112
 Alpha  occ. eigenvalues --   -0.71557  -0.70464  -0.69284  -0.68750  -0.68067
 Alpha  occ. eigenvalues --   -0.67186  -0.65455  -0.64068  -0.62048  -0.61344
 Alpha  occ. eigenvalues --   -0.60074  -0.59257  -0.58621  -0.57614  -0.56254
 Alpha  occ. eigenvalues --   -0.55708  -0.54973  -0.54780  -0.53484  -0.52154
 Alpha  occ. eigenvalues --   -0.51680  -0.51006  -0.50968  -0.50716  -0.49923
 Alpha  occ. eigenvalues --   -0.49516  -0.48836  -0.48744  -0.47479  -0.47221
 Alpha  occ. eigenvalues --   -0.47040  -0.46792  -0.46333  -0.45691  -0.45207
 Alpha  occ. eigenvalues --   -0.45039  -0.44505  -0.44459  -0.44345  -0.44102
 Alpha  occ. eigenvalues --   -0.43854  -0.43336  -0.43004  -0.42816  -0.42655
 Alpha  occ. eigenvalues --   -0.42306  -0.41927  -0.41584  -0.41339  -0.41081
 Alpha  occ. eigenvalues --   -0.40825  -0.40500  -0.40070  -0.39758  -0.39589
 Alpha  occ. eigenvalues --   -0.39225  -0.38811  -0.38780  -0.38117  -0.37962
 Alpha  occ. eigenvalues --   -0.37705  -0.37312  -0.36936  -0.36854  -0.36822
 Alpha  occ. eigenvalues --   -0.36415  -0.36202  -0.35809  -0.35254  -0.34921
 Alpha  occ. eigenvalues --   -0.34560  -0.33836  -0.33375  -0.33215  -0.32996
 Alpha  occ. eigenvalues --   -0.32675  -0.32485  -0.30969  -0.30029  -0.29278
 Alpha  occ. eigenvalues --   -0.28128  -0.27441  -0.26606  -0.26471  -0.25927
 Alpha  occ. eigenvalues --   -0.25069  -0.24879  -0.24458  -0.23558  -0.21205
 Alpha  occ. eigenvalues --   -0.16886
 Alpha virt. eigenvalues --   -0.09951  -0.05175  -0.03747  -0.02243   0.00485
 Alpha virt. eigenvalues --    0.02028   0.02230   0.02451   0.03204   0.03352
 Alpha virt. eigenvalues --    0.04657   0.04767   0.05243   0.05842   0.06118

 Mulliken charges:
               1
     1  O   -0.196563
     2  O   -0.202571
     3  O   -0.186093
     4  O   -0.282095
     5  O   -0.189573
     6  O   -0.143367
     7  N   -0.079142
     8  N   -0.029774
     9  N   -0.172220
    10  N   -0.359477
    11  C   -0.096877
    12  C   -0.041440
    13  C   -0.135817
    14  C   -0.019489
    15  C   -0.068305
    16  C    0.107965
    17  C   -0.067043
    18  C   -0.158124
    19  C    0.009221
    20  C   -0.170805
    21  C    0.139749
    22  C    0.108866
    23  C    0.053005
    24  C    0.147658
    25  C   -0.109047
    26  C    0.076144
    27  C    0.151555
    28  C    0.089818
    29  C   -0.030058
    30  C    0.065441
    31  C   -0.160098
    32  C    0.231510
    33  C   -0.223555
    34  C    0.050435
    35  C   -0.056804
    36  C   -0.125951
    37  C    0.153355
    38  C    0.102990
    39  C    0.074665
    40  C   -0.011904
    41  C    0.152718
    42  C    0.072847
    43  C   -0.034838
    44  H    0.157390
    45  H    0.036069
    46  H    0.024226
    47  H   -0.002914
    48  H    0.066863
    49  H    0.051913
    50  H    0.006475
    51  H    0.047600
    52  H    0.092577
    53  H    0.010310
    54  H    0.021551
    55  H    0.030309
    56  H    0.161301
    57  H    0.038203
    58  H    0.013578
    59  H    0.016481
    60  H    0.052583
    61  H    0.048377
    62  H    0.019206
    63  H    0.042784
    64  H    0.034398
    65  H   -0.024108
    66  H   -0.002173
    67  H   -0.048386
    68  H   -0.003918
    69  H    0.080315
    70  H    0.008222
    71  H    0.021989
    72  H    0.016514
    73  H    0.035481
    74  H   -0.001688
    75  H   -0.005377
    76  H    0.060848
    77  H    0.021657
    78  H    0.030590
    79  H    0.009623
    80  H    0.218285
    81  H    0.175934
 Sum of Mulliken charges =  -0.00000

 Dipole moment (field-independent basis, Debye):
    X=             -2.2188    Y=              0.6787    Z=             -0.1151  Tot=              2.3231
 Quadrupole moment (field-independent basis, Debye-Ang):
   XX=           -253.7851   YY=           -236.0183   ZZ=           -253.9285
   XY=             12.0438   XZ=             17.1121   YZ=            -14.4246

 Normal termination of Gaussian 16 at Wed Jul  3 18:50:48 2019.
