 Gaussian 16, Revision A.03,
 Gaussian 16:  ES64L-G16RevA.03 25-Dec-2016

 --------------------------
 # td=(NStates=1) B3LYP/SVP
 --------------------------

 --
 TD
 --
 Symbolic Z-matrix:
 Charge =  0 Multiplicity = 1

                         Standard orientation:
 ---------------------------------------------------------------------
 Center     Atomic      Atomic             Coordinates (Angstroms)
 Number     Number       Type             X           Y           Z
 ---------------------------------------------------------------------
      1          8           0        3.940311   -5.081511   -1.876031
      2          8           0       -3.581589   -4.961156   -0.830902
      3          8           0       -6.828942   -1.361570   -1.908917
      4          8           0       -4.095752   -3.024474    0.212178
      5          8           0       -7.721786    0.019625   -0.277374
      6          8           0        3.248869    2.230985    0.226713
      7          7           0        0.227375   -0.550551    0.617544
      8          7           0       -1.383809    1.984444    0.406876
      9          7           0        3.073163   -3.378139   -0.473602
     10          7           0        0.961171    2.837175    0.022318
     11          6           0       -0.866141   -2.300663    1.411645
     12          6           0       -0.985243   -0.966340    0.920570
     13          6           0        0.485349   -2.643212    1.284742
     14          6           0        1.257694   -1.525045    0.815764
     15          6           0       -3.632850    1.758044    0.276974
     16          6           0       -2.391979    1.048671    0.494092
     17          6           0       -2.210512   -0.221243    0.805907
     18          6           0       -3.327704    3.063099   -0.079507
     19          6           0       -1.879654   -3.207947    2.101271
     20          6           0        5.266579   -3.051122   -1.395269
     21          6           0        3.494955   -2.078653   -0.207816
     22          6           0       -1.820160    3.103957   -0.032597
     23          6           0        4.899190   -1.897044   -0.594551
     24          6           0       -5.089266    1.186781    0.280558
     25          6           0        2.572633   -1.162547    0.332283
     26          6           0        1.140403   -3.895565    1.774766
     27          6           0        3.988613   -4.015964   -1.331407
     28          6           0       -2.388642   -4.317165    1.209532
     29          6           0       -5.370476    0.171515   -0.925729
     30          6           0       -4.186243    4.292285   -0.545859
     31          6           0       -1.042612    4.246662   -0.302457
     32          6           0        6.498898   -3.955875   -1.004786
     33          6           0        5.749717   -0.868991   -0.321628
     34          6           0        0.419054    4.044665   -0.230099
     35          6           0        1.429599    5.114238   -0.366444
     36          6           0        2.663898    4.544658   -0.137851
     37          6           0       -3.429037   -3.999101    0.125827
     38          6           0        5.587937    0.262335    0.592580
     39          6           0       -6.770909   -0.361513   -0.961000
     40          6           0        4.100484    5.166430   -0.289136
     41          6           0        2.367371    3.121552    0.025792
     42          6           0        1.128682    6.530830   -0.674392
     43          6           0        4.724176    5.108048    1.169047
     44          1           0        0.789422    0.410647    0.137101
     45          1           0       -3.161274   -0.914041    0.713209
     46          1           0       -2.739884   -2.562828    2.605619
     47          1           0       -1.555879   -3.801414    2.924638
     48          1           0        5.252710   -2.693099   -2.374853
     49          1           0       -5.301943    0.646415    1.187663
     50          1           0       -5.790297    2.209399    0.336729
     51          1           0        2.852540   -0.137790    0.250414
     52          1           0       -0.464660    1.901820    0.743051
     53          1           0        1.273425   -4.693131    1.143038
     54          1           0        2.265198   -3.668879    2.016386
     55          1           0        0.624981   -4.168447    2.665988
     56          1           0        2.095283   -3.529276   -0.652778
     57          1           0       -1.467731   -4.766300    0.747743
     58          1           0       -3.044637   -4.919946    2.072627
     59          1           0       -4.672149   -0.798127   -0.971142
     60          1           0       -5.234523    0.713046   -1.819117
     61          1           0       -3.980623    5.002753    0.205800
     62          1           0       -5.147219    4.024051   -0.646786
     63          1           0       -3.990997    4.545304   -1.472381
     64          1           0       -1.370868    5.181331   -0.626053
     65          1           0        7.340028   -3.310314   -0.993542
     66          1           0        6.737906   -4.793671   -1.568877
     67          1           0        6.491368   -4.250408   -0.047006
     68          1           0        6.726192   -1.112907   -0.510171
     69          1           0        5.252517    1.174018    0.050271
     70          1           0        6.582177    0.831521    0.925127
     71          1           0        4.769736    0.108658    1.328440
     72          1           0        3.984881    6.274839   -0.489372
     73          1           0        4.909453    4.623839   -0.814170
     74          1           0        0.625412    6.853943   -1.513878
     75          1           0        1.828058    7.250772   -0.526036
     76          1           0        0.417839    7.087753   -0.013812
     77          1           0        4.360941    5.822522    1.965380
     78          1           0        5.812796    5.350815    1.062822
     79          1           0        4.810372    3.985131    1.695228
     80          1           0       -4.325669   -4.791233   -1.532496
     81          1           0       -7.691892   -1.687159   -1.907023
 ---------------------------------------------------------------------

 SCF Done:  E(RB3LYP) =  -1949.09383117     A.U. after   16 cycles

 Excitation energies and oscillator strengths:

 Excited State   1:      Singlet-A      1.6422 eV  755.00 nm  f=0.2059  <S**2>=0.000
     156 ->157         0.70696
 This state for optimization and/or second-order correction.
 Total Energy, E(TD-HF/TD-DFT) =  -1949.03348197
 Copying the excited state density for this state as the 1-particle RhoCI density.

 The electronic state is 1-A.
 Alpha  occ. eigenvalues --  -19.19214 -19.18219 -19.13872 -19.13238 -19.11477
 Alpha  occ. eigenvalues --  -19.10681 -14.37658 -14.36391 -14.36385 -14.29730
 Alpha  occ. eigenvalues --  -10.33073 -10.32572 -10.28861 -10.27050 -10.24263
 Alpha  occ. eigenvalues --  -10.23703 -10.23558 -10.22984 -10.22868 -10.22600
 Alpha  occ. eigenvalues --  -10.22576 -10.22122 -10.21433 -10.21132 -10.21105
 Alpha  occ. eigenvalues --  -10.21099 -10.20997 -10.20907 -10.20888 -10.20130
 Alpha  occ. eigenvalues --  -10.19309 -10.19270 -10.19204 -10.19074 -10.18964
 Alpha  occ. eigenvalues --  -10.18964 -10.18753 -10.18623 -10.18485 -10.18480
 Alpha  occ. eigenvalues --  -10.18087 -10.17742 -10.16717  -1.09933  -1.09308
 Alpha  occ. eigenvalues --   -1.03934  -1.01795  -1.01053  -1.00530  -0.99441
 Alpha  occ. eigenvalues --   -0.97153  -0.95463  -0.91556  -0.82285  -0.81922
 Alpha  occ. eigenvalues --   -0.81424  -0.80999  -0.79684  -0.78265  -0.77312
 Alpha  occ. eigenvalues --   -0.76699  -0.75922  -0.75147  -0.74014  -0.73032
 Alpha  occ. eigenvalues --   -0.71679  -0.70472  -0.69832  -0.68488  -0.68093
 Alpha  occ. eigenvalues --   -0.67174  -0.65309  -0.63926  -0.62325  -0.60919
 Alpha  occ. eigenvalues --   -0.60169  -0.59745  -0.59130  -0.58359  -0.58132
 Alpha  occ. eigenvalues --   -0.56245  -0.55727  -0.55363  -0.53881  -0.53509
 Alpha  occ. eigenvalues --   -0.52513  -0.51403  -0.50588  -0.49661  -0.49190
 Alpha  occ. eigenvalues --   -0.49128  -0.48684  -0.48231  -0.47932  -0.47140
 Alpha  occ. eigenvalues --   -0.46847  -0.46830  -0.46379  -0.45876  -0.45356
 Alpha  occ. eigenvalues --   -0.45053  -0.44817  -0.44430  -0.44151  -0.43945
 Alpha  occ. eigenvalues --   -0.43528  -0.43214  -0.42815  -0.42616  -0.42040
 Alpha  occ. eigenvalues --   -0.41618  -0.41451  -0.41261  -0.40986  -0.40720
 Alpha  occ. eigenvalues --   -0.40580  -0.40227  -0.39903  -0.39682  -0.39388
 Alpha  occ. eigenvalues --   -0.38994  -0.38839  -0.38788  -0.38395  -0.38186
 Alpha  occ. eigenvalues --   -0.37724  -0.37592  -0.37521  -0.36582  -0.36057
 Alpha  occ. eigenvalues --   -0.35991  -0.35655  -0.35350  -0.35326  -0.34767
 Alpha  occ. eigenvalues --   -0.34514  -0.34138  -0.33678  -0.33616  -0.33136
 Alpha  occ. eigenvalues --   -0.33008  -0.32727  -0.32458  -0.30166  -0.28848
 Alpha  occ. eigenvalues --   -0.28708  -0.28360  -0.26537  -0.26070  -0.25557
 Alpha  occ. eigenvalues --   -0.24632  -0.24492  -0.24447  -0.23888  -0.21306
 Alpha  occ. eigenvalues --   -0.17298
 Alpha virt. eigenvalues --   -0.10335  -0.06236  -0.03884  -0.01106  -0.00405
 Alpha virt. eigenvalues --    0.00916   0.02111   0.02762   0.04021   0.04254
 Alpha virt. eigenvalues --    0.04588   0.04835   0.04855   0.05252   0.06055

 Mulliken charges:
               1
     1  O   -0.182461
     2  O   -0.238282
     3  O   -0.177003
     4  O   -0.195807
     5  O   -0.237247
     6  O   -0.252959
     7  N   -0.172321
     8  N    0.046805
     9  N   -0.116313
    10  N   -0.331904
    11  C   -0.078972
    12  C    0.035760
    13  C   -0.201860
    14  C    0.084053
    15  C   -0.090049
    16  C    0.119999
    17  C   -0.155319
    18  C   -0.197290
    19  C    0.099675
    20  C   -0.061351
    21  C    0.025471
    22  C    0.073002
    23  C    0.001325
    24  C    0.069439
    25  C   -0.082233
    26  C    0.123283
    27  C    0.106499
    28  C   -0.048150
    29  C   -0.021973
    30  C    0.279954
    31  C   -0.097707
    32  C    0.166464
    33  C   -0.090155
    34  C    0.053233
    35  C   -0.060954
    36  C   -0.119877
    37  C    0.140908
    38  C    0.048232
    39  C    0.152658
    40  C    0.109090
    41  C    0.168933
    42  C    0.152239
    43  C   -0.118358
    44  H    0.230357
    45  H    0.058274
    46  H    0.024093
    47  H   -0.005696
    48  H    0.019501
    49  H    0.014734
    50  H    0.050415
    51  H   -0.012211
    52  H    0.116681
    53  H   -0.003776
    54  H    0.028819
    55  H    0.002613
    56  H    0.141476
    57  H    0.046143
    58  H    0.064087
    59  H    0.086447
    60  H    0.024842
    61  H    0.026168
    62  H   -0.041361
    63  H   -0.021170
    64  H   -0.052949
    65  H   -0.016553
    66  H    0.011835
    67  H   -0.030104
    68  H   -0.041350
    69  H    0.042528
    70  H    0.010516
    71  H    0.040178
    72  H    0.016762
    73  H    0.037736
    74  H   -0.011004
    75  H   -0.034364
    76  H   -0.008741
    77  H    0.023769
    78  H    0.003131
    79  H    0.056357
    80  H    0.222889
    81  H    0.150445
 Sum of Mulliken charges =  -0.00000

 Dipole moment (field-independent basis, Debye):
    X=             -2.8174    Y=              2.5161    Z=             -1.1510  Tot=              3.9488
 Quadrupole moment (field-independent basis, Debye-Ang):
   XX=           -252.4544   YY=           -233.4357   ZZ=           -253.1999
   XY=             20.8668   XZ=             13.5758   YZ=            -11.3781

 Normal termination of Gaussian 16 at Mon Jul  1 10:33:41 2019.
