 Gaussian 16, Revision A.03,
 Gaussian 16:  ES64L-G16RevA.03 25-Dec-2016

 --------------------------
 # td=(NStates=1) B3LYP/SVP
 --------------------------

 --
 TD
 --
 Symbolic Z-matrix:
 Charge =  0 Multiplicity = 1

                         Standard orientation:
 ---------------------------------------------------------------------
 Center     Atomic      Atomic             Coordinates (Angstroms)
 Number     Number       Type             X           Y           Z
 ---------------------------------------------------------------------
      1          8           0        4.040592   -4.987781   -1.691730
      2          8           0       -3.128697   -5.112052   -0.849078
      3          8           0       -6.706168   -1.463772   -2.149854
      4          8           0       -3.596289   -2.991258   -0.106590
      5          8           0       -7.434602   -0.641724   -0.152607
      6          8           0        3.115807    2.274217    0.258366
      7          7           0        0.100283   -0.547045    0.626830
      8          7           0       -1.557909    2.016750    0.396687
      9          7           0        3.100418   -3.171896   -0.587328
     10          7           0        0.891362    2.836370   -0.008698
     11          6           0       -0.686077   -2.350143    1.471861
     12          6           0       -1.029442   -1.059383    0.956401
     13          6           0        0.709291   -2.638929    1.294249
     14          6           0        1.202217   -1.421200    0.774689
     15          6           0       -3.764857    1.670267    0.223248
     16          6           0       -2.495796    0.879506    0.587303
     17          6           0       -2.342983   -0.405645    0.944063
     18          6           0       -3.588446    2.977962   -0.034188
     19          6           0       -1.661475   -3.306724    2.163210
     20          6           0        5.320676   -2.829460   -1.433965
     21          6           0        3.471238   -1.876134   -0.105713
     22          6           0       -2.067395    3.189902    0.068740
     23          6           0        4.862813   -1.660192   -0.618521
     24          6           0       -5.137665    0.977187    0.185690
     25          6           0        2.529147   -1.026911    0.386405
     26          6           0        1.432932   -3.751519    1.832313
     27          6           0        4.139725   -3.864137   -1.284695
     28          6           0       -2.144365   -4.519908    1.332896
     29          6           0       -5.259485   -0.111430   -0.967142
     30          6           0       -4.510036    4.037118   -0.378663
     31          6           0       -1.186167    4.262417   -0.216208
     32          6           0        6.678992   -3.467813   -1.132693
     33          6           0        5.812874   -0.694600   -0.244222
     34          6           0        0.186361    4.089140   -0.178755
     35          6           0        1.164642    5.094590   -0.357320
     36          6           0        2.465819    4.619100   -0.218195
     37          6           0       -2.946076   -3.994018    0.071328
     38          6           0        5.547059    0.469819    0.688895
     39          6           0       -6.542804   -0.796791   -0.978416
     40          6           0        3.778854    5.194855   -0.325504
     41          6           0        2.207416    3.097968   -0.002216
     42          6           0        0.689559    6.624999   -0.547939
     43          6           0        4.441548    5.377043    0.944046
     44          1           0        0.087434    0.390301    0.144232
     45          1           0       -3.116190   -0.987893    1.136532
     46          1           0       -2.577142   -2.655312    2.659851
     47          1           0       -1.034908   -3.487947    3.085265
     48          1           0        5.375857   -2.431955   -2.520009
     49          1           0       -5.158385    0.320036    1.051802
     50          1           0       -6.064823    1.714706    0.183488
     51          1           0        3.066872    0.001803    0.418814
     52          1           0       -0.568707    2.056673    0.536098
     53          1           0        1.146987   -4.534813    1.218913
     54          1           0        2.458401   -3.283945    1.425606
     55          1           0        1.236293   -4.046245    3.000243
     56          1           0        2.191967   -3.464510   -0.362126
     57          1           0       -1.305905   -5.079190    0.775842
     58          1           0       -2.655568   -5.266150    1.916233
     59          1           0       -4.406105   -0.829464   -0.981237
     60          1           0       -5.047086    0.531323   -1.892922
     61          1           0       -4.542535    4.777724    0.453382
     62          1           0       -5.500778    3.657025   -0.533653
     63          1           0       -4.475969    4.289567   -1.343096
     64          1           0       -1.636820    5.079196   -0.429476
     65          1           0        7.494381   -2.703617   -1.227171
     66          1           0        7.053583   -4.278503   -1.782090
     67          1           0        6.766911   -4.025607   -0.134530
     68          1           0        6.826336   -0.672033   -0.579150
     69          1           0        4.898854    1.124041    0.114622
     70          1           0        6.518053    1.025556    0.945810
     71          1           0        4.894423    0.084109    1.480889
     72          1           0        3.645958    6.237419   -0.865481
     73          1           0        4.282270    4.540548   -1.061520
     74          1           0        0.351709    6.637921   -1.532692
     75          1           0        1.590728    7.355623   -0.415016
     76          1           0       -0.241134    6.848448    0.014551
     77          1           0        3.940805    6.095416    1.515883
     78          1           0        5.556614    5.839797    0.883746
     79          1           0        4.614132    4.317371    1.332624
     80          1           0       -3.834987   -4.811875   -1.456733
     81          1           0       -7.564315   -1.647473   -2.043882
 ---------------------------------------------------------------------

 SCF Done:  E(RB3LYP) =  -1949.08237779     A.U. after   17 cycles

 Excitation energies and oscillator strengths:

 Excited State   1:      Singlet-A      1.6607 eV  746.56 nm  f=0.2259  <S**2>=0.000
     156 ->157         0.70691
 This state for optimization and/or second-order correction.
 Total Energy, E(TD-HF/TD-DFT) =  -1949.02134663
 Copying the excited state density for this state as the 1-particle RhoCI density.

 The electronic state is 1-A.
 Alpha  occ. eigenvalues --  -19.18541 -19.17916 -19.16351 -19.13726 -19.11027
 Alpha  occ. eigenvalues --  -19.09537 -14.37698 -14.37248 -14.35423 -14.28678
 Alpha  occ. eigenvalues --  -10.34839 -10.32723 -10.29255 -10.25965 -10.25889
 Alpha  occ. eigenvalues --  -10.25589 -10.23791 -10.23766 -10.23738 -10.23582
 Alpha  occ. eigenvalues --  -10.22716 -10.22481 -10.21967 -10.21965 -10.21446
 Alpha  occ. eigenvalues --  -10.21337 -10.21138 -10.21073 -10.20270 -10.19984
 Alpha  occ. eigenvalues --  -10.19945 -10.19902 -10.19651 -10.19597 -10.19421
 Alpha  occ. eigenvalues --  -10.19329 -10.19326 -10.19096 -10.19037 -10.19022
 Alpha  occ. eigenvalues --  -10.18728 -10.18155 -10.17052  -1.12147  -1.09238
 Alpha  occ. eigenvalues --   -1.03407  -1.01702  -1.00672  -0.99784  -0.99331
 Alpha  occ. eigenvalues --   -0.98185  -0.93664  -0.90327  -0.83371  -0.82851
 Alpha  occ. eigenvalues --   -0.81692  -0.80678  -0.80340  -0.79675  -0.78536
 Alpha  occ. eigenvalues --   -0.77757  -0.76988  -0.75028  -0.74197  -0.73202
 Alpha  occ. eigenvalues --   -0.72601  -0.69926  -0.69269  -0.68280  -0.68115
 Alpha  occ. eigenvalues --   -0.67136  -0.66186  -0.63646  -0.62846  -0.61425
 Alpha  occ. eigenvalues --   -0.59778  -0.59315  -0.59015  -0.57685  -0.57518
 Alpha  occ. eigenvalues --   -0.55891  -0.55351  -0.54401  -0.54077  -0.52860
 Alpha  occ. eigenvalues --   -0.52374  -0.51945  -0.51249  -0.50725  -0.50491
 Alpha  occ. eigenvalues --   -0.49840  -0.49263  -0.48978  -0.48437  -0.48001
 Alpha  occ. eigenvalues --   -0.47802  -0.47478  -0.46674  -0.46139  -0.45416
 Alpha  occ. eigenvalues --   -0.45322  -0.44819  -0.44417  -0.44242  -0.43863
 Alpha  occ. eigenvalues --   -0.43834  -0.43368  -0.43147  -0.42940  -0.42748
 Alpha  occ. eigenvalues --   -0.42306  -0.42140  -0.42099  -0.41724  -0.41258
 Alpha  occ. eigenvalues --   -0.41211  -0.40746  -0.40553  -0.40444  -0.40121
 Alpha  occ. eigenvalues --   -0.39743  -0.39461  -0.38895  -0.38659  -0.38171
 Alpha  occ. eigenvalues --   -0.37935  -0.37300  -0.37011  -0.36852  -0.36504
 Alpha  occ. eigenvalues --   -0.36486  -0.35617  -0.35398  -0.35207  -0.34720
 Alpha  occ. eigenvalues --   -0.34136  -0.33519  -0.33459  -0.33352  -0.33025
 Alpha  occ. eigenvalues --   -0.32932  -0.32318  -0.32267  -0.30674  -0.30146
 Alpha  occ. eigenvalues --   -0.29367  -0.26937  -0.26515  -0.26074  -0.25695
 Alpha  occ. eigenvalues --   -0.24691  -0.24098  -0.23428  -0.22946  -0.21893
 Alpha  occ. eigenvalues --   -0.18153
 Alpha virt. eigenvalues --   -0.11117  -0.06029  -0.04034  -0.03421  -0.01511
 Alpha virt. eigenvalues --    0.00177   0.02025   0.02956   0.03738   0.03979
 Alpha virt. eigenvalues --    0.04225   0.05048   0.05209   0.05910   0.06850

 Mulliken charges:
               1
     1  O   -0.182949
     2  O   -0.264242
     3  O   -0.117623
     4  O   -0.200760
     5  O   -0.242290
     6  O   -0.252922
     7  N   -0.010792
     8  N   -0.097719
     9  N   -0.171096
    10  N   -0.325506
    11  C   -0.173203
    12  C   -0.033449
    13  C   -0.160676
    14  C    0.071219
    15  C   -0.086574
    16  C    0.183296
    17  C    0.059035
    18  C   -0.160365
    19  C    0.028777
    20  C   -0.075594
    21  C    0.025116
    22  C    0.022407
    23  C   -0.013139
    24  C    0.068615
    25  C   -0.075716
    26  C    0.060956
    27  C    0.172608
    28  C    0.029617
    29  C   -0.069984
    30  C    0.224992
    31  C   -0.029452
    32  C    0.026880
    33  C   -0.152150
    34  C    0.179996
    35  C   -0.127065
    36  C   -0.184935
    37  C    0.182481
    38  C    0.054304
    39  C    0.161771
    40  C    0.062609
    41  C    0.152587
    42  C    0.113049
    43  C    0.004286
    44  H    0.145688
    45  H   -0.071580
    46  H    0.033533
    47  H    0.021803
    48  H    0.055499
    49  H    0.010331
    50  H    0.048512
    51  H    0.036542
    52  H    0.116690
    53  H    0.005111
    54  H    0.063257
    55  H    0.064504
    56  H    0.097011
    57  H    0.058350
    58  H    0.056482
    59  H    0.068760
    60  H    0.045873
    61  H    0.049448
    62  H   -0.036969
    63  H   -0.018033
    64  H   -0.125087
    65  H    0.015230
    66  H    0.019269
    67  H    0.021154
    68  H   -0.013594
    69  H    0.070217
    70  H    0.018411
    71  H    0.032025
    72  H   -0.002656
    73  H    0.022370
    74  H   -0.004481
    75  H    0.040044
    76  H    0.021851
    77  H    0.001307
    78  H    0.011164
    79  H    0.047365
    80  H    0.182867
    81  H    0.115333
 Sum of Mulliken charges =  -0.00000

 Dipole moment (field-independent basis, Debye):
    X=             -3.9093    Y=              2.5431    Z=             -0.1061  Tot=              4.6648
 Quadrupole moment (field-independent basis, Debye-Ang):
   XX=           -247.4426   YY=           -245.6513   ZZ=           -254.1810
   XY=              8.7501   XZ=              9.4046   YZ=            -15.6479

 Normal termination of Gaussian 16 at Sun Jun 30 03:17:03 2019.
