 Gaussian 16, Revision A.03,
 Gaussian 16:  ES64L-G16RevA.03 25-Dec-2016

 --------------------------
 # td=(NStates=1) B3LYP/SVP
 --------------------------

 --
 TD
 --
 Symbolic Z-matrix:
 Charge =  0 Multiplicity = 1

                         Standard orientation:
 ---------------------------------------------------------------------
 Center     Atomic      Atomic             Coordinates (Angstroms)
 Number     Number       Type             X           Y           Z
 ---------------------------------------------------------------------
      1          8           0        4.185208   -4.716385   -1.816999
      2          8           0       -2.733476   -4.918372   -1.108690
      3          8           0       -7.121205   -1.761885   -1.709576
      4          8           0       -3.574839   -3.146963   -0.067272
      5          8           0       -7.832979   -0.348013   -0.059097
      6          8           0        2.931471    2.232726    0.149392
      7          7           0        0.347226   -0.372154    0.599972
      8          7           0       -1.610113    1.760860    0.324013
      9          7           0        3.244213   -3.014652   -0.729772
     10          7           0        0.736654    2.839218   -0.026020
     11          6           0       -0.527837   -2.274594    1.349152
     12          6           0       -0.858182   -0.989959    0.998828
     13          6           0        0.887772   -2.471880    1.233791
     14          6           0        1.363781   -1.338675    0.759562
     15          6           0       -3.865705    1.467421    0.342868
     16          6           0       -2.581092    0.879849    0.530136
     17          6           0       -2.220225   -0.450650    0.827697
     18          6           0       -3.596153    2.735201   -0.024148
     19          6           0       -1.507991   -3.311961    1.999971
     20          6           0        5.544464   -2.731713   -1.239357
     21          6           0        3.580346   -1.713355   -0.363963
     22          6           0       -2.143905    2.988338    0.002394
     23          6           0        4.993814   -1.487379   -0.509838
     24          6           0       -5.186653    0.754270    0.424831
     25          6           0        2.659977   -0.903841    0.376011
     26          6           0        1.574181   -3.691253    1.819083
     27          6           0        4.336828   -3.709568   -1.308304
     28          6           0       -2.000432   -4.475947    1.031270
     29          6           0       -5.503598   -0.280595   -0.760879
     30          6           0       -4.589161    3.837676   -0.346581
     31          6           0       -1.355516    4.035797   -0.318978
     32          6           0        6.702264   -3.464382   -0.720918
     33          6           0        5.850262   -0.499899   -0.022046
     34          6           0        0.143477    3.931103   -0.268435
     35          6           0        1.082983    5.147345   -0.463895
     36          6           0        2.283354    4.608992   -0.273073
     37          6           0       -2.860222   -4.089164   -0.049788
     38          6           0        5.485665    0.686090    0.739944
     39          6           0       -6.944288   -0.701184   -0.785995
     40          6           0        3.691235    5.173307   -0.313912
     41          6           0        2.103124    3.143382    0.004976
     42          6           0        0.768452    6.463167   -0.786205
     43          6           0        4.342923    5.333900    1.006605
     44          1           0        0.587591    0.399901    0.088058
     45          1           0       -3.140923   -0.901104    0.961438
     46          1           0       -2.476521   -2.854045    2.400720
     47          1           0       -1.094821   -3.815433    2.912872
     48          1           0        5.775604   -2.463688   -2.277727
     49          1           0       -5.179421    0.171848    1.349394
     50          1           0       -6.035257    1.434301    0.463496
     51          1           0        2.832479    0.233308    0.125701
     52          1           0       -0.600141    1.765012    0.436490
     53          1           0        1.547557   -4.446345    1.046782
     54          1           0        2.743011   -3.586721    1.834786
     55          1           0        1.149557   -3.861151    2.828975
     56          1           0        2.180930   -3.280844   -0.751379
     57          1           0       -1.051558   -5.152914    0.883439
     58          1           0       -2.580873   -5.300985    1.618096
     59          1           0       -4.865411   -1.196477   -0.801701
     60          1           0       -5.315529    0.112039   -1.810129
     61          1           0       -4.453472    4.788176    0.194247
     62          1           0       -5.675311    3.680319   -0.206738
     63          1           0       -4.455435    4.206991   -1.351552
     64          1           0       -1.870819    4.994958   -0.748225
     65          1           0        7.549366   -2.769693   -1.007887
     66          1           0        7.171286   -4.300597   -1.250884
     67          1           0        6.516864   -3.636481    0.309719
     68          1           0        6.848818   -0.847466   -0.375916
     69          1           0        4.948699    1.332831    0.186889
     70          1           0        6.498788    1.099914    1.127794
     71          1           0        4.709720    0.337814    1.432009
     72          1           0        3.785544    6.315910   -0.842246
     73          1           0        4.182071    4.404611   -0.643870
     74          1           0       -0.180898    6.529752   -1.579645
     75          1           0        1.636994    7.202500   -1.181917
     76          1           0        0.228839    6.950029    0.137465
     77          1           0        3.879181    6.056211    1.668939
     78          1           0        5.401100    5.810705    0.829981
     79          1           0        4.367001    4.462608    1.788601
     80          1           0       -3.299400   -4.724857   -1.923326
     81          1           0       -8.048166   -1.971749   -1.496985
 ---------------------------------------------------------------------

 SCF Done:  E(RB3LYP) =  -1949.12034189     A.U. after   16 cycles

 Excitation energies and oscillator strengths:

 Excited State   1:      Singlet-A      1.5579 eV  795.86 nm  f=0.2036  <S**2>=0.000
     156 ->157         0.70403
     156 <-157        -0.10412
 This state for optimization and/or second-order correction.
 Total Energy, E(TD-HF/TD-DFT) =  -1949.06309122
 Copying the excited state density for this state as the 1-particle RhoCI density.

 The electronic state is 1-A.
 Alpha  occ. eigenvalues --  -19.17902 -19.17220 -19.13725 -19.13166 -19.12103
 Alpha  occ. eigenvalues --  -19.11205 -14.35593 -14.35456 -14.34984 -14.30346
 Alpha  occ. eigenvalues --  -10.32340 -10.32209 -10.28235 -10.28210 -10.24512
 Alpha  occ. eigenvalues --  -10.23390 -10.23069 -10.23003 -10.22467 -10.22388
 Alpha  occ. eigenvalues --  -10.21871 -10.21470 -10.21240 -10.21154 -10.20969
 Alpha  occ. eigenvalues --  -10.20537 -10.20386 -10.20173 -10.20097 -10.19855
 Alpha  occ. eigenvalues --  -10.19732 -10.19695 -10.19654 -10.19530 -10.19476
 Alpha  occ. eigenvalues --  -10.19410 -10.19219 -10.19100 -10.18828 -10.18378
 Alpha  occ. eigenvalues --  -10.17840 -10.17356 -10.16921  -1.10076  -1.08680
 Alpha  occ. eigenvalues --   -1.07293  -1.02669  -1.01308  -1.00359  -0.99180
 Alpha  occ. eigenvalues --   -0.96583  -0.94624  -0.93649  -0.82658  -0.81848
 Alpha  occ. eigenvalues --   -0.81349  -0.80930  -0.80511  -0.78308  -0.77399
 Alpha  occ. eigenvalues --   -0.77309  -0.77058  -0.76314  -0.73478  -0.71947
 Alpha  occ. eigenvalues --   -0.71121  -0.70050  -0.69644  -0.68622  -0.68260
 Alpha  occ. eigenvalues --   -0.66845  -0.64581  -0.63786  -0.62018  -0.61236
 Alpha  occ. eigenvalues --   -0.60461  -0.59045  -0.57786  -0.57110  -0.56554
 Alpha  occ. eigenvalues --   -0.55988  -0.55441  -0.54615  -0.53278  -0.52985
 Alpha  occ. eigenvalues --   -0.52391  -0.51951  -0.51290  -0.49837  -0.49207
 Alpha  occ. eigenvalues --   -0.48835  -0.48701  -0.48280  -0.48038  -0.47761
 Alpha  occ. eigenvalues --   -0.47619  -0.46725  -0.46184  -0.45736  -0.45456
 Alpha  occ. eigenvalues --   -0.45252  -0.44589  -0.44350  -0.44125  -0.43861
 Alpha  occ. eigenvalues --   -0.43392  -0.43024  -0.42830  -0.42562  -0.41728
 Alpha  occ. eigenvalues --   -0.41608  -0.41312  -0.41185  -0.40941  -0.40656
 Alpha  occ. eigenvalues --   -0.40546  -0.40461  -0.39944  -0.39771  -0.39629
 Alpha  occ. eigenvalues --   -0.39230  -0.38633  -0.38512  -0.38190  -0.38043
 Alpha  occ. eigenvalues --   -0.37917  -0.37500  -0.37422  -0.36816  -0.36596
 Alpha  occ. eigenvalues --   -0.36110  -0.35890  -0.35727  -0.34948  -0.34271
 Alpha  occ. eigenvalues --   -0.34077  -0.33819  -0.33457  -0.33358  -0.32988
 Alpha  occ. eigenvalues --   -0.32945  -0.32559  -0.32387  -0.29773  -0.29326
 Alpha  occ. eigenvalues --   -0.29154  -0.28874  -0.26455  -0.26174  -0.25877
 Alpha  occ. eigenvalues --   -0.25605  -0.24844  -0.24633  -0.24327  -0.20553
 Alpha  occ. eigenvalues --   -0.16707
 Alpha virt. eigenvalues --   -0.10132  -0.05928  -0.03865  -0.00357  -0.00067
 Alpha virt. eigenvalues --    0.01034   0.02648   0.03043   0.03622   0.03945
 Alpha virt. eigenvalues --    0.04364   0.05062   0.06042   0.06132   0.06490

 Mulliken charges:
               1
     1  O   -0.110853
     2  O   -0.224279
     3  O   -0.232183
     4  O   -0.182018
     5  O   -0.213453
     6  O   -0.212206
     7  N   -0.097053
     8  N   -0.044384
     9  N   -0.192310
    10  N   -0.222434
    11  C   -0.085507
    12  C    0.144396
    13  C   -0.216757
    14  C    0.080212
    15  C   -0.044175
    16  C   -0.044953
    17  C    0.032273
    18  C   -0.105426
    19  C    0.075131
    20  C   -0.090506
    21  C    0.041064
    22  C    0.092685
    23  C   -0.060844
    24  C    0.139520
    25  C   -0.152216
    26  C    0.115346
    27  C    0.098934
    28  C   -0.076163
    29  C   -0.033030
    30  C    0.089309
    31  C   -0.151321
    32  C    0.074865
    33  C   -0.136040
    34  C    0.026336
    35  C   -0.044249
    36  C   -0.194619
    37  C    0.155256
    38  C    0.169245
    39  C    0.143415
    40  C    0.208575
    41  C    0.166459
    42  C   -0.044419
    43  C   -0.073215
    44  H    0.100847
    45  H   -0.065064
    46  H    0.020256
    47  H    0.004696
    48  H    0.029619
    49  H    0.020940
    50  H    0.010643
    51  H    0.065019
    52  H    0.129352
    53  H    0.005396
    54  H    0.025908
    55  H    0.043513
    56  H    0.167617
    57  H    0.045625
    58  H    0.052232
    59  H    0.064367
    60  H    0.039975
    61  H    0.009074
    62  H    0.015608
    63  H    0.004169
    64  H   -0.001235
    65  H    0.004836
    66  H    0.019038
    67  H    0.015448
    68  H   -0.019810
    69  H    0.017461
    70  H    0.025351
    71  H    0.028503
    72  H    0.028677
    73  H   -0.046228
    74  H    0.039174
    75  H    0.057116
    76  H    0.046949
    77  H   -0.010106
    78  H    0.022258
    79  H    0.039534
    80  H    0.206550
    81  H    0.168289
 Sum of Mulliken charges =  -0.00000

 Dipole moment (field-independent basis, Debye):
    X=             -1.2645    Y=              1.9067    Z=             -0.6589  Tot=              2.3809
 Quadrupole moment (field-independent basis, Debye-Ang):
   XX=           -252.7727   YY=           -230.7907   ZZ=           -253.1655
   XY=             13.6767   XZ=              7.8929   YZ=            -11.3610

 Normal termination of Gaussian 16 at Thu Jun 27 03:15:45 2019.
