 Gaussian 16, Revision A.03,
 Gaussian 16:  ES64L-G16RevA.03 25-Dec-2016

 --------------------------
 # td=(NStates=1) B3LYP/SVP
 --------------------------

 --
 TD
 --
 Symbolic Z-matrix:
 Charge =  0 Multiplicity = 1

                         Standard orientation:
 ---------------------------------------------------------------------
 Center     Atomic      Atomic             Coordinates (Angstroms)
 Number     Number       Type             X           Y           Z
 ---------------------------------------------------------------------
      1          8           0        4.273773   -4.874027   -1.879919
      2          8           0       -3.091288   -5.002843   -0.996515
      3          8           0       -6.924377   -1.646229   -1.831476
      4          8           0       -3.872967   -3.134929   -0.079837
      5          8           0       -7.592528   -0.573750   -0.069215
      6          8           0        3.039444    2.379740    0.351612
      7          7           0        0.244147   -0.413121    0.601900
      8          7           0       -1.620038    1.892079    0.521390
      9          7           0        3.218738   -3.166073   -0.684218
     10          7           0        0.817016    2.932179    0.127974
     11          6           0       -0.610917   -2.368776    1.354944
     12          6           0       -0.973724   -0.997320    0.890170
     13          6           0        0.719694   -2.529810    1.101279
     14          6           0        1.312339   -1.323070    0.704638
     15          6           0       -3.905354    1.589788    0.408150
     16          6           0       -2.562797    0.944080    0.647783
     17          6           0       -2.219026   -0.409974    0.901008
     18          6           0       -3.592107    2.915050    0.050614
     19          6           0       -1.669430   -3.265348    1.984775
     20          6           0        5.470228   -2.867143   -1.239284
     21          6           0        3.590632   -1.914756   -0.168260
     22          6           0       -2.210013    3.123356    0.112686
     23          6           0        4.984414   -1.730560   -0.403310
     24          6           0       -5.238808    0.863357    0.359130
     25          6           0        2.637396   -1.033802    0.291237
     26          6           0        1.484590   -3.713089    1.653593
     27          6           0        4.317797   -3.849623   -1.222317
     28          6           0       -2.165326   -4.435893    1.148970
     29          6           0       -5.433175   -0.067827   -0.860106
     30          6           0       -4.446844    3.961099   -0.558322
     31          6           0       -1.294964    4.221350   -0.174741
     32          6           0        6.891561   -3.536895   -0.764480
     33          6           0        5.818286   -0.723953   -0.086198
     34          6           0        0.140042    4.085136   -0.236702
     35          6           0        1.250981    5.190842   -0.522233
     36          6           0        2.392106    4.574448   -0.272303
     37          6           0       -3.140771   -4.101366   -0.037538
     38          6           0        5.544916    0.573085    0.671841
     39          6           0       -6.713829   -0.732842   -0.836274
     40          6           0        3.723297    5.200284   -0.422588
     41          6           0        2.158673    3.149706    0.060972
     42          6           0        0.779408    6.454938   -0.882159
     43          6           0        4.550732    5.383428    0.974101
     44          1           0        0.331901    0.491282    0.142598
     45          1           0       -3.050299   -0.998016    1.278738
     46          1           0       -2.515830   -2.766557    2.249618
     47          1           0       -1.162448   -3.415981    3.013197
     48          1           0        5.497024   -2.567395   -2.361351
     49          1           0       -5.469896    0.326063    1.254733
     50          1           0       -5.967417    1.651875    0.197764
     51          1           0        3.045944   -0.003995    0.362439
     52          1           0       -0.503257    1.913325    0.512104
     53          1           0        1.401083   -4.670941    0.987046
     54          1           0        2.589771   -3.402043    1.853409
     55          1           0        1.002232   -4.048725    2.617376
     56          1           0        2.130996   -3.501085   -0.976504
     57          1           0       -1.320667   -4.921277    0.760167
     58          1           0       -2.597484   -5.161879    1.906762
     59          1           0       -4.607243   -0.822899   -0.927304
     60          1           0       -5.499374    0.559208   -1.695025
     61          1           0       -4.121511    5.081433   -0.165164
     62          1           0       -5.592138    3.871305   -0.405044
     63          1           0       -4.488266    3.796151   -1.721249
     64          1           0       -1.703837    5.185898   -0.559812
     65          1           0        7.739422   -2.853572   -1.069390
     66          1           0        7.119588   -4.454022   -1.410648
     67          1           0        6.862441   -3.619742    0.328637
     68          1           0        7.015548   -0.971596   -0.311260
     69          1           0        4.991126    1.399555    0.191741
     70          1           0        6.589432    1.023752    1.048316
     71          1           0        4.922209    0.285731    1.595765
     72          1           0        3.699953    6.271333   -0.929837
     73          1           0        4.370946    4.684246   -0.983470
     74          1           0        0.186897    6.502166   -1.828346
     75          1           0        1.611126    7.323992   -0.793841
     76          1           0       -0.105596    6.952634   -0.230427
     77          1           0        4.213040    6.167064    1.679828
     78          1           0        5.664071    5.508308    0.608748
     79          1           0        4.589406    4.288688    1.496207
     80          1           0       -3.855642   -4.886112   -1.514762
     81          1           0       -7.828786   -1.884712   -1.902724
 ---------------------------------------------------------------------

 SCF Done:  E(RB3LYP) =  -1949.17007789     A.U. after   17 cycles

 Excitation energies and oscillator strengths:

 Excited State   1:      Singlet-A      1.7047 eV  727.31 nm  f=0.4089  <S**2>=0.000
     156 ->157         0.71578
     156 <-157        -0.15266
 This state for optimization and/or second-order correction.
 Total Energy, E(TD-HF/TD-DFT) =  -1949.10743106
 Copying the excited state density for this state as the 1-particle RhoCI density.

 The electronic state is 1-A.
 Alpha  occ. eigenvalues --  -19.20473 -19.16087 -19.14566 -19.11856 -19.11022
 Alpha  occ. eigenvalues --  -19.09564 -14.38134 -14.38012 -14.35363 -14.28911
 Alpha  occ. eigenvalues --  -10.34397 -10.30974 -10.29060 -10.25690 -10.24895
 Alpha  occ. eigenvalues --  -10.24530 -10.23651 -10.23555 -10.23381 -10.23220
 Alpha  occ. eigenvalues --  -10.22290 -10.21757 -10.21592 -10.21557 -10.21199
 Alpha  occ. eigenvalues --  -10.21190 -10.21153 -10.21139 -10.20750 -10.20579
 Alpha  occ. eigenvalues --  -10.20529 -10.20048 -10.19969 -10.19961 -10.19957
 Alpha  occ. eigenvalues --  -10.19831 -10.19768 -10.19326 -10.19271 -10.19265
 Alpha  occ. eigenvalues --  -10.19216 -10.18478 -10.17602  -1.13446  -1.09902
 Alpha  occ. eigenvalues --   -1.03168  -1.02866  -1.01841  -1.00317  -0.98154
 Alpha  occ. eigenvalues --   -0.96325  -0.95079  -0.90616  -0.82888  -0.81840
 Alpha  occ. eigenvalues --   -0.81571  -0.81458  -0.79756  -0.79295  -0.78138
 Alpha  occ. eigenvalues --   -0.77417  -0.75778  -0.74318  -0.73417  -0.71590
 Alpha  occ. eigenvalues --   -0.70915  -0.69559  -0.69237  -0.68116  -0.67620
 Alpha  occ. eigenvalues --   -0.67160  -0.65163  -0.64120  -0.63110  -0.61445
 Alpha  occ. eigenvalues --   -0.60508  -0.59593  -0.58911  -0.58037  -0.57287
 Alpha  occ. eigenvalues --   -0.55456  -0.55302  -0.54800  -0.53156  -0.52455
 Alpha  occ. eigenvalues --   -0.52169  -0.51890  -0.51176  -0.50954  -0.50514
 Alpha  occ. eigenvalues --   -0.49932  -0.49343  -0.49096  -0.47692  -0.47096
 Alpha  occ. eigenvalues --   -0.46918  -0.46727  -0.46510  -0.45498  -0.45201
 Alpha  occ. eigenvalues --   -0.44906  -0.44350  -0.43988  -0.43878  -0.43447
 Alpha  occ. eigenvalues --   -0.43133  -0.42858  -0.42653  -0.42323  -0.42068
 Alpha  occ. eigenvalues --   -0.41962  -0.41644  -0.41334  -0.40822  -0.40511
 Alpha  occ. eigenvalues --   -0.40388  -0.40104  -0.39710  -0.39601  -0.39303
 Alpha  occ. eigenvalues --   -0.39076  -0.38923  -0.38705  -0.38553  -0.38070
 Alpha  occ. eigenvalues --   -0.37555  -0.37323  -0.37107  -0.36827  -0.36391
 Alpha  occ. eigenvalues --   -0.36182  -0.35709  -0.35637  -0.35430  -0.35252
 Alpha  occ. eigenvalues --   -0.34528  -0.34500  -0.33844  -0.33171  -0.33079
 Alpha  occ. eigenvalues --   -0.32240  -0.32061  -0.31884  -0.30139  -0.29727
 Alpha  occ. eigenvalues --   -0.27604  -0.27099  -0.26823  -0.26330  -0.25987
 Alpha  occ. eigenvalues --   -0.25168  -0.24714  -0.24136  -0.23256  -0.21681
 Alpha  occ. eigenvalues --   -0.17317
 Alpha virt. eigenvalues --   -0.10849  -0.05666  -0.04284  -0.01905  -0.01459
 Alpha virt. eigenvalues --    0.01247   0.01703   0.01973   0.03333   0.03890
 Alpha virt. eigenvalues --    0.03918   0.04693   0.04881   0.05139   0.05500

 Mulliken charges:
               1
     1  O   -0.218240
     2  O   -0.113772
     3  O   -0.198254
     4  O   -0.221010
     5  O   -0.195754
     6  O   -0.209068
     7  N   -0.082657
     8  N   -0.161029
     9  N   -0.212153
    10  N   -0.328430
    11  C   -0.106475
    12  C    0.072045
    13  C   -0.200754
    14  C    0.125817
    15  C   -0.083444
    16  C    0.036606
    17  C   -0.039397
    18  C   -0.085932
    19  C    0.126130
    20  C   -0.113908
    21  C    0.102148
    22  C    0.090878
    23  C    0.029753
    24  C    0.131351
    25  C   -0.102268
    26  C    0.029571
    27  C    0.144698
    28  C    0.043798
    29  C    0.043628
    30  C   -0.025605
    31  C   -0.076273
    32  C    0.018721
    33  C   -0.186665
    34  C    0.031740
    35  C    0.022825
    36  C   -0.160757
    37  C    0.120441
    38  C   -0.003487
    39  C    0.085970
    40  C    0.088376
    41  C    0.159119
    42  C   -0.019378
    43  C   -0.101848
    44  H    0.127407
    45  H   -0.002371
    46  H   -0.030598
    47  H    0.031296
    48  H    0.073322
    49  H    0.016282
    50  H   -0.009798
    51  H    0.013692
    52  H    0.182930
    53  H    0.029228
    54  H    0.053872
    55  H    0.018367
    56  H    0.204484
    57  H    0.004429
    58  H    0.053947
    59  H    0.068662
    60  H    0.011242
    61  H    0.059242
    62  H    0.022068
    63  H    0.043279
    64  H   -0.022351
    65  H    0.026070
    66  H    0.047693
    67  H    0.033422
    68  H    0.032150
    69  H    0.084817
    70  H    0.022683
    71  H    0.045050
    72  H    0.006289
    73  H   -0.030032
    74  H    0.029623
    75  H    0.034543
    76  H    0.033444
    77  H    0.034550
    78  H    0.017999
    79  H    0.048783
    80  H    0.166390
    81  H    0.160836
 Sum of Mulliken charges =  -0.00000

 Dipole moment (field-independent basis, Debye):
    X=             -2.3125    Y=             -1.1839    Z=             -0.9514  Tot=              2.7667
 Quadrupole moment (field-independent basis, Debye-Ang):
   XX=           -250.2834   YY=           -243.7994   ZZ=           -253.6637
   XY=             13.8719   XZ=             14.3579   YZ=            -15.8574

 Normal termination of Gaussian 16 at Mon Jul  1 06:12:16 2019.
