 Gaussian 16, Revision A.03,
 Gaussian 16:  ES64L-G16RevA.03 25-Dec-2016

 --------------------------
 # td=(NStates=1) B3LYP/SVP
 --------------------------

 --
 TD
 --
 Symbolic Z-matrix:
 Charge =  0 Multiplicity = 1

                         Standard orientation:
 ---------------------------------------------------------------------
 Center     Atomic      Atomic             Coordinates (Angstroms)
 Number     Number       Type             X           Y           Z
 ---------------------------------------------------------------------
      1          8           0       -4.153182   -4.795663    1.908904
      2          8           0        2.981168   -4.940710    1.197906
      3          8           0        7.016174   -1.255016    1.881983
      4          8           0        3.677052   -3.075836    0.034388
      5          8           0        7.479999   -0.638818   -0.283326
      6          8           0       -3.107307    2.380856   -0.425757
      7          7           0       -0.205336   -0.488932   -0.644786
      8          7           0        1.509935    1.848750   -0.187767
      9          7           0       -3.183598   -3.116638    0.686659
     10          7           0       -0.896673    2.889587   -0.148412
     11          6           0        0.686744   -2.459508   -1.362804
     12          6           0        1.046355   -1.136579   -1.045109
     13          6           0       -0.698548   -2.614924   -1.158747
     14          6           0       -1.204623   -1.467525   -0.676752
     15          6           0        3.782949    1.641534   -0.282223
     16          6           0        2.491139    0.919414   -0.500968
     17          6           0        2.257719   -0.420108   -0.932345
     18          6           0        3.445667    2.962211    0.027490
     19          6           0        1.691274   -3.365170   -1.961764
     20          6           0       -5.418255   -2.873151    1.261164
     21          6           0       -3.572420   -1.872899    0.216663
     22          6           0        2.067538    3.014157    0.085302
     23          6           0       -4.932208   -1.626769    0.566514
     24          6           0        5.075180    0.912658   -0.316098
     25          6           0       -2.590122   -0.998337   -0.402235
     26          6           0       -1.387867   -3.930588   -1.632984
     27          6           0       -4.222367   -3.754656    1.326408
     28          6           0        2.030601   -4.465635   -0.937935
     29          6           0        5.351059   -0.138722    0.814164
     30          6           0        4.427729    4.065509    0.375485
     31          6           0        1.173639    4.070880    0.341997
     32          6           0       -6.700917   -3.542882    0.703588
     33          6           0       -5.727757   -0.554770    0.010703
     34          6           0       -0.194659    4.058910    0.177268
     35          6           0       -1.094813    5.090575    0.415807
     36          6           0       -2.377778    4.679151    0.288447
     37          6           0        3.022335   -3.991963    0.060172
     38          6           0       -5.360023    0.573134   -0.864873
     39          6           0        6.705815   -0.716365    0.711001
     40          6           0       -3.794603    5.175771    0.427010
     41          6           0       -2.134245    3.103089   -0.137291
     42          6           0       -0.771620    6.571293    0.843934
     43          6           0       -4.364553    5.445832   -0.993821
     44          1           0       -0.324279    0.267187    0.000438
     45          1           0        3.017539   -1.035274   -0.808065
     46          1           0        2.545990   -2.848567   -2.151731
     47          1           0        1.284324   -3.953687   -2.737236
     48          1           0       -5.588249   -2.670907    2.256331
     49          1           0        5.251094    0.463232   -1.214488
     50          1           0        5.851556    1.609696   -0.332435
     51          1           0       -2.799387   -0.050284   -0.442451
     52          1           0        0.582769    1.705552   -0.502308
     53          1           0       -1.646725   -4.515417   -0.697769
     54          1           0       -2.478791   -3.760616   -1.963116
     55          1           0       -0.992100   -4.664386   -2.556311
     56          1           0       -2.132456   -3.313822    0.740269
     57          1           0        1.089292   -4.891530   -0.599599
     58          1           0        2.526090   -5.281124   -1.335511
     59          1           0        4.610881   -0.985986    0.648043
     60          1           0        5.285071    0.365679    1.816368
     61          1           0        4.234075    4.784449   -0.391284
     62          1           0        5.515277    3.951268    0.086525
     63          1           0        4.316686    4.579702    1.367958
     64          1           0        1.647532    4.981843    0.769849
     65          1           0       -7.512080   -2.813748    0.580009
     66          1           0       -7.006654   -4.394755    1.262103
     67          1           0       -6.471526   -3.986803   -0.359701
     68          1           0       -6.728125   -0.820297    0.483364
     69          1           0       -4.643718    1.241056   -0.553302
     70          1           0       -6.308768    1.005617   -1.374967
     71          1           0       -4.717705    0.112775   -1.739380
     72          1           0       -3.841662    6.219687    0.978305
     73          1           0       -4.372199    4.384163    0.998055
     74          1           0       -0.503291    6.636507    1.990503
     75          1           0       -1.669802    7.216613    0.680740
     76          1           0       -0.013857    7.004138    0.116954
     77          1           0       -3.621179    5.902005   -1.598929
     78          1           0       -5.435705    6.226350   -0.640975
     79          1           0       -4.569438    4.382055   -1.267819
     80          1           0        3.716609   -4.598239    1.632403
     81          1           0        7.931188   -1.903385    1.723495
 ---------------------------------------------------------------------

 SCF Done:  E(RB3LYP) =  -1949.07556515     A.U. after   22 cycles

 Excitation energies and oscillator strengths:

 Excited State   1:      Singlet-A      1.7026 eV  728.22 nm  f=0.3420  <S**2>=0.000
     156 ->157         0.70923
     156 <-157        -0.12047
 This state for optimization and/or second-order correction.
 Total Energy, E(TD-HF/TD-DFT) =  -1949.01299738
 Copying the excited state density for this state as the 1-particle RhoCI density.

 The electronic state is 1-A.
 Alpha  occ. eigenvalues --  -19.20536 -19.17800 -19.17035 -19.12779 -19.11060
 Alpha  occ. eigenvalues --  -19.07879 -14.37613 -14.36946 -14.36412 -14.27041
 Alpha  occ. eigenvalues --  -10.34037 -10.32614 -10.29140 -10.24603 -10.24136
 Alpha  occ. eigenvalues --  -10.24130 -10.24073 -10.24042 -10.23903 -10.22597
 Alpha  occ. eigenvalues --  -10.22199 -10.21901 -10.21774 -10.21615 -10.21539
 Alpha  occ. eigenvalues --  -10.21231 -10.21025 -10.20914 -10.20619 -10.20602
 Alpha  occ. eigenvalues --  -10.20314 -10.20271 -10.20201 -10.19897 -10.19705
 Alpha  occ. eigenvalues --  -10.19300 -10.19225 -10.19163 -10.18772 -10.18496
 Alpha  occ. eigenvalues --  -10.18180 -10.18009 -10.17940  -1.14455  -1.09098
 Alpha  occ. eigenvalues --   -1.04852  -1.02984  -1.00222  -0.98690  -0.98674
 Alpha  occ. eigenvalues --   -0.97125  -0.96202  -0.91434  -0.84381  -0.82873
 Alpha  occ. eigenvalues --   -0.82098  -0.81764  -0.79447  -0.78907  -0.78231
 Alpha  occ. eigenvalues --   -0.77944  -0.76970  -0.74807  -0.73690  -0.72447
 Alpha  occ. eigenvalues --   -0.71933  -0.70148  -0.70014  -0.69215  -0.68151
 Alpha  occ. eigenvalues --   -0.66515  -0.65996  -0.64736  -0.62372  -0.60686
 Alpha  occ. eigenvalues --   -0.59962  -0.59642  -0.58721  -0.58413  -0.58242
 Alpha  occ. eigenvalues --   -0.57371  -0.56007  -0.54701  -0.54250  -0.53863
 Alpha  occ. eigenvalues --   -0.53363  -0.52296  -0.51720  -0.51154  -0.50694
 Alpha  occ. eigenvalues --   -0.50106  -0.49657  -0.49158  -0.48506  -0.48267
 Alpha  occ. eigenvalues --   -0.47737  -0.47333  -0.46637  -0.46505  -0.45532
 Alpha  occ. eigenvalues --   -0.45270  -0.44753  -0.44614  -0.44258  -0.43887
 Alpha  occ. eigenvalues --   -0.43373  -0.43178  -0.42907  -0.42870  -0.42387
 Alpha  occ. eigenvalues --   -0.42186  -0.42052  -0.41795  -0.41500  -0.41183
 Alpha  occ. eigenvalues --   -0.40887  -0.40480  -0.40351  -0.40065  -0.39366
 Alpha  occ. eigenvalues --   -0.39314  -0.38815  -0.38748  -0.38622  -0.38434
 Alpha  occ. eigenvalues --   -0.38089  -0.37901  -0.37610  -0.37203  -0.36937
 Alpha  occ. eigenvalues --   -0.36754  -0.36447  -0.36028  -0.35295  -0.35092
 Alpha  occ. eigenvalues --   -0.34921  -0.34635  -0.34094  -0.33422  -0.32689
 Alpha  occ. eigenvalues --   -0.32279  -0.32153  -0.31962  -0.31873  -0.30245
 Alpha  occ. eigenvalues --   -0.28185  -0.26713  -0.26544  -0.26182  -0.25980
 Alpha  occ. eigenvalues --   -0.25815  -0.24943  -0.22261  -0.21589  -0.21407
 Alpha  occ. eigenvalues --   -0.18255
 Alpha virt. eigenvalues --   -0.11423  -0.06036  -0.04477  -0.01599  -0.00986
 Alpha virt. eigenvalues --   -0.00288   0.00224   0.01456   0.02934   0.03746
 Alpha virt. eigenvalues --    0.04328   0.04881   0.05555   0.06007   0.06046

 Mulliken charges:
               1
     1  O   -0.184655
     2  O   -0.243877
     3  O   -0.235693
     4  O   -0.107634
     5  O   -0.280655
     6  O   -0.278751
     7  N   -0.154656
     8  N   -0.007233
     9  N   -0.139322
    10  N   -0.211588
    11  C   -0.117068
    12  C    0.062147
    13  C   -0.128879
    14  C    0.039225
    15  C   -0.083537
    16  C   -0.008544
    17  C    0.059945
    18  C   -0.116191
    19  C    0.255141
    20  C    0.025903
    21  C    0.025116
    22  C    0.073426
    23  C   -0.102020
    24  C    0.200350
    25  C    0.056017
    26  C    0.000774
    27  C    0.087888
    28  C    0.023756
    29  C   -0.028612
    30  C    0.099156
    31  C   -0.159088
    32  C    0.050131
    33  C   -0.096307
    34  C    0.147564
    35  C   -0.126306
    36  C   -0.183949
    37  C    0.117033
    38  C    0.103140
    39  C    0.154000
    40  C    0.042038
    41  C    0.080812
    42  C    0.055687
    43  C   -0.049010
    44  H    0.141925
    45  H   -0.068291
    46  H   -0.026749
    47  H   -0.019219
    48  H    0.010828
    49  H   -0.015844
    50  H   -0.038531
    51  H   -0.119391
    52  H    0.119316
    53  H    0.023537
    54  H    0.030895
    55  H    0.063850
    56  H    0.168315
    57  H    0.038673
    58  H    0.013605
    59  H    0.074925
    60  H    0.047979
    61  H    0.004242
    62  H    0.018498
    63  H    0.045647
    64  H   -0.024333
    65  H    0.021160
    66  H    0.024681
    67  H    0.021286
    68  H    0.003910
    69  H    0.054727
    70  H    0.031845
    71  H    0.030777
    72  H    0.004791
    73  H    0.037133
    74  H    0.041246
    75  H    0.012470
    76  H    0.021204
    77  H    0.024029
    78  H    0.028593
    79  H    0.053357
    80  H    0.134180
    81  H    0.249064
 Sum of Mulliken charges =  -0.00000

 Dipole moment (field-independent basis, Debye):
    X=              3.8978    Y=             -1.4883    Z=              0.4392  Tot=              4.1953
 Quadrupole moment (field-independent basis, Debye-Ang):
   XX=           -242.4701   YY=           -248.6019   ZZ=           -257.1900
   XY=             -6.8414   XZ=             13.0508   YZ=             16.5369

 Normal termination of Gaussian 16 at Wed Jul  3 09:37:29 2019.
