 Gaussian 16, Revision A.03,
 Gaussian 16:  ES64L-G16RevA.03 25-Dec-2016

 --------------------------
 # td=(NStates=1) B3LYP/SVP
 --------------------------

 --
 TD
 --
 Symbolic Z-matrix:
 Charge =  0 Multiplicity = 1

                         Standard orientation:
 ---------------------------------------------------------------------
 Center     Atomic      Atomic             Coordinates (Angstroms)
 Number     Number       Type             X           Y           Z
 ---------------------------------------------------------------------
      1          8           0        4.610079   -4.870995   -1.681800
      2          8           0       -2.792074   -4.931486   -1.104540
      3          8           0       -7.074778   -1.614968   -2.015194
      4          8           0       -3.748228   -3.265937   -0.050722
      5          8           0       -7.575872   -0.759821   -0.003375
      6          8           0        2.950575    2.586264    0.500918
      7          7           0        0.312237   -0.545492    0.548498
      8          7           0       -1.530007    1.802308    0.422237
      9          7           0        3.494217   -3.057693   -0.680381
     10          7           0        0.698820    2.964222    0.188334
     11          6           0       -0.614895   -2.460312    1.316539
     12          6           0       -0.896095   -1.090131    0.927852
     13          6           0        0.764368   -2.601582    1.353830
     14          6           0        1.386559   -1.423159    0.670897
     15          6           0       -3.880766    1.468828    0.320284
     16          6           0       -2.486915    0.777193    0.590863
     17          6           0       -2.187019   -0.615230    0.923976
     18          6           0       -3.605446    2.838393   -0.032468
     19          6           0       -1.520514   -3.450954    2.036714
     20          6           0        5.639734   -2.645761   -1.374188
     21          6           0        3.706485   -1.784344   -0.213642
     22          6           0       -2.144318    2.911411   -0.010559
     23          6           0        5.069940   -1.457545   -0.552831
     24          6           0       -5.184522    0.721335    0.346608
     25          6           0        2.689020   -1.012388    0.303938
     26          6           0        1.640307   -3.776337    1.954084
     27          6           0        4.519037   -3.673491   -1.300203
     28          6           0       -1.994863   -4.629090    1.101475
     29          6           0       -5.358182   -0.299160   -0.867943
     30          6           0       -4.673144    3.778505   -0.403358
     31          6           0       -1.375301    4.006351   -0.406979
     32          6           0        7.001633   -3.224543   -0.964482
     33          6           0        5.831869   -0.398916   -0.186406
     34          6           0        0.025598    4.011249   -0.218107
     35          6           0        0.853732    5.159388   -0.515893
     36          6           0        2.146928    4.709277   -0.260412
     37          6           0       -2.898118   -4.176824   -0.037780
     38          6           0        5.393153    0.812121    0.654528
     39          6           0       -6.783283   -0.867115   -0.838936
     40          6           0        3.535579    5.403618   -0.337144
     41          6           0        2.009636    3.288808    0.141786
     42          6           0        0.422618    6.589460   -0.844620
     43          6           0        4.063135    5.670039    1.079372
     44          1           0        0.238591    0.569496    0.013412
     45          1           0       -3.079045   -1.255392    0.984319
     46          1           0       -2.471328   -3.011049    2.373833
     47          1           0       -1.068162   -3.895702    2.949823
     48          1           0        5.581053   -2.269427   -2.563605
     49          1           0       -5.276415    0.332573    1.299778
     50          1           0       -5.948201    1.374649    0.209320
     51          1           0        2.696480   -0.024957    0.101107
     52          1           0       -0.534241    2.007274    0.605279
     53          1           0        1.550386   -4.844609    1.338715
     54          1           0        2.729628   -3.625979    1.774547
     55          1           0        1.496675   -3.796336    3.151614
     56          1           0        2.565449   -3.444617   -0.788915
     57          1           0       -1.186525   -5.257929    0.779355
     58          1           0       -2.639203   -5.312169    1.798672
     59          1           0       -4.720974   -1.105665   -0.835196
     60          1           0       -5.359618   -0.045899   -1.829409
     61          1           0       -4.980314    4.645353    0.456023
     62          1           0       -5.575167    3.288738   -0.429028
     63          1           0       -4.724797    4.326633   -1.308837
     64          1           0       -1.787154    5.166031   -0.685431
     65          1           0        7.828736   -2.444190   -0.945305
     66          1           0        7.280212   -4.046356   -1.774003
     67          1           0        6.863606   -3.534487    0.033467
     68          1           0        6.875058   -0.496771   -0.476758
     69          1           0        4.481961    1.440881    0.287323
     70          1           0        6.214180    1.546606    0.860631
     71          1           0        4.965837    0.315478    1.541936
     72          1           0        3.289187    6.462785   -0.704955
     73          1           0        4.246751    4.790398   -0.938868
     74          1           0        0.059767    6.578236   -1.877340
     75          1           0        1.305937    7.220012   -0.541618
     76          1           0       -0.266479    7.085376   -0.168473
     77          1           0        3.350868    6.313205    1.644364
     78          1           0        4.925866    6.253912    0.880774
     79          1           0        4.143480    4.765245    1.662799
     80          1           0       -3.441458   -4.755758   -1.670959
     81          1           0       -7.990826   -1.958017   -1.862251
 ---------------------------------------------------------------------

 SCF Done:  E(RB3LYP) =  -1949.12179777     A.U. after   23 cycles

 Excitation energies and oscillator strengths:

 Excited State   1:      Singlet-A      1.6699 eV  742.46 nm  f=0.3738  <S**2>=0.000
     156 ->157         0.71556
     156 <-157        -0.14282
 This state for optimization and/or second-order correction.
 Total Energy, E(TD-HF/TD-DFT) =  -1949.06043004
 Copying the excited state density for this state as the 1-particle RhoCI density.

 The electronic state is 1-A.
 Alpha  occ. eigenvalues --  -19.19534 -19.16530 -19.13855 -19.13424 -19.10948
 Alpha  occ. eigenvalues --  -19.09620 -14.39216 -14.38381 -14.36051 -14.28471
 Alpha  occ. eigenvalues --  -10.34122 -10.31472 -10.29359 -10.25637 -10.25349
 Alpha  occ. eigenvalues --  -10.24920 -10.24586 -10.23869 -10.23405 -10.22776
 Alpha  occ. eigenvalues --  -10.22640 -10.22056 -10.21897 -10.21802 -10.21791
 Alpha  occ. eigenvalues --  -10.21695 -10.21037 -10.20841 -10.20578 -10.20284
 Alpha  occ. eigenvalues --  -10.20084 -10.19992 -10.19859 -10.19842 -10.19676
 Alpha  occ. eigenvalues --  -10.19501 -10.19456 -10.19437 -10.19387 -10.18871
 Alpha  occ. eigenvalues --  -10.18432 -10.17925 -10.16907  -1.13743  -1.09737
 Alpha  occ. eigenvalues --   -1.02680  -1.01172  -1.00928  -1.00206  -0.97979
 Alpha  occ. eigenvalues --   -0.97002  -0.96242  -0.93153  -0.82198  -0.81866
 Alpha  occ. eigenvalues --   -0.81672  -0.80933  -0.79036  -0.78909  -0.77724
 Alpha  occ. eigenvalues --   -0.77298  -0.76326  -0.74924  -0.74221  -0.72010
 Alpha  occ. eigenvalues --   -0.71145  -0.70214  -0.69707  -0.68592  -0.68280
 Alpha  occ. eigenvalues --   -0.67722  -0.66214  -0.64604  -0.63112  -0.62163
 Alpha  occ. eigenvalues --   -0.60738  -0.59597  -0.58111  -0.57684  -0.57050
 Alpha  occ. eigenvalues --   -0.55795  -0.55328  -0.54753  -0.53976  -0.53070
 Alpha  occ. eigenvalues --   -0.52452  -0.51680  -0.51574  -0.50320  -0.49597
 Alpha  occ. eigenvalues --   -0.49341  -0.48808  -0.48665  -0.47806  -0.47712
 Alpha  occ. eigenvalues --   -0.46955  -0.46652  -0.46032  -0.45611  -0.45476
 Alpha  occ. eigenvalues --   -0.45132  -0.44648  -0.44235  -0.44131  -0.43708
 Alpha  occ. eigenvalues --   -0.43495  -0.43356  -0.43071  -0.42734  -0.42418
 Alpha  occ. eigenvalues --   -0.41938  -0.41819  -0.41473  -0.41289  -0.40975
 Alpha  occ. eigenvalues --   -0.40614  -0.40529  -0.40005  -0.39778  -0.39214
 Alpha  occ. eigenvalues --   -0.38949  -0.38779  -0.38607  -0.38252  -0.37920
 Alpha  occ. eigenvalues --   -0.37745  -0.37649  -0.37262  -0.37104  -0.36685
 Alpha  occ. eigenvalues --   -0.36380  -0.35986  -0.35930  -0.35722  -0.34866
 Alpha  occ. eigenvalues --   -0.34316  -0.34163  -0.33440  -0.33370  -0.32931
 Alpha  occ. eigenvalues --   -0.32798  -0.32649  -0.32276  -0.30375  -0.29559
 Alpha  occ. eigenvalues --   -0.28490  -0.28109  -0.26566  -0.26093  -0.25865
 Alpha  occ. eigenvalues --   -0.25077  -0.24841  -0.24061  -0.23122  -0.21958
 Alpha  occ. eigenvalues --   -0.17132
 Alpha virt. eigenvalues --   -0.10624  -0.06318  -0.04588  -0.02384  -0.00865
 Alpha virt. eigenvalues --    0.01176   0.02128   0.02539   0.03624   0.03867
 Alpha virt. eigenvalues --    0.04203   0.04336   0.05194   0.06038   0.06172

 Mulliken charges:
               1
     1  O   -0.254893
     2  O   -0.073002
     3  O   -0.265841
     4  O   -0.263529
     5  O   -0.165323
     6  O   -0.236361
     7  N   -0.176421
     8  N   -0.093369
     9  N   -0.060759
    10  N   -0.259449
    11  C   -0.097222
    12  C    0.134282
    13  C   -0.151230
    14  C    0.069828
    15  C   -0.145150
    16  C    0.040718
    17  C   -0.069643
    18  C   -0.063257
    19  C    0.096021
    20  C   -0.109364
    21  C    0.115837
    22  C    0.069295
    23  C   -0.037599
    24  C    0.220972
    25  C   -0.040250
    26  C   -0.016039
    27  C    0.111421
    28  C   -0.008003
    29  C    0.108914
    30  C    0.101527
    31  C   -0.148727
    32  C    0.047890
    33  C   -0.114038
    34  C    0.022187
    35  C   -0.116534
    36  C   -0.190812
    37  C    0.121095
    38  C    0.009425
    39  C    0.094387
    40  C    0.062222
    41  C    0.133465
    42  C    0.094525
    43  C    0.023706
    44  H    0.224939
    45  H    0.029234
    46  H    0.013979
    47  H    0.016610
    48  H    0.066966
    49  H    0.008806
    50  H   -0.038232
    51  H   -0.042863
    52  H    0.142719
    53  H    0.048929
    54  H    0.025659
    55  H    0.061542
    56  H    0.131754
    57  H    0.024666
    58  H    0.059547
    59  H    0.015872
    60  H   -0.018714
    61  H    0.027376
    62  H   -0.038051
    63  H    0.012039
    64  H    0.024630
    65  H    0.026355
    66  H    0.060009
    67  H    0.012244
    68  H   -0.014273
    69  H    0.102454
    70  H    0.020024
    71  H    0.029419
    72  H   -0.001295
    73  H    0.029107
    74  H    0.040077
    75  H    0.013838
    76  H    0.018458
    77  H   -0.002624
    78  H    0.002995
    79  H    0.031707
    80  H    0.132966
    81  H    0.180227
 Sum of Mulliken charges =  -0.00000

 Dipole moment (field-independent basis, Debye):
    X=             -2.5781    Y=              0.1554    Z=             -0.4367  Tot=              2.6194
 Quadrupole moment (field-independent basis, Debye-Ang):
   XX=           -253.2271   YY=           -242.3072   ZZ=           -254.3889
   XY=             15.5515   XZ=              9.6762   YZ=            -13.6924

 Normal termination of Gaussian 16 at Mon Jul  1 01:00:33 2019.
