 Gaussian 16, Revision A.03,
 Gaussian 16:  ES64L-G16RevA.03 25-Dec-2016

 --------------------------
 # td=(NStates=1) B3LYP/SVP
 --------------------------

 --
 TD
 --
 Symbolic Z-matrix:
 Charge =  0 Multiplicity = 1

                         Standard orientation:
 ---------------------------------------------------------------------
 Center     Atomic      Atomic             Coordinates (Angstroms)
 Number     Number       Type             X           Y           Z
 ---------------------------------------------------------------------
      1          8           0        4.229047   -5.020200   -1.762613
      2          8           0       -3.124219   -4.827819   -1.119855
      3          8           0       -6.872094   -1.357751   -1.929512
      4          8           0       -3.882534   -2.930756   -0.017373
      5          8           0       -7.415323   -0.550289    0.120835
      6          8           0        3.119612    2.328266    0.284124
      7          7           0        0.121840   -0.565882    0.490868
      8          7           0       -1.570452    1.891736    0.571725
      9          7           0        3.263102   -3.250928   -0.544901
     10          7           0        0.846098    2.838587    0.038613
     11          6           0       -0.871243   -2.429262    1.295693
     12          6           0       -1.025384   -1.075586    0.792081
     13          6           0        0.643307   -2.612752    1.340872
     14          6           0        1.125581   -1.447197    0.743594
     15          6           0       -3.803695    1.687227    0.385718
     16          6           0       -2.527203    0.960355    0.545449
     17          6           0       -2.271361   -0.377297    0.745216
     18          6           0       -3.377374    2.952399   -0.060099
     19          6           0       -1.906557   -3.325983    2.035273
     20          6           0        5.467618   -2.930442   -1.232070
     21          6           0        3.530129   -1.890736   -0.189554
     22          6           0       -2.014452    3.122925    0.107684
     23          6           0        4.941089   -1.696479   -0.478338
     24          6           0       -5.140021    1.014909    0.236716
     25          6           0        2.489769   -1.084029    0.356960
     26          6           0        1.377971   -3.874350    1.780862
     27          6           0        4.288563   -3.927265   -1.262195
     28          6           0       -2.386233   -4.399557    1.121490
     29          6           0       -5.327460    0.082963   -0.915550
     30          6           0       -4.342342    4.017181   -0.631097
     31          6           0       -1.148822    4.183308   -0.237176
     32          6           0        6.795110   -3.526638   -0.916137
     33          6           0        5.685652   -0.610243   -0.177511
     34          6           0        0.306290    4.033165   -0.097715
     35          6           0        1.212969    5.151556   -0.342456
     36          6           0        2.472152    4.500223   -0.276999
     37          6           0       -3.199494   -3.956103   -0.136714
     38          6           0        5.520694    0.550511    0.709542
     39          6           0       -6.622487   -0.634624   -0.799333
     40          6           0        3.868097    5.129031   -0.335775
     41          6           0        2.184524    3.108769    0.109132
     42          6           0        0.931694    6.570504   -0.817599
     43          6           0        4.541967    5.325025    1.098733
     44          1           0        0.415581    0.333416    0.088359
     45          1           0       -3.138099   -1.010457    0.960273
     46          1           0       -2.689420   -2.727382    2.530459
     47          1           0       -1.411321   -3.873033    2.918233
     48          1           0        5.522412   -2.799247   -2.326667
     49          1           0       -5.238143    0.584500    1.175087
     50          1           0       -5.846566    1.903120    0.114321
     51          1           0        2.744090   -0.151520    0.706234
     52          1           0       -0.557045    1.871840    0.782743
     53          1           0        1.126150   -4.646603    1.046033
     54          1           0        2.537459   -4.044338    1.707291
     55          1           0        0.939562   -4.231408    2.682982
     56          1           0        2.275809   -3.661331   -0.722646
     57          1           0       -1.707487   -5.053442    0.696726
     58          1           0       -3.159712   -4.978178    1.697788
     59          1           0       -4.407756   -0.484615   -0.799942
     60          1           0       -5.344899    0.889039   -1.802594
     61          1           0       -4.254850    4.799089   -0.088044
     62          1           0       -5.429869    3.475392   -0.478864
     63          1           0       -3.946676    4.254664   -1.697945
     64          1           0       -1.497029    5.247199   -0.506118
     65          1           0        7.636674   -2.776006   -1.254764
     66          1           0        6.911840   -4.695118   -1.270331
     67          1           0        6.709416   -3.675592    0.185710
     68          1           0        6.761472   -0.573646   -0.578181
     69          1           0        5.041486    1.428581    0.157639
     70          1           0        6.464367    0.831855    1.011434
     71          1           0        5.049886    0.211994    1.540909
     72          1           0        3.931794    6.019850   -1.094810
     73          1           0        4.468169    4.286429   -0.682906
     74          1           0        0.060272    6.421341   -1.557467
     75          1           0        1.756193    7.251561   -1.248332
     76          1           0        0.282143    7.064237   -0.116199
     77          1           0        3.840362    5.947818    1.783622
     78          1           0        5.351098    5.898004    0.831230
     79          1           0        4.780361    4.206715    1.649033
     80          1           0       -3.793544   -4.708014   -1.709006
     81          1           0       -7.758491   -1.911965   -1.822447
 ---------------------------------------------------------------------

 SCF Done:  E(RB3LYP) =  -1949.10588962     A.U. after   17 cycles

 Excitation energies and oscillator strengths:

 Excited State   1:      Singlet-A      1.7204 eV  720.68 nm  f=0.2733  <S**2>=0.000
     155 ->157        -0.11163
     156 ->157         0.70181
     156 <-157        -0.11469
 This state for optimization and/or second-order correction.
 Total Energy, E(TD-HF/TD-DFT) =  -1949.04266720
 Copying the excited state density for this state as the 1-particle RhoCI density.

 The electronic state is 1-A.
 Alpha  occ. eigenvalues --  -19.21181 -19.18322 -19.13838 -19.12767 -19.11402
 Alpha  occ. eigenvalues --  -19.10078 -14.37622 -14.36492 -14.35622 -14.29158
 Alpha  occ. eigenvalues --  -10.33733 -10.32169 -10.28956 -10.26004 -10.24641
 Alpha  occ. eigenvalues --  -10.23646 -10.23485 -10.23167 -10.23128 -10.22514
 Alpha  occ. eigenvalues --  -10.21519 -10.20897 -10.20846 -10.20728 -10.20657
 Alpha  occ. eigenvalues --  -10.20561 -10.20556 -10.20163 -10.20113 -10.20095
 Alpha  occ. eigenvalues --  -10.20056 -10.20019 -10.20001 -10.19890 -10.19843
 Alpha  occ. eigenvalues --  -10.19735 -10.19696 -10.19671 -10.19497 -10.19395
 Alpha  occ. eigenvalues --  -10.18807 -10.18198 -10.16030  -1.13383  -1.08150
 Alpha  occ. eigenvalues --   -1.03550  -1.02114  -1.01296  -1.00400  -0.99631
 Alpha  occ. eigenvalues --   -0.98558  -0.93400  -0.93198  -0.82534  -0.81449
 Alpha  occ. eigenvalues --   -0.81165  -0.80893  -0.78890  -0.78689  -0.77551
 Alpha  occ. eigenvalues --   -0.77062  -0.76502  -0.74823  -0.73708  -0.71896
 Alpha  occ. eigenvalues --   -0.71070  -0.70320  -0.69673  -0.68989  -0.68048
 Alpha  occ. eigenvalues --   -0.67567  -0.65306  -0.63821  -0.63242  -0.61974
 Alpha  occ. eigenvalues --   -0.60844  -0.59513  -0.58844  -0.56904  -0.56362
 Alpha  occ. eigenvalues --   -0.55665  -0.55308  -0.54962  -0.53421  -0.52869
 Alpha  occ. eigenvalues --   -0.51805  -0.51421  -0.50931  -0.50301  -0.50171
 Alpha  occ. eigenvalues --   -0.49846  -0.49430  -0.48714  -0.47456  -0.47018
 Alpha  occ. eigenvalues --   -0.46545  -0.46309  -0.45945  -0.45515  -0.44900
 Alpha  occ. eigenvalues --   -0.44582  -0.44308  -0.44136  -0.44006  -0.43879
 Alpha  occ. eigenvalues --   -0.43502  -0.43113  -0.43003  -0.42330  -0.42086
 Alpha  occ. eigenvalues --   -0.41774  -0.41619  -0.41418  -0.41266  -0.40997
 Alpha  occ. eigenvalues --   -0.40610  -0.40152  -0.39962  -0.39911  -0.39545
 Alpha  occ. eigenvalues --   -0.39271  -0.38946  -0.38884  -0.38123  -0.37823
 Alpha  occ. eigenvalues --   -0.37501  -0.37418  -0.37031  -0.36897  -0.36330
 Alpha  occ. eigenvalues --   -0.36240  -0.36052  -0.35828  -0.34551  -0.34431
 Alpha  occ. eigenvalues --   -0.34094  -0.33853  -0.33225  -0.32902  -0.32743
 Alpha  occ. eigenvalues --   -0.32243  -0.32186  -0.32122  -0.29644  -0.29212
 Alpha  occ. eigenvalues --   -0.28389  -0.28287  -0.26532  -0.25582  -0.25086
 Alpha  occ. eigenvalues --   -0.24784  -0.24157  -0.23961  -0.22645  -0.21069
 Alpha  occ. eigenvalues --   -0.17689
 Alpha virt. eigenvalues --   -0.10729  -0.05868  -0.04280  -0.01399  -0.00454
 Alpha virt. eigenvalues --    0.00855   0.02055   0.03015   0.03499   0.03675
 Alpha virt. eigenvalues --    0.04614   0.04930   0.05243   0.05455   0.05558

 Mulliken charges:
               1
     1  O   -0.194656
     2  O   -0.090705
     3  O   -0.240993
     4  O   -0.255839
     5  O   -0.225922
     6  O   -0.224086
     7  N    0.030664
     8  N   -0.069166
     9  N   -0.225897
    10  N   -0.267372
    11  C   -0.157378
    12  C    0.017222
    13  C   -0.147131
    14  C    0.018539
    15  C   -0.094158
    16  C    0.035791
    17  C   -0.046114
    18  C   -0.197046
    19  C    0.107563
    20  C   -0.030083
    21  C    0.108798
    22  C    0.136701
    23  C    0.049131
    24  C    0.088344
    25  C   -0.066423
    26  C    0.079940
    27  C    0.108994
    28  C    0.045735
    29  C    0.018162
    30  C    0.149089
    31  C   -0.143437
    32  C   -0.024599
    33  C   -0.245975
    34  C    0.048782
    35  C   -0.114333
    36  C   -0.193762
    37  C    0.112371
    38  C    0.173764
    39  C    0.173113
    40  C    0.044309
    41  C    0.148476
    42  C    0.112470
    43  C   -0.040903
    44  H    0.142817
    45  H    0.011265
    46  H    0.021847
    47  H    0.018109
    48  H    0.034456
    49  H    0.004408
    50  H    0.003356
    51  H   -0.022527
    52  H    0.131785
    53  H    0.004317
    54  H    0.056267
    55  H    0.001886
    56  H    0.158235
    57  H    0.000626
    58  H    0.035881
    59  H    0.049804
    60  H    0.058585
    61  H   -0.026119
    62  H    0.034405
    63  H    0.040327
    64  H   -0.006600
    65  H    0.047445
    66  H    0.057584
    67  H    0.012872
    68  H    0.000342
    69  H    0.089133
    70  H   -0.027798
    71  H   -0.008863
    72  H    0.023770
    73  H    0.008181
    74  H    0.015183
    75  H    0.053141
    76  H   -0.002014
    77  H    0.025358
    78  H    0.005401
    79  H    0.068840
    80  H    0.150363
    81  H    0.215952
 Sum of Mulliken charges =  -0.00000

 Dipole moment (field-independent basis, Debye):
    X=             -2.8285    Y=              0.6137    Z=             -0.8911  Tot=              3.0284
 Quadrupole moment (field-independent basis, Debye-Ang):
   XX=           -250.7647   YY=           -232.9318   ZZ=           -254.8231
   XY=             25.1445   XZ=             14.8395   YZ=            -10.5351

 Normal termination of Gaussian 16 at Sat Jun 29 03:12:59 2019.
