 Gaussian 16, Revision A.03,
 Gaussian 16:  ES64L-G16RevA.03 25-Dec-2016

 --------------------------
 # td=(NStates=1) B3LYP/SVP
 --------------------------

 --
 TD
 --
 Symbolic Z-matrix:
 Charge =  0 Multiplicity = 1

                         Standard orientation:
 ---------------------------------------------------------------------
 Center     Atomic      Atomic             Coordinates (Angstroms)
 Number     Number       Type             X           Y           Z
 ---------------------------------------------------------------------
      1          8           0        4.200404   -4.883688   -1.875531
      2          8           0       -3.060856   -4.835445   -1.154514
      3          8           0       -6.951148   -1.617308   -1.691236
      4          8           0       -3.860869   -3.066533    0.200250
      5          8           0       -7.538222   -0.556557    0.086977
      6          8           0        3.133720    2.564957    0.441676
      7          7           0        0.306683   -0.418349    0.732002
      8          7           0       -1.555552    1.899014    0.452060
      9          7           0        3.148815   -3.095757   -0.800141
     10          7           0        0.823958    2.930256    0.215531
     11          6           0       -0.693990   -2.391382    1.406419
     12          6           0       -1.008436   -1.061682    0.982040
     13          6           0        0.704195   -2.583903    1.339242
     14          6           0        1.272076   -1.391256    0.838307
     15          6           0       -3.706734    1.515089    0.210994
     16          6           0       -2.457931    0.862043    0.553623
     17          6           0       -2.182605   -0.413758    0.805364
     18          6           0       -3.527942    2.899746   -0.150831
     19          6           0       -1.639999   -3.342910    1.980820
     20          6           0        5.418156   -2.872283   -1.363424
     21          6           0        3.485564   -1.924902   -0.202887
     22          6           0       -2.047506    3.017687   -0.002443
     23          6           0        4.977143   -1.764497   -0.378229
     24          6           0       -5.131336    0.921478    0.261095
     25          6           0        2.566672   -1.037214    0.405859
     26          6           0        1.524412   -3.729903    1.658167
     27          6           0        4.224962   -3.843003   -1.348142
     28          6           0       -2.133775   -4.458318    1.023372
     29          6           0       -5.298718    0.016178   -0.920567
     30          6           0       -4.436704    3.962459   -0.594286
     31          6           0       -1.207845    4.117716   -0.359441
     32          6           0        6.659867   -3.685076   -0.879878
     33          6           0        5.762566   -0.733169   -0.056669
     34          6           0        0.153270    4.033523   -0.192918
     35          6           0        1.066793    5.131645   -0.538963
     36          6           0        2.387890    4.671228   -0.343257
     37          6           0       -3.058057   -4.001887   -0.001587
     38          6           0        5.504382    0.555526    0.758987
     39          6           0       -6.720388   -0.777087   -0.734375
     40          6           0        3.799621    5.190066   -0.340253
     41          6           0        2.167590    3.216240    0.125110
     42          6           0        0.647094    6.572229   -0.959959
     43          6           0        4.416950    5.562303    1.130967
     44          1           0        0.313400    0.469713    0.003435
     45          1           0       -3.155098   -0.958109    0.899444
     46          1           0       -2.460128   -2.793358    2.530038
     47          1           0       -0.961502   -3.904073    2.770691
     48          1           0        5.632532   -2.396579   -2.429115
     49          1           0       -5.482763    0.240208    1.202934
     50          1           0       -5.889996    1.583223    0.408637
     51          1           0        2.986270   -0.041442    0.586363
     52          1           0       -0.532992    1.789648    0.579159
     53          1           0        1.485443   -4.681790    1.036845
     54          1           0        2.630175   -3.569641    1.636545
     55          1           0        1.037828   -3.925467    2.645768
     56          1           0        2.417375   -3.830727   -0.826166
     57          1           0       -1.338692   -4.964455    0.276713
     58          1           0       -2.367678   -5.217150    1.615043
     59          1           0       -4.694048   -0.854060   -0.751708
     60          1           0       -5.097332    0.380722   -1.816540
     61          1           0       -4.418507    4.677439    0.316677
     62          1           0       -5.459167    3.662966   -0.944856
     63          1           0       -4.088244    4.354328   -1.632583
     64          1           0       -1.600713    5.051825   -0.627705
     65          1           0        7.610044   -3.024586   -1.274007
     66          1           0        6.627149   -4.587776   -1.378586
     67          1           0        6.614555   -3.844556    0.148431
     68          1           0        6.793816   -0.933836   -0.470146
     69          1           0        5.214199    1.455940   -0.057428
     70          1           0        6.310680    0.834281    1.303718
     71          1           0        4.770031    0.353836    1.481648
     72          1           0        3.866262    6.097197   -1.041860
     73          1           0        4.514531    4.505611   -0.652952
     74          1           0        0.053569    6.375138   -2.029957
     75          1           0        1.415930    7.243200   -0.816620
     76          1           0       -0.321304    6.878934   -0.357494
     77          1           0        3.710191    6.427354    1.500518
     78          1           0        5.554470    5.672473    1.030068
     79          1           0        4.211112    4.592923    1.757136
     80          1           0       -3.560870   -4.508225   -2.034598
     81          1           0       -7.715521   -2.058230   -1.518155
 ---------------------------------------------------------------------

 SCF Done:  E(RB3LYP) =  -1949.07378070     A.U. after   17 cycles

 Excitation energies and oscillator strengths:

 Excited State   1:      Singlet-A      1.9393 eV  639.31 nm  f=0.3937  <S**2>=0.000
     156 ->157         0.70637
     156 <-157        -0.10755
 This state for optimization and/or second-order correction.
 Total Energy, E(TD-HF/TD-DFT) =  -1949.00251157
 Copying the excited state density for this state as the 1-particle RhoCI density.

 The electronic state is 1-A.
 Alpha  occ. eigenvalues --  -19.19793 -19.18015 -19.15008 -19.13319 -19.12145
 Alpha  occ. eigenvalues --  -19.08879 -14.37903 -14.37538 -14.35620 -14.27619
 Alpha  occ. eigenvalues --  -10.34673 -10.31465 -10.29674 -10.25535 -10.24761
 Alpha  occ. eigenvalues --  -10.23713 -10.23377 -10.22859 -10.22521 -10.22343
 Alpha  occ. eigenvalues --  -10.22225 -10.21484 -10.21164 -10.21154 -10.20745
 Alpha  occ. eigenvalues --  -10.20634 -10.20595 -10.20402 -10.20400 -10.20358
 Alpha  occ. eigenvalues --  -10.20264 -10.20217 -10.19691 -10.19352 -10.19337
 Alpha  occ. eigenvalues --  -10.19265 -10.18950 -10.18919 -10.18623 -10.18317
 Alpha  occ. eigenvalues --  -10.18234 -10.18011 -10.17354  -1.13101  -1.07591
 Alpha  occ. eigenvalues --   -1.07285  -1.02025  -1.00718  -1.00182  -0.99084
 Alpha  occ. eigenvalues --   -0.96780  -0.95552  -0.90494  -0.83362  -0.82382
 Alpha  occ. eigenvalues --   -0.81415  -0.81097  -0.79297  -0.78239  -0.77286
 Alpha  occ. eigenvalues --   -0.76837  -0.76243  -0.74812  -0.73575  -0.72575
 Alpha  occ. eigenvalues --   -0.71110  -0.69820  -0.68653  -0.67951  -0.67744
 Alpha  occ. eigenvalues --   -0.66391  -0.65786  -0.65077  -0.62840  -0.61695
 Alpha  occ. eigenvalues --   -0.61247  -0.59766  -0.58407  -0.57249  -0.56804
 Alpha  occ. eigenvalues --   -0.56145  -0.55254  -0.54245  -0.53587  -0.53026
 Alpha  occ. eigenvalues --   -0.52610  -0.51581  -0.50640  -0.50526  -0.49369
 Alpha  occ. eigenvalues --   -0.48897  -0.48749  -0.48425  -0.48192  -0.47752
 Alpha  occ. eigenvalues --   -0.47407  -0.46578  -0.46175  -0.45731  -0.45452
 Alpha  occ. eigenvalues --   -0.44801  -0.44500  -0.44257  -0.44167  -0.43723
 Alpha  occ. eigenvalues --   -0.43249  -0.42860  -0.42713  -0.42390  -0.42135
 Alpha  occ. eigenvalues --   -0.41981  -0.41828  -0.41389  -0.41351  -0.40995
 Alpha  occ. eigenvalues --   -0.40548  -0.40445  -0.39995  -0.39959  -0.39288
 Alpha  occ. eigenvalues --   -0.39077  -0.38988  -0.38600  -0.38426  -0.37968
 Alpha  occ. eigenvalues --   -0.37565  -0.37025  -0.36623  -0.36475  -0.36428
 Alpha  occ. eigenvalues --   -0.36161  -0.35916  -0.35782  -0.35607  -0.35266
 Alpha  occ. eigenvalues --   -0.34001  -0.33491  -0.33252  -0.33171  -0.32848
 Alpha  occ. eigenvalues --   -0.32555  -0.32181  -0.32104  -0.30360  -0.29613
 Alpha  occ. eigenvalues --   -0.27921  -0.27357  -0.26886  -0.26647  -0.25612
 Alpha  occ. eigenvalues --   -0.24576  -0.24079  -0.22350  -0.21934  -0.21093
 Alpha  occ. eigenvalues --   -0.17563
 Alpha virt. eigenvalues --   -0.09785  -0.05271  -0.03994  -0.03863  -0.01478
 Alpha virt. eigenvalues --    0.00871   0.01643   0.02170   0.02478   0.04299
 Alpha virt. eigenvalues --    0.04403   0.04840   0.05362   0.05556   0.06010

 Mulliken charges:
               1
     1  O   -0.153265
     2  O   -0.296896
     3  O   -0.087102
     4  O   -0.243344
     5  O   -0.208291
     6  O   -0.219400
     7  N   -0.201261
     8  N   -0.023852
     9  N   -0.136548
    10  N   -0.304851
    11  C   -0.072412
    12  C    0.107197
    13  C   -0.110888
    14  C    0.135203
    15  C   -0.074300
    16  C    0.054212
    17  C   -0.072336
    18  C   -0.123624
    19  C    0.041543
    20  C   -0.148862
    21  C    0.082375
    22  C    0.059704
    23  C   -0.009974
    24  C    0.065529
    25  C   -0.118108
    26  C    0.015839
    27  C    0.096078
    28  C    0.043149
    29  C    0.044848
    30  C    0.051465
    31  C   -0.120109
    32  C    0.083758
    33  C   -0.176682
    34  C    0.126872
    35  C   -0.133966
    36  C   -0.168144
    37  C    0.222233
    38  C    0.123801
    39  C    0.079107
    40  C    0.083412
    41  C    0.131952
    42  C    0.076557
    43  C   -0.083325
    44  H    0.193849
    45  H    0.019062
    46  H    0.046640
    47  H    0.014215
    48  H    0.073427
    49  H    0.028846
    50  H   -0.023295
    51  H    0.025262
    52  H    0.129041
    53  H    0.023877
    54  H    0.034257
    55  H    0.030944
    56  H    0.139651
    57  H    0.052649
    58  H    0.014094
    59  H    0.020849
    60  H   -0.015145
    61  H    0.062100
    62  H    0.022714
    63  H    0.038901
    64  H   -0.064177
    65  H    0.033559
    66  H    0.012783
    67  H    0.000344
    68  H   -0.003957
    69  H    0.094582
    70  H   -0.018934
    71  H    0.016824
    72  H    0.001617
    73  H   -0.015985
    74  H    0.040332
    75  H    0.015507
    76  H    0.024716
    77  H    0.035404
    78  H    0.036155
    79  H    0.047632
    80  H    0.242667
    81  H    0.131699
 Sum of Mulliken charges =  -0.00000

 Dipole moment (field-independent basis, Debye):
    X=             -1.8860    Y=             -2.8299    Z=             -1.7527  Tot=              3.8259
 Quadrupole moment (field-independent basis, Debye-Ang):
   XX=           -251.9452   YY=           -242.3567   ZZ=           -252.6100
   XY=              8.6974   XZ=             14.7088   YZ=            -10.6776

 Normal termination of Gaussian 16 at Fri Jun 28 14:45:11 2019.
