 Gaussian 16, Revision A.03,
 Gaussian 16:  ES64L-G16RevA.03 25-Dec-2016

 --------------------------
 # td=(NStates=1) B3LYP/SVP
 --------------------------

 --
 TD
 --
 Symbolic Z-matrix:
 Charge =  0 Multiplicity = 1

                         Standard orientation:
 ---------------------------------------------------------------------
 Center     Atomic      Atomic             Coordinates (Angstroms)
 Number     Number       Type             X           Y           Z
 ---------------------------------------------------------------------
      1          8           0        4.257569   -4.841887   -1.942926
      2          8           0       -3.089695   -4.794007   -1.173603
      3          8           0       -6.858579   -1.885679   -1.565505
      4          8           0       -3.786967   -2.901744    0.035933
      5          8           0       -7.628982   -0.376118    0.099726
      6          8           0        3.060701    2.432291    0.483150
      7          7           0        0.313741   -0.495154    0.585584
      8          7           0       -1.541864    1.839287    0.286637
      9          7           0        3.396958   -3.195269   -0.631800
     10          7           0        0.779542    2.928621    0.091590
     11          6           0       -0.615285   -2.484505    1.397406
     12          6           0       -0.844320   -1.108213    1.020867
     13          6           0        0.811859   -2.666699    1.214077
     14          6           0        1.361231   -1.415413    0.714285
     15          6           0       -3.756098    1.504306    0.216019
     16          6           0       -2.410936    0.859065    0.419988
     17          6           0       -2.050325   -0.386198    0.945685
     18          6           0       -3.561942    2.833446   -0.182498
     19          6           0       -1.739488   -3.293277    2.002751
     20          6           0        5.563195   -2.747652   -1.335638
     21          6           0        3.630137   -1.883933   -0.265136
     22          6           0       -2.086157    3.049343   -0.161557
     23          6           0        5.064989   -1.625836   -0.401488
     24          6           0       -4.989915    0.808799    0.385433
     25          6           0        2.641991   -1.057085    0.318163
     26          6           0        1.501975   -3.962858    1.698549
     27          6           0        4.371270   -3.794671   -1.401836
     28          6           0       -2.227063   -4.425198    1.095999
     29          6           0       -5.467275   -0.029951   -0.878162
     30          6           0       -4.472888    3.773656   -0.537743
     31          6           0       -1.333072    4.169165   -0.394791
     32          6           0        6.871788   -3.444530   -0.888067
     33          6           0        5.712179   -0.539002   -0.090438
     34          6           0        0.053077    4.012335   -0.333126
     35          6           0        1.038269    5.159683   -0.610269
     36          6           0        2.326351    4.702669   -0.207716
     37          6           0       -3.162125   -3.978553   -0.073053
     38          6           0        5.413149    0.638734    0.791632
     39          6           0       -6.780375   -0.833165   -0.639760
     40          6           0        3.646842    5.370099   -0.131359
     41          6           0        2.146174    3.203738    0.171186
     42          6           0        0.605709    6.573720   -0.961714
     43          6           0        4.315371    5.366066    1.259686
     44          1           0        0.296836    0.491280    0.173575
     45          1           0       -3.093404   -1.032879    0.952595
     46          1           0       -2.552926   -2.736342    2.358145
     47          1           0       -1.246862   -3.909634    2.771040
     48          1           0        5.714518   -2.390078   -2.344315
     49          1           0       -4.969311    0.045171    1.153787
     50          1           0       -5.870370    1.494150    0.507904
     51          1           0        2.891446   -0.013794    0.411541
     52          1           0       -0.448331    1.922299    0.404018
     53          1           0        1.175144   -4.802480    1.172028
     54          1           0        2.533838   -3.612427    1.912525
     55          1           0        0.955251   -4.122423    2.624471
     56          1           0        2.532181   -3.661927   -0.546496
     57          1           0       -1.442355   -5.025772    0.490602
     58          1           0       -2.915352   -4.975396    1.563000
     59          1           0       -4.484054   -0.779972   -1.150244
     60          1           0       -5.502431    0.658217   -1.710983
     61          1           0       -4.225858    4.653773   -0.026994
     62          1           0       -5.520809    3.358052   -0.238527
     63          1           0       -4.530757    3.976815   -1.655584
     64          1           0       -1.649914    5.082638   -0.657112
     65          1           0        7.695798   -2.970429   -0.908575
     66          1           0        6.808112   -4.261510   -1.498136
     67          1           0        6.554763   -4.007242    0.053123
     68          1           0        6.890474   -0.565394   -0.220654
     69          1           0        5.089848    1.680073    0.278746
     70          1           0        6.316892    0.908166    1.340226
     71          1           0        4.726607    0.305376    1.696482
     72          1           0        3.360960    6.617756   -0.473405
     73          1           0        4.154977    4.881313   -1.062613
     74          1           0        0.002444    6.471276   -2.073930
     75          1           0        1.347134    7.236699   -0.949427
     76          1           0       -0.196082    7.080773   -0.177060
     77          1           0        3.716398    5.908559    1.928352
     78          1           0        5.157715    5.870164    0.953772
     79          1           0        4.529917    4.304060    1.457809
     80          1           0       -3.765185   -4.461732   -1.700543
     81          1           0       -7.778029   -2.310936   -1.571688
 ---------------------------------------------------------------------

 SCF Done:  E(RB3LYP) =  -1949.07212262     A.U. after   16 cycles

 Excitation energies and oscillator strengths:

 Excited State   1:      Singlet-A      1.7387 eV  713.10 nm  f=0.3572  <S**2>=0.000
     156 ->157         0.71170
     156 <-157        -0.13127
 This state for optimization and/or second-order correction.
 Total Energy, E(TD-HF/TD-DFT) =  -1949.00822778
 Copying the excited state density for this state as the 1-particle RhoCI density.

 The electronic state is 1-A.
 Alpha  occ. eigenvalues --  -19.20804 -19.19037 -19.14805 -19.14025 -19.12007
 Alpha  occ. eigenvalues --  -19.10454 -14.37437 -14.36720 -14.34895 -14.29328
 Alpha  occ. eigenvalues --  -10.34150 -10.33199 -10.29353 -10.26947 -10.24331
 Alpha  occ. eigenvalues --  -10.23666 -10.23464 -10.23070 -10.22763 -10.22750
 Alpha  occ. eigenvalues --  -10.21700 -10.21241 -10.21123 -10.21057 -10.20958
 Alpha  occ. eigenvalues --  -10.20934 -10.20707 -10.20475 -10.20453 -10.20072
 Alpha  occ. eigenvalues --  -10.20040 -10.19830 -10.19829 -10.19412 -10.19293
 Alpha  occ. eigenvalues --  -10.19164 -10.19101 -10.19043 -10.18528 -10.18149
 Alpha  occ. eigenvalues --  -10.18146 -10.17034 -10.16979  -1.11457  -1.07640
 Alpha  occ. eigenvalues --   -1.05626  -1.01879  -1.01017  -1.00440  -0.97698
 Alpha  occ. eigenvalues --   -0.96570  -0.95947  -0.90222  -0.82534  -0.82359
 Alpha  occ. eigenvalues --   -0.81664  -0.81065  -0.79399  -0.78478  -0.77835
 Alpha  occ. eigenvalues --   -0.76873  -0.76465  -0.74737  -0.73866  -0.72365
 Alpha  occ. eigenvalues --   -0.71346  -0.70294  -0.69108  -0.68470  -0.67772
 Alpha  occ. eigenvalues --   -0.66521  -0.65316  -0.64347  -0.62512  -0.61689
 Alpha  occ. eigenvalues --   -0.60859  -0.59127  -0.58747  -0.58323  -0.56776
 Alpha  occ. eigenvalues --   -0.55918  -0.54879  -0.54055  -0.52956  -0.52261
 Alpha  occ. eigenvalues --   -0.51670  -0.51560  -0.50833  -0.50657  -0.49744
 Alpha  occ. eigenvalues --   -0.49331  -0.49213  -0.48619  -0.47923  -0.47785
 Alpha  occ. eigenvalues --   -0.46544  -0.46425  -0.46015  -0.45838  -0.45558
 Alpha  occ. eigenvalues --   -0.45047  -0.44829  -0.44444  -0.44225  -0.44108
 Alpha  occ. eigenvalues --   -0.43416  -0.43263  -0.43114  -0.42907  -0.42703
 Alpha  occ. eigenvalues --   -0.42489  -0.41897  -0.41830  -0.41483  -0.41012
 Alpha  occ. eigenvalues --   -0.40680  -0.40407  -0.40159  -0.39885  -0.39506
 Alpha  occ. eigenvalues --   -0.39332  -0.39140  -0.38653  -0.38527  -0.38346
 Alpha  occ. eigenvalues --   -0.38184  -0.37659  -0.37193  -0.37065  -0.36655
 Alpha  occ. eigenvalues --   -0.36151  -0.36075  -0.35406  -0.35036  -0.34377
 Alpha  occ. eigenvalues --   -0.34129  -0.33561  -0.33345  -0.33181  -0.33056
 Alpha  occ. eigenvalues --   -0.32873  -0.32295  -0.30638  -0.29223  -0.28951
 Alpha  occ. eigenvalues --   -0.28509  -0.27319  -0.27132  -0.26288  -0.25588
 Alpha  occ. eigenvalues --   -0.24897  -0.23882  -0.23517  -0.22126  -0.21493
 Alpha  occ. eigenvalues --   -0.16988
 Alpha virt. eigenvalues --   -0.10183  -0.05614  -0.03847  -0.02368  -0.01302
 Alpha virt. eigenvalues --    0.00833   0.02353   0.02913   0.03452   0.03794
 Alpha virt. eigenvalues --    0.04194   0.04382   0.05141   0.05841   0.06378

 Mulliken charges:
               1
     1  O   -0.169887
     2  O   -0.142881
     3  O   -0.245324
     4  O   -0.254218
     5  O   -0.214301
     6  O   -0.232531
     7  N   -0.114980
     8  N   -0.128309
     9  N   -0.088984
    10  N   -0.348403
    11  C   -0.101119
    12  C    0.056846
    13  C   -0.233030
    14  C    0.136875
    15  C   -0.043359
    16  C    0.025756
    17  C   -0.102269
    18  C   -0.092022
    19  C    0.190549
    20  C   -0.150349
    21  C    0.056959
    22  C    0.141933
    23  C    0.091442
    24  C    0.055640
    25  C   -0.120575
    26  C    0.148806
    27  C    0.110840
    28  C    0.033855
    29  C   -0.089946
    30  C    0.074405
    31  C   -0.071288
    32  C    0.187797
    33  C   -0.193852
    34  C    0.082946
    35  C   -0.089089
    36  C   -0.165102
    37  C    0.126382
    38  C    0.005725
    39  C    0.216578
    40  C   -0.102238
    41  C    0.197215
    42  C    0.052677
    43  C    0.102008
    44  H    0.154149
    45  H    0.071232
    46  H    0.008229
    47  H   -0.004100
    48  H    0.032952
    49  H    0.010364
    50  H    0.019622
    51  H    0.009522
    52  H    0.175114
    53  H    0.009915
    54  H    0.051083
    55  H    0.001122
    56  H    0.111526
    57  H    0.053438
    58  H   -0.001550
    59  H    0.060286
    60  H    0.028224
    61  H    0.013057
    62  H    0.017906
    63  H    0.035396
    64  H   -0.084345
    65  H   -0.023619
    66  H   -0.015798
    67  H    0.001360
    68  H    0.013466
    69  H    0.092745
    70  H   -0.007827
    71  H    0.037182
    72  H    0.005648
    73  H    0.049540
    74  H    0.044808
    75  H   -0.026714
    76  H    0.041650
    77  H    0.013072
    78  H   -0.005149
    79  H    0.048337
    80  H    0.157167
    81  H    0.199810
 Sum of Mulliken charges =  -0.00000

 Dipole moment (field-independent basis, Debye):
    X=             -2.9190    Y=             -1.0263    Z=             -0.5477  Tot=              3.1423
 Quadrupole moment (field-independent basis, Debye-Ang):
   XX=           -245.7251   YY=           -236.4765   ZZ=           -255.4668
   XY=             21.8754   XZ=             15.3776   YZ=            -12.9340

 Normal termination of Gaussian 16 at Fri Jun 28 13:58:31 2019.
