 Gaussian 16, Revision A.03,
 Gaussian 16:  ES64L-G16RevA.03 25-Dec-2016

 --------------------------
 # td=(NStates=1) B3LYP/SVP
 --------------------------

 --
 TD
 --
 Symbolic Z-matrix:
 Charge =  0 Multiplicity = 1

                         Standard orientation:
 ---------------------------------------------------------------------
 Center     Atomic      Atomic             Coordinates (Angstroms)
 Number     Number       Type             X           Y           Z
 ---------------------------------------------------------------------
      1          8           0        4.480409   -4.674081   -1.937963
      2          8           0       -2.795236   -4.781076   -1.224874
      3          8           0       -6.846609   -1.774895   -1.911500
      4          8           0       -3.703934   -3.192249    0.163896
      5          8           0       -7.568454   -0.763578    0.049361
      6          8           0        2.934171    2.513405    0.404716
      7          7           0        0.305350   -0.455281    0.603231
      8          7           0       -1.649676    1.829780    0.296600
      9          7           0        3.409363   -3.077636   -0.703970
     10          7           0        0.650730    2.785003    0.063612
     11          6           0       -0.632894   -2.359453    1.395719
     12          6           0       -0.921734   -1.017907    1.042203
     13          6           0        0.779014   -2.616125    1.207008
     14          6           0        1.397330   -1.352712    0.774356
     15          6           0       -3.861164    1.447243    0.369993
     16          6           0       -2.607856    0.810682    0.689332
     17          6           0       -2.184669   -0.446946    0.984998
     18          6           0       -3.609311    2.683417   -0.112775
     19          6           0       -1.520843   -3.433651    2.056831
     20          6           0        5.640205   -2.602041   -1.305558
     21          6           0        3.674766   -1.729466   -0.186595
     22          6           0       -2.164109    2.945348   -0.083808
     23          6           0        5.086561   -1.482889   -0.431622
     24          6           0       -5.120323    0.667830    0.503070
     25          6           0        2.693077   -0.979315    0.338540
     26          6           0        1.568300   -3.776780    1.706612
     27          6           0        4.469263   -3.636232   -1.381176
     28          6           0       -1.918416   -4.502978    1.026596
     29          6           0       -5.368271   -0.332354   -0.836407
     30          6           0       -4.620734    3.834574   -0.626717
     31          6           0       -1.402344    4.031040   -0.398535
     32          6           0        6.940604   -3.254955   -0.920029
     33          6           0        5.788159   -0.446899   -0.034751
     34          6           0       -0.017105    3.993877   -0.324680
     35          6           0        0.935148    5.135627   -0.524257
     36          6           0        2.132702    4.655404   -0.292236
     37          6           0       -2.829378   -4.090596   -0.002262
     38          6           0        5.380472    0.769697    0.787522
     39          6           0       -6.712299   -0.981389   -0.814208
     40          6           0        3.465187    5.346649   -0.262641
     41          6           0        1.988214    3.179942    0.068443
     42          6           0        0.421528    6.545675   -0.812307
     43          6           0        4.024305    5.634724    1.156008
     44          1           0        0.489746    0.514056    0.375841
     45          1           0       -3.039910   -1.113944    1.096677
     46          1           0       -2.474129   -2.973193    2.583443
     47          1           0       -1.117284   -3.848351    3.035566
     48          1           0        5.674436   -2.250742   -2.376289
     49          1           0       -5.005942   -0.167647    1.266889
     50          1           0       -5.891289    1.461281    0.818176
     51          1           0        3.175881    0.018543    0.407819
     52          1           0       -0.600552    2.011170    0.456413
     53          1           0        1.628002   -4.597349    1.251706
     54          1           0        2.648167   -3.361019    1.909754
     55          1           0        1.117292   -4.090192    2.687836
     56          1           0        2.575355   -3.477866   -0.703227
     57          1           0       -1.037760   -5.107152    0.364273
     58          1           0       -2.385475   -5.469216    1.465176
     59          1           0       -4.696272   -1.262347   -0.742139
     60          1           0       -5.255435    0.281893   -1.859279
     61          1           0       -4.452866    4.834702   -0.107884
     62          1           0       -5.668792    3.378770   -0.476572
     63          1           0       -4.637461    4.105625   -1.852276
     64          1           0       -2.043097    4.994322   -0.858315
     65          1           0        7.711179   -2.447992   -0.638493
     66          1           0        7.053432   -4.029524   -1.555159
     67          1           0        6.935101   -3.697415    0.077987
     68          1           0        6.829517   -0.519472   -0.293375
     69          1           0        4.728898    1.570076    0.047722
     70          1           0        6.323907    1.069806    1.260526
     71          1           0        4.890795    0.557983    1.531869
     72          1           0        3.333598    6.131614   -1.021769
     73          1           0        4.197048    4.591196   -0.585024
     74          1           0       -0.173546    6.460309   -1.846896
     75          1           0        1.311632    7.099223   -0.889737
     76          1           0       -0.130271    6.927365    0.265604
     77          1           0        3.573942    6.498357    1.729466
     78          1           0        5.165116    5.869209    0.790289
     79          1           0        3.884475    4.540136    1.547825
     80          1           0       -3.402780   -4.266517   -1.869850
     81          1           0       -7.608101   -2.263213   -1.999995
 ---------------------------------------------------------------------

 SCF Done:  E(RB3LYP) =  -1949.05566078     A.U. after   16 cycles

 Excitation energies and oscillator strengths:

 Excited State   1:      Singlet-A      2.0128 eV  615.97 nm  f=0.3456  <S**2>=0.000
     156 ->157         0.70502
 This state for optimization and/or second-order correction.
 Total Energy, E(TD-HF/TD-DFT) =  -1948.98169125
 Copying the excited state density for this state as the 1-particle RhoCI density.

 The electronic state is 1-A.
 Alpha  occ. eigenvalues --  -19.19664 -19.17999 -19.14303 -19.12318 -19.10663
 Alpha  occ. eigenvalues --  -19.10514 -14.37415 -14.35352 -14.34280 -14.29801
 Alpha  occ. eigenvalues --  -10.34235 -10.32264 -10.28251 -10.26642 -10.24526
 Alpha  occ. eigenvalues --  -10.24345 -10.24285 -10.23673 -10.23459 -10.23456
 Alpha  occ. eigenvalues --  -10.23027 -10.23017 -10.22376 -10.22194 -10.21701
 Alpha  occ. eigenvalues --  -10.21603 -10.21293 -10.20918 -10.20533 -10.20464
 Alpha  occ. eigenvalues --  -10.20462 -10.20085 -10.20060 -10.19609 -10.19523
 Alpha  occ. eigenvalues --  -10.19282 -10.19099 -10.19029 -10.18849 -10.18784
 Alpha  occ. eigenvalues --  -10.18169 -10.18072 -10.17192  -1.09093  -1.08239
 Alpha  occ. eigenvalues --   -1.04832  -1.02591  -1.00020  -0.99466  -0.98644
 Alpha  occ. eigenvalues --   -0.95910  -0.94323  -0.90684  -0.82974  -0.82419
 Alpha  occ. eigenvalues --   -0.82180  -0.80783  -0.79961  -0.78791  -0.78226
 Alpha  occ. eigenvalues --   -0.76836  -0.76028  -0.75475  -0.74718  -0.73099
 Alpha  occ. eigenvalues --   -0.71022  -0.70627  -0.68940  -0.68499  -0.68384
 Alpha  occ. eigenvalues --   -0.67098  -0.65996  -0.65149  -0.62486  -0.61736
 Alpha  occ. eigenvalues --   -0.60300  -0.59516  -0.58452  -0.58110  -0.56712
 Alpha  occ. eigenvalues --   -0.55869  -0.54990  -0.54812  -0.53868  -0.53502
 Alpha  occ. eigenvalues --   -0.52213  -0.51507  -0.50909  -0.49688  -0.49125
 Alpha  occ. eigenvalues --   -0.48824  -0.48459  -0.48098  -0.47649  -0.47146
 Alpha  occ. eigenvalues --   -0.46791  -0.46678  -0.46072  -0.45198  -0.44842
 Alpha  occ. eigenvalues --   -0.44818  -0.44475  -0.44360  -0.43921  -0.43773
 Alpha  occ. eigenvalues --   -0.43283  -0.43082  -0.42826  -0.42414  -0.41921
 Alpha  occ. eigenvalues --   -0.41612  -0.41560  -0.41345  -0.41008  -0.40802
 Alpha  occ. eigenvalues --   -0.40617  -0.40345  -0.39932  -0.39358  -0.38954
 Alpha  occ. eigenvalues --   -0.38829  -0.38639  -0.38386  -0.38126  -0.37964
 Alpha  occ. eigenvalues --   -0.37699  -0.37178  -0.37002  -0.36748  -0.36644
 Alpha  occ. eigenvalues --   -0.36020  -0.35750  -0.35511  -0.34963  -0.34783
 Alpha  occ. eigenvalues --   -0.34285  -0.34178  -0.33685  -0.33126  -0.32866
 Alpha  occ. eigenvalues --   -0.32595  -0.32488  -0.32284  -0.30494  -0.29339
 Alpha  occ. eigenvalues --   -0.28672  -0.27424  -0.26908  -0.26347  -0.25320
 Alpha  occ. eigenvalues --   -0.25266  -0.24640  -0.24514  -0.23972  -0.22321
 Alpha  occ. eigenvalues --   -0.18475
 Alpha virt. eigenvalues --   -0.10166  -0.05565  -0.04066  -0.03498   0.00001
 Alpha virt. eigenvalues --    0.01565   0.02187   0.02688   0.02991   0.03386
 Alpha virt. eigenvalues --    0.04044   0.04315   0.04425   0.05521   0.06190

 Mulliken charges:
               1
     1  O   -0.174638
     2  O   -0.242540
     3  O   -0.173230
     4  O   -0.276854
     5  O   -0.241821
     6  O   -0.217716
     7  N   -0.124493
     8  N   -0.104528
     9  N   -0.105667
    10  N   -0.370667
    11  C   -0.093645
    12  C    0.145874
    13  C   -0.173586
    14  C    0.120943
    15  C   -0.035794
    16  C    0.072934
    17  C   -0.053950
    18  C   -0.115502
    19  C    0.069809
    20  C   -0.077856
    21  C    0.029064
    22  C    0.034699
    23  C    0.070543
    24  C    0.046960
    25  C   -0.053426
    26  C    0.149251
    27  C    0.088224
    28  C   -0.035674
    29  C   -0.081933
    30  C   -0.018918
    31  C   -0.164404
    32  C    0.108946
    33  C   -0.230762
    34  C    0.098642
    35  C   -0.113954
    36  C   -0.200906
    37  C    0.173129
    38  C    0.159256
    39  C    0.164640
    40  C    0.081971
    41  C    0.179483
    42  C    0.081506
    43  C   -0.066987
    44  H    0.130575
    45  H   -0.003212
    46  H    0.037450
    47  H    0.029563
    48  H    0.044275
    49  H    0.029578
    50  H    0.049841
    51  H   -0.004710
    52  H    0.165515
    53  H   -0.046509
    54  H    0.046833
    55  H    0.005780
    56  H    0.069293
    57  H    0.067123
    58  H    0.070175
    59  H    0.075749
    60  H    0.069917
    61  H    0.050326
    62  H    0.031099
    63  H    0.044888
    64  H    0.024094
    65  H    0.019807
    66  H    0.008789
    67  H   -0.011730
    68  H   -0.022857
    69  H    0.126415
    70  H   -0.006117
    71  H   -0.057211
    72  H    0.002619
    73  H    0.001215
    74  H    0.060920
    75  H   -0.002940
    76  H    0.063184
    77  H    0.035952
    78  H    0.034748
    79  H    0.060780
    80  H    0.221129
    81  H    0.151229
 Sum of Mulliken charges =  -0.00000

 Dipole moment (field-independent basis, Debye):
    X=             -1.9110    Y=              0.2771    Z=             -0.2178  Tot=              1.9432
 Quadrupole moment (field-independent basis, Debye-Ang):
   XX=           -262.1020   YY=           -238.1258   ZZ=           -252.2150
   XY=             17.4056   XZ=             18.9474   YZ=            -15.2497

 Normal termination of Gaussian 16 at Fri Jun 28 00:29:01 2019.
