 Gaussian 16, Revision A.03,
 Gaussian 16:  ES64L-G16RevA.03 25-Dec-2016

 --------------------------
 # td=(NStates=1) B3LYP/SVP
 --------------------------

 --
 TD
 --
 Symbolic Z-matrix:
 Charge =  0 Multiplicity = 1

                         Standard orientation:
 ---------------------------------------------------------------------
 Center     Atomic      Atomic             Coordinates (Angstroms)
 Number     Number       Type             X           Y           Z
 ---------------------------------------------------------------------
      1          8           0        4.492646   -4.855933   -1.744401
      2          8           0       -2.932599   -4.926617   -1.019578
      3          8           0       -6.910491   -1.985100   -1.678295
      4          8           0       -3.808221   -3.361974    0.298800
      5          8           0       -7.607791   -0.426864    0.014975
      6          8           0        2.919782    2.531081    0.355648
      7          7           0        0.278445   -0.480140    0.436880
      8          7           0       -1.634777    1.869627    0.392963
      9          7           0        3.468253   -3.125528   -0.592032
     10          7           0        0.666420    2.964827    0.042489
     11          6           0       -0.616793   -2.422078    1.314707
     12          6           0       -0.895846   -1.111830    0.772834
     13          6           0        0.741510   -2.592778    1.161760
     14          6           0        1.351012   -1.387044    0.541066
     15          6           0       -3.870519    1.443278    0.238750
     16          6           0       -2.556725    0.844361    0.454427
     17          6           0       -2.183751   -0.519132    0.636001
     18          6           0       -3.545773    2.762210   -0.086761
     19          6           0       -1.527619   -3.317542    1.893392
     20          6           0        5.696984   -2.714387   -1.248497
     21          6           0        3.687172   -1.814199   -0.239332
     22          6           0       -2.153318    2.995234   -0.037933
     23          6           0        5.119410   -1.482151   -0.511712
     24          6           0       -5.137983    0.669459    0.287147
     25          6           0        2.673239   -0.983534    0.293709
     26          6           0        1.544363   -3.672146    1.715200
     27          6           0        4.593487   -3.720569   -1.277920
     28          6           0       -1.909455   -4.577608    1.059641
     29          6           0       -5.388581   -0.376296   -0.905851
     30          6           0       -4.594313    3.856664   -0.416601
     31          6           0       -1.403775    4.126654   -0.405538
     32          6           0        7.005397   -3.364721   -0.743138
     33          6           0        5.809705   -0.429707   -0.104288
     34          6           0       -0.046232    4.153334   -0.300166
     35          6           0        0.883014    5.273036   -0.379078
     36          6           0        2.157871    4.722699   -0.307902
     37          6           0       -2.945605   -4.208999    0.061346
     38          6           0        5.374100    0.640981    0.842767
     39          6           0       -6.745556   -1.012384   -0.812078
     40          6           0        3.596984    5.357849   -0.283793
     41          6           0        2.015122    3.329703    0.069925
     42          6           0        0.471361    6.709454   -0.741715
     43          6           0        4.072899    5.592122    1.179504
     44          1           0        0.298762    0.451915   -0.033568
     45          1           0       -3.148684   -1.071361    0.776144
     46          1           0       -2.511184   -3.075055    2.157398
     47          1           0       -1.328889   -3.701672    3.002383
     48          1           0        5.839045   -2.283234   -2.374104
     49          1           0       -5.276572    0.154732    1.261916
     50          1           0       -5.882800    1.230146    0.501228
     51          1           0        2.775792    0.067715    0.494461
     52          1           0       -0.580186    2.005789    0.484858
     53          1           0        1.628785   -4.554492    1.032418
     54          1           0        2.574548   -3.368301    1.736613
     55          1           0        0.999708   -4.056209    2.628939
     56          1           0        2.644123   -3.637368   -0.745558
     57          1           0       -0.907602   -5.098310    0.720394
     58          1           0       -2.553528   -5.237020    1.705353
     59          1           0       -4.451202   -1.168727   -1.109373
     60          1           0       -5.343503    0.362940   -1.677381
     61          1           0       -4.888935    4.650855    0.396166
     62          1           0       -5.637012    3.492363   -0.572217
     63          1           0       -4.262273    4.121970   -1.523008
     64          1           0       -1.944730    5.086028   -0.471309
     65          1           0        7.950382   -2.693954   -1.078493
     66          1           0        7.139386   -4.256447   -1.465099
     67          1           0        7.283852   -3.579005    0.264254
     68          1           0        6.936390   -0.474756   -0.333911
     69          1           0        5.029216    1.655947    0.315031
     70          1           0        6.268424    1.066180    1.389254
     71          1           0        4.660688    0.200186    1.671246
     72          1           0        3.589706    6.330827   -0.924725
     73          1           0        4.389415    4.807990   -0.898667
     74          1           0        0.236884    6.857212   -1.891205
     75          1           0        1.377155    7.268830   -0.577009
     76          1           0       -0.316700    7.037518   -0.170446
     77          1           0        3.316346    6.232388    1.694684
     78          1           0        4.898949    6.144592    0.925685
     79          1           0        4.515412    4.711275    1.717630
     80          1           0       -3.713841   -4.534796   -1.592174
     81          1           0       -7.911049   -2.164526   -1.536330
 ---------------------------------------------------------------------

 SCF Done:  E(RB3LYP) =  -1949.12335832     A.U. after   19 cycles

 Excitation energies and oscillator strengths:

 Excited State   1:      Singlet-A      1.7719 eV  699.71 nm  f=0.3638  <S**2>=0.000
     156 ->157         0.70679
     156 <-157        -0.12680
 This state for optimization and/or second-order correction.
 Total Energy, E(TD-HF/TD-DFT) =  -1949.05824081
 Copying the excited state density for this state as the 1-particle RhoCI density.

 The electronic state is 1-A.
 Alpha  occ. eigenvalues --  -19.22328 -19.21119 -19.13520 -19.12742 -19.12616
 Alpha  occ. eigenvalues --  -19.08276 -14.38089 -14.37391 -14.34496 -14.27182
 Alpha  occ. eigenvalues --  -10.33631 -10.33287 -10.30503 -10.25568 -10.24365
 Alpha  occ. eigenvalues --  -10.24008 -10.23448 -10.23172 -10.22575 -10.22482
 Alpha  occ. eigenvalues --  -10.22286 -10.21632 -10.21411 -10.21293 -10.20986
 Alpha  occ. eigenvalues --  -10.20606 -10.20403 -10.20342 -10.20299 -10.20001
 Alpha  occ. eigenvalues --  -10.19800 -10.19701 -10.19648 -10.19609 -10.19411
 Alpha  occ. eigenvalues --  -10.19290 -10.19102 -10.18964 -10.18895 -10.18504
 Alpha  occ. eigenvalues --  -10.18469 -10.18052 -10.17312  -1.12491  -1.11637
 Alpha  occ. eigenvalues --   -1.03864  -1.01315  -0.98850  -0.98434  -0.97298
 Alpha  occ. eigenvalues --   -0.96763  -0.95476  -0.88977  -0.83540  -0.82129
 Alpha  occ. eigenvalues --   -0.81391  -0.80444  -0.78663  -0.78171  -0.77543
 Alpha  occ. eigenvalues --   -0.76475  -0.76141  -0.74766  -0.73903  -0.72649
 Alpha  occ. eigenvalues --   -0.70711  -0.69851  -0.68796  -0.68254  -0.68237
 Alpha  occ. eigenvalues --   -0.67046  -0.65579  -0.64709  -0.62424  -0.61531
 Alpha  occ. eigenvalues --   -0.60881  -0.59967  -0.58379  -0.57602  -0.57233
 Alpha  occ. eigenvalues --   -0.56368  -0.54932  -0.54860  -0.53519  -0.52727
 Alpha  occ. eigenvalues --   -0.51519  -0.51244  -0.50826  -0.50674  -0.50320
 Alpha  occ. eigenvalues --   -0.50228  -0.49543  -0.49166  -0.48250  -0.47564
 Alpha  occ. eigenvalues --   -0.46992  -0.46812  -0.46392  -0.45532  -0.44869
 Alpha  occ. eigenvalues --   -0.44787  -0.44258  -0.44053  -0.43803  -0.43548
 Alpha  occ. eigenvalues --   -0.43168  -0.42529  -0.42494  -0.42129  -0.42007
 Alpha  occ. eigenvalues --   -0.41572  -0.41346  -0.41089  -0.40559  -0.40298
 Alpha  occ. eigenvalues --   -0.40170  -0.39955  -0.39766  -0.39444  -0.39262
 Alpha  occ. eigenvalues --   -0.39215  -0.38665  -0.38445  -0.38020  -0.37875
 Alpha  occ. eigenvalues --   -0.37653  -0.37585  -0.37282  -0.36740  -0.36487
 Alpha  occ. eigenvalues --   -0.36266  -0.35964  -0.35172  -0.34214  -0.34178
 Alpha  occ. eigenvalues --   -0.33844  -0.33406  -0.33349  -0.32678  -0.32399
 Alpha  occ. eigenvalues --   -0.32108  -0.31488  -0.31264  -0.29549  -0.29091
 Alpha  occ. eigenvalues --   -0.27543  -0.27449  -0.26667  -0.26207  -0.25466
 Alpha  occ. eigenvalues --   -0.25129  -0.24356  -0.22814  -0.22501  -0.20613
 Alpha  occ. eigenvalues --   -0.17254
 Alpha virt. eigenvalues --   -0.10239  -0.05722  -0.03860  -0.02578  -0.02048
 Alpha virt. eigenvalues --   -0.01095   0.01473   0.01815   0.02851   0.03250
 Alpha virt. eigenvalues --    0.04530   0.04947   0.05043   0.05396   0.05527

 Mulliken charges:
               1
     1  O   -0.212087
     2  O   -0.153168
     3  O   -0.143913
     4  O   -0.268669
     5  O   -0.339851
     6  O   -0.245350
     7  N   -0.088247
     8  N   -0.046675
     9  N   -0.131325
    10  N   -0.384964
    11  C    0.054209
    12  C    0.086360
    13  C   -0.188488
    14  C    0.095888
    15  C   -0.042903
    16  C   -0.017384
    17  C   -0.047995
    18  C   -0.147692
    19  C    0.002270
    20  C   -0.077372
    21  C    0.115905
    22  C    0.035107
    23  C    0.006108
    24  C    0.181540
    25  C   -0.127746
    26  C    0.118995
    27  C    0.142627
    28  C   -0.007248
    29  C   -0.032413
    30  C    0.014981
    31  C   -0.107600
    32  C    0.011079
    33  C   -0.160698
    34  C    0.120072
    35  C   -0.128316
    36  C   -0.141100
    37  C    0.107931
    38  C    0.004373
    39  C    0.200128
    40  C   -0.006486
    41  C    0.161154
    42  C    0.126927
    43  C    0.052684
    44  H    0.152661
    45  H    0.031085
    46  H   -0.018936
    47  H    0.017396
    48  H    0.082049
    49  H    0.002456
    50  H   -0.074072
    51  H    0.021945
    52  H    0.146252
    53  H    0.006904
    54  H    0.015886
    55  H    0.027600
    56  H    0.121543
    57  H    0.049351
    58  H    0.046754
    59  H    0.069346
    60  H    0.041271
    61  H    0.050472
    62  H    0.003640
    63  H    0.041193
    64  H   -0.016307
    65  H    0.019662
    66  H    0.047157
    67  H    0.031163
    68  H    0.007093
    69  H    0.090657
    70  H    0.001750
    71  H    0.054245
    72  H   -0.000143
    73  H    0.015756
    74  H    0.040884
    75  H    0.003603
    76  H    0.003091
    77  H    0.024138
    78  H   -0.018907
    79  H    0.043081
    80  H    0.217672
    81  H    0.209959
 Sum of Mulliken charges =  -0.00000

 Dipole moment (field-independent basis, Debye):
    X=             -1.3518    Y=             -1.6303    Z=             -1.5363  Tot=              2.6163
 Quadrupole moment (field-independent basis, Debye-Ang):
   XX=           -237.5066   YY=           -241.7025   ZZ=           -252.8192
   XY=             20.2504   XZ=             15.7032   YZ=             -9.0180

 Normal termination of Gaussian 16 at Wed Jul  3 13:12:55 2019.
