 Gaussian 16, Revision A.03,
 Gaussian 16:  ES64L-G16RevA.03 25-Dec-2016

 ----------------------
 #n wB97XD/Def2TZVP Opt
 ----------------------

 -------------
 zeaxanthin-s0
 -------------
 Symbolic Z-matrix:
 Charge =  0 Multiplicity = 1

 SCF Done:  E(RwB97XD) =  -1708.39256622     A.U. after   15 cycles
 SCF Done:  E(RwB97XD) =  -1708.39458777     A.U. after   12 cycles
 SCF Done:  E(RwB97XD) =  -1708.39489862     A.U. after   12 cycles
 SCF Done:  E(RwB97XD) =  -1708.39494623     A.U. after   12 cycles
 SCF Done:  E(RwB97XD) =  -1708.39503029     A.U. after   11 cycles
 SCF Done:  E(RwB97XD) =  -1708.39505378     A.U. after   11 cycles
 SCF Done:  E(RwB97XD) =  -1708.39506065     A.U. after   10 cycles
 SCF Done:  E(RwB97XD) =  -1708.39506314     A.U. after    9 cycles
 SCF Done:  E(RwB97XD) =  -1708.39506425     A.U. after    7 cycles
 SCF Done:  E(RwB97XD) =  -1708.39506475     A.U. after    7 cycles
 SCF Done:  E(RwB97XD) =  -1708.39506500     A.U. after    7 cycles
 SCF Done:  E(RwB97XD) =  -1708.39506508     A.U. after    7 cycles
 SCF Done:  E(RwB97XD) =  -1708.39506512     A.U. after    5 cycles
 SCF Done:  E(RwB97XD) =  -1708.39506514     A.U. after    6 cycles
 SCF Done:  E(RwB97XD) =  -1708.39506515     A.U. after    6 cycles
 Optimization completed.
    -- Stationary point found.

                         Standard orientation:
 ---------------------------------------------------------------------
 Center     Atomic      Atomic             Coordinates (Angstroms)
 Number     Number       Type             X           Y           Z
 ---------------------------------------------------------------------
      1          8           0       14.656767   -2.291384   -0.292055
      2          8           0      -14.773729    1.856676    0.908460
      3          6           0       11.448952   -1.025133    1.305149
      4          6           0      -12.234585   -0.971994    0.870706
      5          6           0       12.939577   -1.357083    1.160619
      6          6           0      -13.604376   -0.280899    0.890282
      7          6           0       13.276661   -1.986324   -0.175300
      8          6           0      -13.501783    1.230781    0.868417
      9          6           0       10.926032   -0.333921    0.039240
     10          6           0      -11.306245   -0.309342   -0.154028
     11          6           0       12.933381   -1.020169   -1.285341
     12          6           0      -12.825210    1.661020   -0.411466
     13          6           0       11.587749   -0.357577   -1.127818
     14          6           0      -11.591704    0.861871   -0.741226
     15          6           0       11.294766   -0.097552    2.518035
     16          6           0       10.644110   -2.309759    1.566367
     17          6           0      -11.581285   -0.903790    2.260456
     18          6           0      -12.469338   -2.449194    0.520983
     19          6           0        9.621240    0.329053    0.206715
     20          6           0      -10.061031   -1.047796   -0.436226
     21          6           0       11.088853    0.261273   -2.403441
     22          6           0      -10.754141    1.502526   -1.812101
     23          6           0        9.335697    1.590270   -0.121574
     24          6           0       -8.831699   -0.539173   -0.314151
     25          6           0        8.033685    2.244343    0.049176
     26          6           0       -7.580611   -1.242476   -0.573244
     27          6           0        8.105661    3.703320    0.401614
     28          6           0       -7.660626   -2.672979   -1.017817
     29          6           0        6.888992    1.558022   -0.116995
     30          6           0       -6.424462   -0.571531   -0.399265
     31          6           0        5.541656    2.044741    0.068278
     32          6           0       -5.080429   -1.058683   -0.594679
     33          6           0        4.456083    1.282696   -0.141493
     34          6           0       -3.993375   -0.296957   -0.388027
     35          6           0        3.072927    1.694172    0.028139
     36          6           0       -2.611514   -0.709673   -0.560096
     37          6           0        2.808798    3.101909    0.476282
     38          6           0       -2.349217   -2.116593   -1.011982
     39          6           0        2.100754    0.792016   -0.226032
     40          6           0       -1.638378    0.191391   -0.305054
     41          6           0        0.676606    0.975825   -0.126604
     42          6           0       -0.214468    0.006924   -0.405560
     43          1           0       13.531528   -0.441517    1.257486
     44          1           0       13.238506   -2.020577    1.979757
     45          1           0      -14.157071   -0.612143    1.776365
     46          1           0      -14.186470   -0.588066    0.015507
     47          1           0       12.688784   -2.903540   -0.309094
     48          1           0      -12.900186    1.571214    1.721200
     49          1           0       13.712386   -0.248828   -1.319069
     50          1           0       12.980258   -1.534157   -2.248558
     51          1           0      -13.548600    1.571211   -1.230665
     52          1           0      -12.564939    2.722064   -0.357533
     53          1           0       11.746665   -0.558734    3.399669
     54          1           0       10.247179    0.105161    2.744024
     55          1           0       11.789874    0.859242    2.340948
     56          1           0       10.730944   -3.015359    0.739486
     57          1           0       11.000558   -2.799147    2.476301
     58          1           0        9.583871   -2.093728    1.706657
     59          1           0      -11.437059    0.127074    2.587091
     60          1           0      -10.601868   -1.384793    2.249705
     61          1           0      -12.203260   -1.415467    2.999464
     62          1           0      -13.240036   -2.862627    1.175531
     63          1           0      -11.569902   -3.050893    0.657386
     64          1           0      -12.807447   -2.560393   -0.511499
     65          1           0        8.847941   -0.250347    0.705434
     66          1           0      -10.168921   -2.088871   -0.722357
     67          1           0       10.049367    0.573007   -2.347828
     68          1           0       11.690821    1.136634   -2.666976
     69          1           0       11.196808   -0.449082   -3.227098
     70          1           0      -11.403252    1.874411   -2.609905
     71          1           0      -10.024559    0.821573   -2.243323
     72          1           0      -10.216177    2.370414   -1.418816
     73          1           0       14.891438   -2.910832    0.400674
     74          1           0      -15.216371    1.595268    1.717380
     75          1           0       10.135154    2.215936   -0.511356
     76          1           0       -8.733075    0.492740    0.011586
     77          1           0        8.743427    4.229025   -0.313988
     78          1           0        7.135067    4.193763    0.404972
     79          1           0        8.559762    3.837236    1.387128
     80          1           0       -8.178177   -3.278152   -0.269041
     81          1           0       -8.230655   -2.754991   -1.946552
     82          1           0       -6.682533   -3.115981   -1.185714
     83          1           0        6.970287    0.522590   -0.435965
     84          1           0       -6.498248    0.462885   -0.072404
     85          1           0        5.410328    3.068260    0.398870
     86          1           0       -4.949969   -2.083127   -0.921844
     87          1           0        4.606234    0.256472   -0.467962
     88          1           0       -4.141886    0.728996   -0.059981
     89          1           0        3.278522    3.290154    1.444830
     90          1           0        1.748563    3.319685    0.572224
     91          1           0        3.234412    3.815719   -0.233288
     92          1           0       -2.772440   -2.832165   -0.302723
     93          1           0       -2.821748   -2.302649   -1.979609
     94          1           0       -1.289269   -2.334000   -1.111828
     95          1           0        2.417539   -0.197811   -0.545605
     96          1           0       -1.954314    1.180885    0.016460
     97          1           0        0.296819    1.941996    0.189037
     98          1           0        0.164850   -0.959304   -0.721448
 ---------------------------------------------------------------------

 The electronic state is 1-A.
 Alpha  occ. eigenvalues --  -19.24550 -19.24432 -10.32867 -10.32717 -10.30165
 Alpha  occ. eigenvalues --  -10.30063 -10.29975 -10.29962 -10.29716 -10.29677
 Alpha  occ. eigenvalues --  -10.29106 -10.29027 -10.28935 -10.28797 -10.28760
 Alpha  occ. eigenvalues --  -10.28698 -10.28660 -10.28634 -10.28596 -10.28523
 Alpha  occ. eigenvalues --  -10.28464 -10.28460 -10.28353 -10.28293 -10.28265
 Alpha  occ. eigenvalues --  -10.28150 -10.28102 -10.28102 -10.28087 -10.28070
 Alpha  occ. eigenvalues --  -10.28039 -10.27983 -10.27628 -10.27508 -10.27483
 Alpha  occ. eigenvalues --  -10.27386 -10.27243 -10.27096 -10.27067 -10.26924
 Alpha  occ. eigenvalues --  -10.26817 -10.26793  -1.12523  -1.12399  -0.96014
 Alpha  occ. eigenvalues --   -0.95886  -0.94587  -0.94033  -0.93046  -0.92430
 Alpha  occ. eigenvalues --   -0.89863  -0.89377  -0.89242  -0.88041  -0.87294
 Alpha  occ. eigenvalues --   -0.85724  -0.84635  -0.82701  -0.82322  -0.80719
 Alpha  occ. eigenvalues --   -0.79185  -0.78913  -0.78578  -0.78423  -0.78370
 Alpha  occ. eigenvalues --   -0.77990  -0.77854  -0.77768  -0.76831  -0.73063
 Alpha  occ. eigenvalues --   -0.71366  -0.69989  -0.68387  -0.67429  -0.66509
 Alpha  occ. eigenvalues --   -0.66162  -0.65148  -0.64419  -0.63244  -0.62760
 Alpha  occ. eigenvalues --   -0.61995  -0.61487  -0.61272  -0.60330  -0.58817
 Alpha  occ. eigenvalues --   -0.58305  -0.57906  -0.57541  -0.57220  -0.56464
 Alpha  occ. eigenvalues --   -0.55734  -0.55335  -0.54592  -0.54407  -0.53190
 Alpha  occ. eigenvalues --   -0.53023  -0.52831  -0.52198  -0.51656  -0.51332
 Alpha  occ. eigenvalues --   -0.51274  -0.51191  -0.51162  -0.51031  -0.50888
 Alpha  occ. eigenvalues --   -0.50756  -0.50651  -0.50426  -0.48852  -0.48711
 Alpha  occ. eigenvalues --   -0.48578  -0.48449  -0.48196  -0.48062  -0.47815
 Alpha  occ. eigenvalues --   -0.47503  -0.47436  -0.46968  -0.46794  -0.46415
 Alpha  occ. eigenvalues --   -0.45995  -0.45792  -0.45068  -0.44918  -0.44859
 Alpha  occ. eigenvalues --   -0.44736  -0.44640  -0.44532  -0.44473  -0.43709
 Alpha  occ. eigenvalues --   -0.43562  -0.43203  -0.43154  -0.42699  -0.42404
 Alpha  occ. eigenvalues --   -0.42220  -0.41989  -0.41882  -0.41631  -0.41516
 Alpha  occ. eigenvalues --   -0.41477  -0.41147  -0.39468  -0.39320  -0.39202
 Alpha  occ. eigenvalues --   -0.38847  -0.37842  -0.36799  -0.35378  -0.35191
 Alpha  occ. eigenvalues --   -0.35037  -0.32688  -0.31218  -0.29694  -0.27129
 Alpha  occ. eigenvalues --   -0.23910
 Alpha virt. eigenvalues --   -0.02697   0.01375   0.04659   0.07731   0.09455
 Alpha virt. eigenvalues --    0.09863   0.10111   0.10860   0.10903   0.11143
 Alpha virt. eigenvalues --    0.11575   0.11753   0.11990   0.12021   0.12327

 Mulliken charges:
               1
     1  O   -0.455349
     2  O   -0.454459
     3  C    0.115198
     4  C    0.212727
     5  C   -0.248230
     6  C   -0.251056
     7  C    0.100663
     8  C    0.093260
     9  C    0.065364
    10  C    0.010142
    11  C   -0.143825
    12  C   -0.149584
    13  C   -0.050705
    14  C   -0.048559
    15  C   -0.359929
    16  C   -0.404281
    17  C   -0.414613
    18  C   -0.430024
    19  C   -0.266971
    20  C   -0.286311
    21  C   -0.384785
    22  C   -0.392732
    23  C   -0.237856
    24  C   -0.230581
    25  C    0.125294
    26  C    0.177828
    27  C   -0.358910
    28  C   -0.386753
    29  C   -0.194449
    30  C   -0.172472
    31  C   -0.031986
    32  C   -0.050631
    33  C   -0.225424
    34  C   -0.214969
    35  C    0.128914
    36  C    0.125513
    37  C   -0.387358
    38  C   -0.387727
    39  C   -0.133033
    40  C   -0.129239
    41  C   -0.113445
    42  C   -0.117476
    43  H    0.105680
    44  H    0.101494
    45  H    0.102144
    46  H    0.107135
    47  H    0.067931
    48  H    0.065306
    49  H    0.108358
    50  H    0.110696
    51  H    0.112313
    52  H    0.115172
    53  H    0.119738
    54  H    0.128813
    55  H    0.121899
    56  H    0.121673
    57  H    0.118795
    58  H    0.118634
    59  H    0.116281
    60  H    0.137621
    61  H    0.116269
    62  H    0.124656
    63  H    0.124478
    64  H    0.132477
    65  H    0.130866
    66  H    0.145591
    67  H    0.153630
    68  H    0.124739
    69  H    0.119994
    70  H    0.123870
    71  H    0.147107
    72  H    0.126996
    73  H    0.306375
    74  H    0.306189
    75  H    0.132368
    76  H    0.121263
    77  H    0.124359
    78  H    0.110858
    79  H    0.130919
    80  H    0.131458
    81  H    0.135067
    82  H    0.119320
    83  H    0.121984
    84  H    0.098289
    85  H    0.110417
    86  H    0.106870
    87  H    0.099435
    88  H    0.099857
    89  H    0.134461
    90  H    0.119406
    91  H    0.134954
    92  H    0.134304
    93  H    0.134716
    94  H    0.120307
    95  H    0.100498
    96  H    0.100944
    97  H    0.087004
    98  H    0.086841
 Sum of Mulliken charges =  -0.00000

 Dipole moment (field-independent basis, Debye):
    X=              0.3190    Y=             -1.2938    Z=              1.9329  Tot=              2.3477
 Quadrupole moment (field-independent basis, Debye-Ang):
   XX=           -281.7643   YY=           -245.1661   ZZ=           -260.9371
   XY=             12.9573   XZ=              0.3516   YZ=              1.6496

 Normal termination of Gaussian 16 at Wed Nov  6 19:24:52 2019.
