 Gaussian 16, Revision A.03,
 Gaussian 16:  ES64L-G16RevA.03 25-Dec-2016

 --------------------------------------------------------
 # wB97XD/Def2TZVP iop(3/107=0150000000,3/108=0150000000)
 --------------------------------------------------------

 -----
 TITLE
 -----
 Symbolic Z-matrix:
 Charge = -1 Multiplicity = 2

                         Standard orientation:
 ---------------------------------------------------------------------
 Center     Atomic      Atomic             Coordinates (Angstroms)
 Number     Number       Type             X           Y           Z
 ---------------------------------------------------------------------
      1          6           0       -5.231143   -1.901434   -0.322419
      2          6           0       -3.469334    1.299589    2.731947
      3          6           0       -6.342655    4.649219    0.709276
      4          6           0       -8.364115    1.374667   -2.186838
      5          7           0       -4.496528   -0.106379    1.060370
      6          6           0       -4.421400   -1.404118    0.658535
      7          6           0       -3.367833   -2.182248    1.420299
      8          6           0       -3.015029   -1.204116    2.557950
      9          6           0       -3.687109    0.076572    2.092284
     10          6           0       -3.535165   -1.653211    3.924814
     11          6           0       -2.169356   -2.552991    0.538342
     12          6           0       -1.193276   -3.472467    1.256647
     13          6           0        0.019414   -3.821403    0.426296
     14          8           0        0.248519   -3.394830   -0.674723
     15          8           0        0.809699   -4.681090    1.082636
     16          7           0       -4.992628    2.761942    1.485320
     17          6           0       -4.050883    2.518756    2.434460
     18          6           0       -3.762063    3.779483    3.072313
     19          6           0       -4.531834    4.738209    2.472963
     20          6           0       -5.352964    4.085825    1.470083
     21          6           0       -2.752638    3.953187    4.156106
     22          6           0       -4.521905    6.165924    2.787501
     23          6           0       -4.570481    7.160349    1.905286
     24          7           0       -7.111341    2.743840   -0.609361
     25          6           0       -7.169778    4.031735   -0.253217
     26          6           0       -8.207473    4.745402   -0.985469
     27          6           0       -8.785453    3.828381   -1.805544
     28          6           0       -8.086322    2.576537   -1.558711
     29          6           0       -8.526295    6.196373   -0.835192
     30          6           0       -9.876513    4.033681   -2.808296
     31          6           0       -9.343410    4.290658   -4.221985
     32          7           0       -6.656567    0.077573   -1.054934
     33          6           0       -7.701446    0.168980   -1.958969
     34          6           0       -7.919977   -1.117686   -2.518087
     35          6           0       -6.978579   -1.945857   -1.913202
     36          6           0       -6.218351   -1.178548   -1.014659
     37          6           0       -8.964588   -1.488229   -3.514279
     38          6           0       -6.502231   -3.320435   -1.873966
     39          8           0       -6.882575   -4.294641   -2.470528
     40          6           0       -5.297531   -3.322146   -0.852922
     41          6           0       -5.539028   -4.379296    0.203346
     42          8           0       -6.263447   -4.252646    1.153881
     43          8           0       -4.851135   -5.494596   -0.067598
     44          6           0       -5.082578   -6.595255    0.811005
     45          6           0        2.058252   -5.039180    0.446775
     46          6           0        3.137458   -4.068363    0.796034
     47          6           0        3.814020   -3.286892   -0.047292
     48          6           0        3.577309   -3.242431   -1.531984
     49          6           0        4.908271   -2.387478    0.466062
     50          6           0        6.295655   -2.735681   -0.084656
     51          6           0        7.385539   -1.825881    0.474930
     52          6           0        8.780243   -2.027059   -0.130626
     53          6           0        9.322448   -3.429883    0.144021
     54          6           0        9.730031   -0.935391    0.378199
     55          6           0       11.105242   -0.905251   -0.284000
     56          6           0       11.950516    0.279395    0.177363
     57          6           0       13.302637    0.436057   -0.529606
     58          6           0       14.227360   -0.751951   -0.263154
     59          6           0       13.951243    1.765523   -0.124783
     60          6           0       15.228510    2.126570   -0.879184
     61          6           0       15.727094    3.530189   -0.544648
     62          6           0       17.082129    3.904289   -1.155388
     63          6           0       17.055893    3.886599   -2.683618
     64          6           0       17.539868    5.269182   -0.642643
     65          1           0       -2.757677    1.302708    3.547267
     66          1           0       -6.520776    5.700271    0.889443
     67          1           0       -9.166415    1.357012   -2.913478
     68          1           0       -3.805633   -3.098894    1.825834
     69          1           0       -1.934672   -1.048751    2.624486
     70          1           0       -3.053371   -2.584482    4.229025
     71          1           0       -3.337875   -0.902169    4.691334
     72          1           0       -4.612682   -1.824214    3.886339
     73          1           0       -2.512550   -3.046132   -0.371505
     74          1           0       -1.658966   -1.643100    0.214459
     75          1           0       -0.830185   -3.027171    2.187296
     76          1           0       -1.681474   -4.406834    1.547054
     77          1           0       -1.754234    3.675305    3.810057
     78          1           0       -2.707762    4.986999    4.494223
     79          1           0       -2.986769    3.323934    5.017944
     80          1           0       -4.437649    6.415193    3.841159
     81          1           0       -4.607110    6.979807    0.838179
     82          1           0       -4.549546    8.192183    2.231199
     83          1           0       -7.674567    6.822721   -1.113524
     84          1           0       -9.365024    6.485220   -1.468162
     85          1           0       -8.788230    6.444647    0.196330
     86          1           0      -10.536686    3.162388   -2.821586
     87          1           0      -10.501031    4.874967   -2.499841
     88          1           0       -8.720982    5.186772   -4.241201
     89          1           0       -8.729755    3.455938   -4.565134
     90          1           0      -10.162474    4.427203   -4.930542
     91          1           0       -9.064536   -0.728742   -4.291275
     92          1           0       -8.720520   -2.439157   -3.984276
     93          1           0       -9.938670   -1.597073   -3.030467
     94          1           0       -4.411283   -3.600087   -1.426206
     95          1           0       -4.456664   -7.403162    0.442096
     96          1           0       -4.808178   -6.335518    1.833680
     97          1           0       -6.132319   -6.886123    0.787703
     98          1           0        2.282365   -6.025714    0.853040
     99          1           0        1.901534   -5.127131   -0.625734
    100          1           0        3.380522   -4.021472    1.854029
    101          1           0        2.569439   -3.552866   -1.799234
    102          1           0        3.723259   -2.226022   -1.904183
    103          1           0        4.291733   -3.879893   -2.060118
    104          1           0        4.671391   -1.352804    0.190864
    105          1           0        4.936318   -2.425833    1.558038
    106          1           0        6.510020   -3.780919    0.153000
    107          1           0        6.289980   -2.658807   -1.176419
    108          1           0        7.084772   -0.784872    0.314313
    109          1           0        7.447020   -1.959251    1.561876
    110          1           0        8.689393   -1.905866   -1.217844
    111          1           0        8.659060   -4.201952   -0.247332
    112          1           0       10.298816   -3.581153   -0.317324
    113          1           0        9.430821   -3.594511    1.220337
    114          1           0        9.250117    0.037787    0.228383
    115          1           0        9.852816   -1.048274    1.462386
    116          1           0       11.633898   -1.837426   -0.074614
    117          1           0       10.980995   -0.857639   -1.372195
    118          1           0       11.373171    1.198096    0.027240
    119          1           0       12.121410    0.203028    1.258231
    120          1           0       13.108571    0.478296   -1.609265
    121          1           0       13.776264   -1.693107   -0.579418
    122          1           0       15.172784   -0.653092   -0.797617
    123          1           0       14.452361   -0.829825    0.804893
    124          1           0       13.220396    2.567261   -0.276902
    125          1           0       14.159169    1.746598    0.952046
    126          1           0       16.019742    1.407165   -0.647337
    127          1           0       15.039921    2.042144   -1.953931
    128          1           0       14.979288    4.266665   -0.863759
    129          1           0       15.799109    3.625321    0.544414
    130          1           0       17.812864    3.157457   -0.822232
    131          1           0       16.302168    4.582994   -3.063176
    132          1           0       18.022369    4.187337   -3.093377
    133          1           0       16.824805    2.895902   -3.077283
    134          1           0       17.595463    5.285634    0.447925
    135          1           0       18.525476    5.529608   -1.034070
    136          1           0       16.841525    6.051901   -0.952740
    137          1           0       -5.425163    2.047178    0.922835
    138          1           0       -6.331106    0.891287   -0.549769
 ---------------------------------------------------------------------

 SCF Done:  E(UwB97XD) =  -2735.88762276     A.U. after   23 cycles

 Alpha virt. eigenvalues --    2.05783   2.05984   2.06028   2.06288   2.06344
 Alpha virt. eigenvalues --    2.06473   2.06718   2.06778   2.07046   2.07393
 Alpha virt. eigenvalues --    2.07483   2.07944   2.08000   2.09015   2.09269

  Beta  occ. eigenvalues --  -19.21058 -19.19281 -19.14681 -19.12097 -19.09621
  Beta  occ. eigenvalues --  -14.33623 -14.33507 -14.27835 -14.26066 -10.32328
  Beta  occ. eigenvalues --  -10.29936 -10.26425 -10.24196 -10.23948 -10.23641
  Beta  occ. eigenvalues --  -10.23104 -10.22569 -10.22548 -10.22433 -10.22393
  Beta  occ. eigenvalues --  -10.22209 -10.22045 -10.22003 -10.21966 -10.21900
  Beta  occ. eigenvalues --  -10.21685 -10.21620 -10.21488 -10.21418 -10.21414
  Beta  occ. eigenvalues --  -10.21061 -10.20444 -10.20241 -10.20140 -10.19398
  Beta  occ. eigenvalues --  -10.19204 -10.19155 -10.19052 -10.18978 -10.18676
  Beta  occ. eigenvalues --  -10.18539 -10.18482 -10.18123 -10.18034 -10.18012
  Beta  occ. eigenvalues --  -10.17614 -10.17541 -10.17302 -10.17241 -10.16961
  Beta  occ. eigenvalues --  -10.16958 -10.16890 -10.16887 -10.16427 -10.16049
  Beta  occ. eigenvalues --  -10.16042 -10.15992 -10.15799 -10.15573 -10.15440
  Beta  occ. eigenvalues --  -10.14909 -10.14897 -10.14067 -10.14012  -1.12304
  Beta  occ. eigenvalues --   -1.10452  -1.03333  -1.01059  -1.00722  -0.95734
  Beta  occ. eigenvalues --   -0.95227  -0.91830  -0.90669  -0.87473  -0.86630
  Beta  occ. eigenvalues --   -0.85735  -0.84746  -0.81921  -0.81610  -0.80986
  Beta  occ. eigenvalues --   -0.79757  -0.79450  -0.78458  -0.77760  -0.77610
  Beta  occ. eigenvalues --   -0.76944  -0.76583  -0.76101  -0.75259  -0.74314
  Beta  occ. eigenvalues --   -0.74110  -0.73167  -0.73148  -0.72297  -0.71731
  Beta  occ. eigenvalues --   -0.71602  -0.71154  -0.70475  -0.69432  -0.68524
  Beta  occ. eigenvalues --   -0.68052  -0.67428  -0.66950  -0.66116  -0.65327
  Beta  occ. eigenvalues --   -0.63480  -0.62409  -0.61886  -0.61471  -0.61021
  Beta  occ. eigenvalues --   -0.60460  -0.60281  -0.59904  -0.59463  -0.59044
  Beta  occ. eigenvalues --   -0.58735  -0.56832  -0.55483  -0.55117  -0.54900
  Beta  occ. eigenvalues --   -0.54238  -0.53041  -0.52325  -0.52092  -0.51851
  Beta  occ. eigenvalues --   -0.51339  -0.51109  -0.50811  -0.50620  -0.50054
  Beta  occ. eigenvalues --   -0.49566  -0.49272  -0.48714  -0.48491  -0.48299
  Beta  occ. eigenvalues --   -0.48242  -0.48185  -0.47934  -0.47657  -0.47238
  Beta  occ. eigenvalues --   -0.46788  -0.46691  -0.46304  -0.46178  -0.45967
  Beta  occ. eigenvalues --   -0.45546  -0.45309  -0.44794  -0.44291  -0.44167
  Beta  occ. eigenvalues --   -0.43773  -0.43167  -0.42911  -0.42655  -0.42620
  Beta  occ. eigenvalues --   -0.42343  -0.42106  -0.41760  -0.41698  -0.41389
  Beta  occ. eigenvalues --   -0.41225  -0.41128  -0.40872  -0.40780  -0.40548
  Beta  occ. eigenvalues --   -0.40448  -0.39999  -0.39864  -0.39750  -0.39560
  Beta  occ. eigenvalues --   -0.39396  -0.39153  -0.39008  -0.38934  -0.38746
  Beta  occ. eigenvalues --   -0.38621  -0.38530  -0.38305  -0.38065  -0.37880
  Beta  occ. eigenvalues --   -0.37544  -0.37449  -0.37297  -0.37171  -0.36919
  Beta  occ. eigenvalues --   -0.36825  -0.36430  -0.36263  -0.36128  -0.36045
  Beta  occ. eigenvalues --   -0.35706  -0.35658  -0.35556  -0.35419  -0.35357
  Beta  occ. eigenvalues --   -0.35205  -0.35150  -0.34866  -0.34758  -0.34631
  Beta  occ. eigenvalues --   -0.34476  -0.34465  -0.34272  -0.34203  -0.33761
  Beta  occ. eigenvalues --   -0.33735  -0.33584  -0.33465  -0.33176  -0.32484
  Beta  occ. eigenvalues --   -0.32421  -0.31991  -0.31806  -0.31253  -0.30993
  Beta  occ. eigenvalues --   -0.30875  -0.30698  -0.30300  -0.29876  -0.29328
  Beta  occ. eigenvalues --   -0.28900  -0.28030  -0.27288  -0.26460  -0.25907
  Beta  occ. eigenvalues --   -0.25401  -0.22486  -0.22110  -0.21612  -0.21261
  Beta  occ. eigenvalues --   -0.20383  -0.20265  -0.19534  -0.17966  -0.12443
  Beta  occ. eigenvalues --   -0.12112
  Beta virt. eigenvalues --    0.07163   0.08897   0.11475   0.12938   0.13254
  Beta virt. eigenvalues --    0.13665   0.13925   0.14716   0.14752   0.15095
  Beta virt. eigenvalues --    0.15229   0.16013   0.16133   0.16226   0.16373

 Mulliken charges and spin densities:
               1          2
     1  C   -0.230283   0.075469
     2  C   -0.617691   0.100193
     3  C   -0.493095   0.084675
     4  C   -0.423644   0.284268
     5  N   -0.436842   0.111675
     6  C    0.298350  -0.032590
     7  C    0.024539  -0.000082
     8  C    0.090239   0.003592
     9  C    0.275582  -0.007883
    10  C   -0.386733  -0.000513
    11  C   -0.304617   0.000400
    12  C   -0.222765  -0.000298
    13  C    0.419815   0.000018
    14  O   -0.396857   0.000010
    15  O   -0.289579  -0.000006
    16  N   -0.190534  -0.038959
    17  C    0.284594   0.057543
    18  C   -0.122255   0.080594
    19  C    0.081887   0.059028
    20  C    0.197974   0.040524
    21  C   -0.354421  -0.005677
    22  C   -0.205650  -0.017919
    23  C   -0.320282   0.035141
    24  N   -0.523225   0.132425
    25  C    0.298956  -0.021667
    26  C    0.010710  -0.049906
    27  C   -0.094544   0.023829
    28  C    0.388999  -0.119817
    29  C   -0.378990   0.004008
    30  C   -0.266767  -0.001629
    31  C   -0.315988   0.001243
    32  N   -0.176436   0.000789
    33  C    0.262088  -0.076048
    34  C   -0.176559   0.189170
    35  C   -0.033688   0.010349
    36  C    0.045597   0.011973
    37  C   -0.401275  -0.010222
    38  C    0.154091   0.018218
    39  O   -0.389172   0.046763
    40  C    0.076098  -0.000169
    41  C    0.315452   0.001627
    42  O   -0.372164   0.001565
    43  O   -0.277135  -0.000180
    44  C   -0.193718   0.000019
    45  C   -0.016301  -0.000001
    46  C   -0.251347  -0.000003
    47  C    0.124246   0.000002
    48  C   -0.399898  -0.000000
    49  C   -0.199979   0.000000
    50  C   -0.245630   0.000000
    51  C   -0.184935   0.000000
    52  C    0.050848   0.000000
    53  C   -0.398943  -0.000000
    54  C   -0.191009  -0.000000
    55  C   -0.223811   0.000000
    56  C   -0.190398  -0.000000
    57  C    0.055535   0.000000
    58  C   -0.399193  -0.000000
    59  C   -0.189914   0.000000
    60  C   -0.227213   0.000000
    61  C   -0.192438  -0.000000
    62  C    0.013084   0.000000
    63  C   -0.368539  -0.000000
    64  C   -0.330534   0.000000
    65  H    0.105985  -0.003922
    66  H    0.163498  -0.002632
    67  H    0.111165  -0.010173
    68  H    0.101999  -0.000745
    69  H    0.054374  -0.000252
    70  H    0.092993   0.001298
    71  H    0.107621   0.000643
    72  H    0.142062  -0.000138
    73  H    0.125695  -0.000333
    74  H    0.129595   0.000149
    75  H    0.121805   0.000300
    76  H    0.121081  -0.000026
    77  H    0.120247   0.005524
    78  H    0.098578  -0.000132
    79  H    0.118228   0.003614
    80  H    0.103294   0.002892
    81  H    0.147504  -0.001235
    82  H    0.100605  -0.000940
    83  H    0.122906  -0.002547
    84  H    0.097583  -0.000053
    85  H    0.124172  -0.001766
    86  H    0.099811   0.001941
    87  H    0.087220   0.000181
    88  H    0.103771   0.000102
    89  H    0.124748  -0.000022
    90  H    0.086814  -0.000269
    91  H    0.105215   0.005668
    92  H    0.142876   0.001241
    93  H    0.114731   0.011497
    94  H    0.083343   0.000444
    95  H    0.116212   0.000016
    96  H    0.119299  -0.000020
    97  H    0.132392   0.000016
    98  H    0.097558  -0.000001
    99  H    0.126619  -0.000000
   100  H    0.103899   0.000000
   101  H    0.165225   0.000000
   102  H    0.119546   0.000000
   103  H    0.125445  -0.000000
   104  H    0.116345   0.000000
   105  H    0.096332   0.000000
   106  H    0.105173  -0.000000
   107  H    0.102353   0.000000
   108  H    0.092337  -0.000000
   109  H    0.091437   0.000000
   110  H    0.056129   0.000000
   111  H    0.124707   0.000000
   112  H    0.116893   0.000000
   113  H    0.102647   0.000000
   114  H    0.092075   0.000000
   115  H    0.089020   0.000000
   116  H    0.096576  -0.000000
   117  H    0.087122  -0.000000
   118  H    0.091247   0.000000
   119  H    0.088781  -0.000000
   120  H    0.055203  -0.000000
   121  H    0.121689   0.000000
   122  H    0.119875   0.000000
   123  H    0.102650  -0.000000
   124  H    0.091661  -0.000000
   125  H    0.090172  -0.000000
   126  H    0.092300  -0.000000
   127  H    0.097032  -0.000000
   128  H    0.092368   0.000000
   129  H    0.088630   0.000000
   130  H    0.056824  -0.000000
   131  H    0.104169  -0.000000
   132  H    0.110490   0.000000
   133  H    0.121585   0.000000
   134  H    0.109368  -0.000000
   135  H    0.110650   0.000000
   136  H    0.103051  -0.000000
   137  H    0.227039  -0.000680
   138  H    0.226668  -0.001183
 Sum of Mulliken charges =  -1.00000   1.00000

 Dipole moment (field-independent basis, Debye):
    X=             30.3026    Y=             -2.2114    Z=              2.1692  Tot=             30.4606
 Quadrupole moment (field-independent basis, Debye-Ang):
   XX=           -601.1968   YY=           -444.4226   ZZ=           -413.0508
   XY=             -0.8755   XZ=            -15.0033   YZ=            -20.6226

 Normal termination of Gaussian 16 at Sun Dec  1 00:42:37 2019.
