 Gaussian 16, Revision A.03,
 Gaussian 16:  ES64L-G16RevA.03 25-Dec-2016

 --------------------------------------------------------
 # wB97XD/Def2TZVP iop(3/107=0100000000,3/108=0100000000)
 --------------------------------------------------------

 -----
 TITLE
 -----
 Symbolic Z-matrix:
 Charge = -1 Multiplicity = 2

                         Standard orientation:
 ---------------------------------------------------------------------
 Center     Atomic      Atomic             Coordinates (Angstroms)
 Number     Number       Type             X           Y           Z
 ---------------------------------------------------------------------
      1          6           0       -5.321644   -1.920984   -0.257732
      2          6           0       -3.458202    1.302186    2.720091
      3          6           0       -6.309238    4.670744    0.673934
      4          6           0       -8.406244    1.380711   -2.156749
      5          7           0       -4.534402   -0.116868    1.086836
      6          6           0       -4.480072   -1.415250    0.702835
      7          6           0       -3.405295   -2.190350    1.442452
      8          6           0       -3.051787   -1.215682    2.586447
      9          6           0       -3.702912    0.074027    2.108151
     10          6           0       -3.599718   -1.656462    3.948625
     11          6           0       -2.212891   -2.523467    0.530257
     12          6           0       -1.203842   -3.443805    1.206298
     13          6           0       -0.004828   -3.761921    0.338364
     14          8           0        0.189000   -3.320471   -0.764053
     15          8           0        0.816411   -4.616531    0.968146
     16          7           0       -4.971757    2.777637    1.469129
     17          6           0       -4.022211    2.533910    2.412747
     18          6           0       -3.708673    3.795900    3.027779
     19          6           0       -4.474451    4.761018    2.419004
     20          6           0       -5.312451    4.105661    1.436540
     21          6           0       -2.685098    3.975644    4.100086
     22          6           0       -4.441783    6.192540    2.714372
     23          6           0       -4.481331    7.180196    1.821731
     24          7           0       -7.121030    2.756822   -0.609722
     25          6           0       -7.154290    4.056077   -0.268332
     26          6           0       -8.189230    4.774481   -1.004071
     27          6           0       -8.786192    3.853274   -1.808985
     28          6           0       -8.103135    2.593098   -1.546891
     29          6           0       -8.489972    6.232484   -0.871511
     30          6           0       -9.884888    4.060883   -2.805972
     31          6           0       -9.367208    4.306399   -4.230330
     32          7           0       -6.723880    0.069292   -1.002841
     33          6           0       -7.763925    0.169712   -1.912207
     34          6           0       -7.996643   -1.123961   -2.465013
     35          6           0       -7.069849   -1.958583   -1.850108
     36          6           0       -6.300388   -1.194141   -0.950191
     37          6           0       -9.032478   -1.479922   -3.477988
     38          6           0       -6.607093   -3.339308   -1.804070
     39          8           0       -6.987863   -4.309639   -2.407981
     40          6           0       -5.416438   -3.352146   -0.759550
     41          6           0       -5.715466   -4.380398    0.316144
     42          8           0       -6.431266   -4.199433    1.265342
     43          8           0       -5.093823   -5.538732    0.055169
     44          6           0       -5.391828   -6.622795    0.938501
     45          6           0        2.054989   -4.958992    0.297860
     46          6           0        3.144017   -4.000515    0.655872
     47          6           0        3.836799   -3.219939   -0.177502
     48          6           0        3.610294   -3.158387   -1.664697
     49          6           0        4.940012   -2.337852    0.354137
     50          6           0        6.335466   -2.708510   -0.170272
     51          6           0        7.432115   -1.817027    0.413150
     52          6           0        8.839871   -2.044810   -0.161004
     53          6           0        9.357070   -3.455562    0.135146
     54          6           0        9.796447   -0.959072    0.358524
     55          6           0       11.184679   -0.945184   -0.283587
     56          6           0       12.041155    0.229348    0.192602
     57          6           0       13.411302    0.367070   -0.491038
     58          6           0       14.320146   -0.831091   -0.201386
     59          6           0       14.067019    1.696542   -0.084080
     60          6           0       15.355359    2.049455   -0.829456
     61          6           0       15.868580    3.448668   -0.485169
     62          6           0       17.229152    3.817794   -1.095381
     63          6           0       17.201288    3.828937   -2.626377
     64          6           0       17.710195    5.167378   -0.555283
     65          1           0       -2.738359    1.306163    3.527381
     66          1           0       -6.469666    5.725922    0.842603
     67          1           0       -9.209715    1.365431   -2.880475
     68          1           0       -3.817817   -3.120301    1.840332
     69          1           0       -1.971273   -1.077554    2.669706
     70          1           0       -3.135006   -2.592707    4.262468
     71          1           0       -3.402356   -0.906353    4.715383
     72          1           0       -4.678284   -1.812364    3.896782
     73          1           0       -2.566871   -2.999891   -0.383642
     74          1           0       -1.725029   -1.598357    0.217343
     75          1           0       -0.823750   -3.011487    2.135376
     76          1           0       -1.670480   -4.390216    1.490935
     77          1           0       -1.694388    3.673641    3.753014
     78          1           0       -2.618777    5.015287    4.414325
     79          1           0       -2.921759    3.371745    4.978881
     80          1           0       -4.347592    6.453607    3.764010
     81          1           0       -4.524524    6.991780    0.756785
     82          1           0       -4.445737    8.214559    2.137377
     83          1           0       -7.638438    6.845500   -1.177552
     84          1           0       -9.338228    6.520260   -1.491159
     85          1           0       -8.728271    6.500498    0.160414
     86          1           0      -10.551924    3.195249   -2.807643
     87          1           0      -10.500874    4.907875   -2.497294
     88          1           0       -8.741406    5.199013   -4.264858
     89          1           0       -8.763437    3.466961   -4.577522
     90          1           0      -10.195497    4.442570   -4.927868
     91          1           0       -8.940435   -0.860654   -4.372434
     92          1           0       -8.935448   -2.522752   -3.770130
     93          1           0      -10.037979   -1.330622   -3.078070
     94          1           0       -4.528781   -3.670859   -1.307563
     95          1           0       -4.814788   -7.466838    0.571639
     96          1           0       -5.102294   -6.378644    1.960207
     97          1           0       -6.456218   -6.852043    0.914167
     98          1           0        2.283505   -5.956962    0.672515
     99          1           0        1.877736   -5.017559   -0.772660
    100          1           0        3.383280   -3.966379    1.714798
    101          1           0        2.611732   -3.483214   -1.946835
    102          1           0        3.740771   -2.135054   -2.022318
    103          1           0        4.338655   -3.776234   -2.196472
    104          1           0        4.725239   -1.299663    0.076041
    105          1           0        4.947325   -2.376004    1.445820
    106          1           0        6.527288   -3.756943    0.069327
    107          1           0        6.352659   -2.629910   -1.260971
    108          1           0        7.154873   -0.771640    0.243389
    109          1           0        7.465525   -1.948006    1.500831
    110          1           0        8.773749   -1.931812   -1.250205
    111          1           0        8.691521   -4.220520   -0.265279
    112          1           0       10.339783   -3.623689   -0.305467
    113          1           0        9.441704   -3.616365    1.213488
    114          1           0        9.329507    0.017783    0.196774
    115          1           0        9.901192   -1.067157    1.444309
    116          1           0       11.697348   -1.884170   -0.068313
    117          1           0       11.077502   -0.894396   -1.372704
    118          1           0       11.480341    1.155468    0.030541
    119          1           0       12.190077    0.152773    1.275913
    120          1           0       13.237205    0.403696   -1.573615
    121          1           0       13.864838   -1.768550   -0.521246
    122          1           0       15.275029   -0.745448   -0.720257
    123          1           0       14.526850   -0.907553    0.869764
    124          1           0       13.342750    2.501502   -0.245611
    125          1           0       14.264706    1.680925    0.993963
    126          1           0       16.136736    1.320888   -0.596214
    127          1           0       15.173090    1.972142   -1.905077
    128          1           0       15.126749    4.193723   -0.795550
    129          1           0       15.943758    3.534060    0.603831
    130          1           0       17.950638    3.055527   -0.779023
    131          1           0       16.462604    4.546211   -2.994557
    132          1           0       18.173336    4.116516   -3.031423
    133          1           0       16.950882    2.850491   -3.037342
    134          1           0       17.773038    5.159128    0.534598
    135          1           0       18.697364    5.421174   -0.946155
    136          1           0       17.023449    5.967872   -0.843020
    137          1           0       -5.414400    2.062197    0.916336
    138          1           0       -6.392286    0.882885   -0.501923
 ---------------------------------------------------------------------

 SCF Done:  E(UwB97XD) =  -2736.16698976     A.U. after   26 cycles

 Alpha virt. eigenvalues --    2.03786   2.04109   2.04168   2.04427   2.04520
 Alpha virt. eigenvalues --    2.04839   2.04872   2.05026   2.05222   2.05574
 Alpha virt. eigenvalues --    2.05723   2.06116   2.06284   2.07065   2.07380

  Beta  occ. eigenvalues --  -19.18635 -19.16777 -19.12251 -19.09614 -19.07182
  Beta  occ. eigenvalues --  -14.31362 -14.31179 -14.25629 -14.23782 -10.29935
  Beta  occ. eigenvalues --  -10.27499 -10.24153 -10.21738 -10.21615 -10.21425
  Beta  occ. eigenvalues --  -10.20887 -10.20363 -10.20300 -10.20183 -10.20136
  Beta  occ. eigenvalues --  -10.19959 -10.19789 -10.19741 -10.19719 -10.19650
  Beta  occ. eigenvalues --  -10.19443 -10.19354 -10.19256 -10.19195 -10.19183
  Beta  occ. eigenvalues --  -10.18803 -10.18228 -10.18002 -10.17952 -10.17085
  Beta  occ. eigenvalues --  -10.16875 -10.16855 -10.16817 -10.16694 -10.16490
  Beta  occ. eigenvalues --  -10.16262 -10.16121 -10.15840 -10.15797 -10.15766
  Beta  occ. eigenvalues --  -10.15348 -10.15291 -10.15044 -10.14979 -10.14675
  Beta  occ. eigenvalues --  -10.14633 -10.14621 -10.14530 -10.14140 -10.13802
  Beta  occ. eigenvalues --  -10.13772 -10.13738 -10.13526 -10.13347 -10.13180
  Beta  occ. eigenvalues --  -10.12720 -10.12548 -10.11979 -10.11927  -1.09557
  Beta  occ. eigenvalues --   -1.07654  -1.00727  -0.98400  -0.98097  -0.93092
  Beta  occ. eigenvalues --   -0.92687  -0.89233  -0.88011  -0.84785  -0.83963
  Beta  occ. eigenvalues --   -0.83089  -0.82110  -0.79226  -0.78975  -0.78328
  Beta  occ. eigenvalues --   -0.77126  -0.76856  -0.75826  -0.75185  -0.75039
  Beta  occ. eigenvalues --   -0.74362  -0.74016  -0.73510  -0.72703  -0.71719
  Beta  occ. eigenvalues --   -0.71544  -0.70680  -0.70600  -0.69817  -0.69271
  Beta  occ. eigenvalues --   -0.69042  -0.68679  -0.67946  -0.66890  -0.66044
  Beta  occ. eigenvalues --   -0.65546  -0.64886  -0.64428  -0.63640  -0.62858
  Beta  occ. eigenvalues --   -0.61058  -0.59965  -0.59431  -0.59039  -0.58632
  Beta  occ. eigenvalues --   -0.58051  -0.57812  -0.57489  -0.57019  -0.56654
  Beta  occ. eigenvalues --   -0.56266  -0.54419  -0.53011  -0.52680  -0.52555
  Beta  occ. eigenvalues --   -0.51780  -0.50601  -0.49895  -0.49654  -0.49403
  Beta  occ. eigenvalues --   -0.48917  -0.48691  -0.48427  -0.48193  -0.47607
  Beta  occ. eigenvalues --   -0.47102  -0.46817  -0.46293  -0.46046  -0.45882
  Beta  occ. eigenvalues --   -0.45854  -0.45682  -0.45527  -0.45292  -0.44876
  Beta  occ. eigenvalues --   -0.44405  -0.44228  -0.43893  -0.43884  -0.43651
  Beta  occ. eigenvalues --   -0.43188  -0.42982  -0.42542  -0.41950  -0.41919
  Beta  occ. eigenvalues --   -0.41401  -0.40898  -0.40684  -0.40342  -0.40299
  Beta  occ. eigenvalues --   -0.40179  -0.39737  -0.39503  -0.39360  -0.39136
  Beta  occ. eigenvalues --   -0.38995  -0.38863  -0.38674  -0.38460  -0.38245
  Beta  occ. eigenvalues --   -0.38116  -0.37888  -0.37571  -0.37466  -0.37340
  Beta  occ. eigenvalues --   -0.37251  -0.36923  -0.36814  -0.36761  -0.36610
  Beta  occ. eigenvalues --   -0.36431  -0.36248  -0.36131  -0.35864  -0.35744
  Beta  occ. eigenvalues --   -0.35337  -0.35221  -0.35099  -0.34912  -0.34681
  Beta  occ. eigenvalues --   -0.34574  -0.34311  -0.34064  -0.33953  -0.33813
  Beta  occ. eigenvalues --   -0.33565  -0.33492  -0.33435  -0.33302  -0.33108
  Beta  occ. eigenvalues --   -0.33080  -0.32993  -0.32781  -0.32640  -0.32459
  Beta  occ. eigenvalues --   -0.32416  -0.32270  -0.32124  -0.32066  -0.31671
  Beta  occ. eigenvalues --   -0.31488  -0.31349  -0.31223  -0.30905  -0.30316
  Beta  occ. eigenvalues --   -0.30275  -0.29917  -0.29685  -0.29168  -0.28880
  Beta  occ. eigenvalues --   -0.28672  -0.28551  -0.28212  -0.27755  -0.27208
  Beta  occ. eigenvalues --   -0.26673  -0.25781  -0.25023  -0.24212  -0.23892
  Beta  occ. eigenvalues --   -0.23088  -0.20466  -0.20030  -0.19489  -0.19212
  Beta  occ. eigenvalues --   -0.18323  -0.18176  -0.17524  -0.16010  -0.11021
  Beta  occ. eigenvalues --   -0.10779
  Beta virt. eigenvalues --    0.06428   0.08142   0.10305   0.12149   0.12681
  Beta virt. eigenvalues --    0.12750   0.13452   0.13613   0.14493   0.14959
  Beta virt. eigenvalues --    0.14973   0.15074   0.15792   0.16066   0.16166

 Mulliken charges and spin densities:
               1          2
     1  C   -0.247297   0.082377
     2  C   -0.607930   0.106576
     3  C   -0.491587   0.092839
     4  C   -0.423620   0.255590
     5  N   -0.480554   0.113072
     6  C    0.338181  -0.034480
     7  C    0.007690   0.000017
     8  C    0.094181   0.003105
     9  C    0.289735  -0.014183
    10  C   -0.370061  -0.000559
    11  C   -0.284028   0.000552
    12  C   -0.215041  -0.000198
    13  C    0.447714   0.000029
    14  O   -0.408071   0.000009
    15  O   -0.305477  -0.000006
    16  N   -0.210046  -0.028968
    17  C    0.286385   0.043635
    18  C   -0.113008   0.076060
    19  C    0.076350   0.055355
    20  C    0.205634   0.030185
    21  C   -0.344937  -0.005377
    22  C   -0.196524  -0.016989
    23  C   -0.319385   0.035897
    24  N   -0.565626   0.118673
    25  C    0.299003  -0.019953
    26  C    0.022333  -0.037459
    27  C   -0.100796   0.016706
    28  C    0.420790  -0.096052
    29  C   -0.369377   0.002800
    30  C   -0.255122  -0.001042
    31  C   -0.298138   0.001171
    32  N   -0.199793  -0.003141
    33  C    0.235167  -0.063968
    34  C   -0.154995   0.191312
    35  C   -0.056681   0.013099
    36  C    0.071117   0.009265
    37  C   -0.409755  -0.010023
    38  C    0.211494   0.022661
    39  O   -0.415132   0.052702
    40  C    0.061084   0.000644
    41  C    0.362046   0.001199
    42  O   -0.393017   0.001994
    43  O   -0.295783  -0.000193
    44  C   -0.175747   0.000014
    45  C    0.009600   0.000000
    46  C   -0.245258  -0.000002
    47  C    0.105191   0.000002
    48  C   -0.379595   0.000000
    49  C   -0.173146  -0.000000
    50  C   -0.241736   0.000000
    51  C   -0.165234   0.000000
    52  C    0.046570   0.000000
    53  C   -0.380796  -0.000000
    54  C   -0.170270  -0.000000
    55  C   -0.221276   0.000000
    56  C   -0.169343  -0.000000
    57  C    0.051022   0.000000
    58  C   -0.381089  -0.000000
    59  C   -0.169452  -0.000000
    60  C   -0.222200   0.000000
    61  C   -0.173967  -0.000000
    62  C    0.012401   0.000000
    63  C   -0.350385  -0.000000
    64  C   -0.311570   0.000000
    65  H    0.109351  -0.004712
    66  H    0.179116  -0.003426
    67  H    0.120724  -0.010743
    68  H    0.104185  -0.000805
    69  H    0.044485  -0.000498
    70  H    0.086976   0.001066
    71  H    0.102565   0.000426
    72  H    0.139094  -0.000137
    73  H    0.124066  -0.000440
    74  H    0.122470   0.000181
    75  H    0.114328   0.000269
    76  H    0.113652  -0.000027
    77  H    0.114844   0.005296
    78  H    0.095361  -0.000092
    79  H    0.113598   0.003534
    80  H    0.099113   0.002894
    81  H    0.146340  -0.001453
    82  H    0.097723  -0.001232
    83  H    0.118260  -0.001986
    84  H    0.093025  -0.000056
    85  H    0.119347  -0.001187
    86  H    0.094232   0.001689
    87  H    0.080884   0.000108
    88  H    0.099260   0.000059
    89  H    0.121023  -0.000151
    90  H    0.080166  -0.000248
    91  H    0.104357   0.008369
    92  H    0.144229   0.000221
    93  H    0.106868   0.010051
    94  H    0.070808   0.000145
    95  H    0.110074   0.000017
    96  H    0.113821  -0.000017
    97  H    0.126009   0.000015
    98  H    0.087616  -0.000001
    99  H    0.120701  -0.000000
   100  H    0.096721   0.000000
   101  H    0.161373   0.000000
   102  H    0.113726   0.000000
   103  H    0.120371   0.000000
   104  H    0.108820   0.000000
   105  H    0.089707   0.000000
   106  H    0.102189  -0.000000
   107  H    0.097608   0.000000
   108  H    0.085377  -0.000000
   109  H    0.085242   0.000000
   110  H    0.047565   0.000000
   111  H    0.119555   0.000000
   112  H    0.111596   0.000000
   113  H    0.097423   0.000000
   114  H    0.085421   0.000000
   115  H    0.082623   0.000000
   116  H    0.096785  -0.000000
   117  H    0.079709  -0.000000
   118  H    0.084570  -0.000000
   119  H    0.082345   0.000000
   120  H    0.046858  -0.000000
   121  H    0.116286   0.000000
   122  H    0.114798   0.000000
   123  H    0.097325  -0.000000
   124  H    0.084660  -0.000000
   125  H    0.083893  -0.000000
   126  H    0.087852  -0.000000
   127  H    0.092300  -0.000000
   128  H    0.086367  -0.000000
   129  H    0.081974   0.000000
   130  H    0.048829  -0.000000
   131  H    0.098826  -0.000000
   132  H    0.104635   0.000000
   133  H    0.116778   0.000000
   134  H    0.103868  -0.000000
   135  H    0.104887   0.000000
   136  H    0.098121  -0.000000
   137  H    0.236100  -0.000954
   138  H    0.237406  -0.001123
 Sum of Mulliken charges =  -1.00000   1.00000

 Dipole moment (field-independent basis, Debye):
    X=             30.5426    Y=             -2.3162    Z=              2.0821  Tot=             30.7010
 Quadrupole moment (field-independent basis, Debye-Ang):
   XX=           -601.3516   YY=           -442.7396   ZZ=           -410.3632
   XY=             -0.8446   XZ=            -14.7691   YZ=            -20.3548

 Normal termination of Gaussian 16 at Tue Nov 19 23:11:58 2019.
