 Gaussian 16, Revision A.03,
 Gaussian 16:  ES64L-G16RevA.03 25-Dec-2016

 --------------------------------------------------------
 # wB97XD/Def2TZVP iop(3/107=0200000000,3/108=0200000000)
 --------------------------------------------------------

 -----
 TITLE
 -----
 Symbolic Z-matrix:
 Charge = -1 Multiplicity = 2

                         Standard orientation:
 ---------------------------------------------------------------------
 Center     Atomic      Atomic             Coordinates (Angstroms)
 Number     Number       Type             X           Y           Z
 ---------------------------------------------------------------------
      1          6           0       -5.140433   -1.928454   -0.262036
      2          6           0       -3.548714    1.583789    2.527660
      3          6           0       -6.834777    4.526861    0.528907
      4          6           0       -8.694056    0.929812   -2.072918
      5          7           0       -4.517337   -0.000459    0.989346
      6          6           0       -4.345051   -1.316139    0.649169
      7          6           0       -3.213572   -1.961640    1.420092
      8          6           0       -2.856447   -0.868622    2.443375
      9          6           0       -3.683186    0.307144    1.957089
     10          6           0       -3.194206   -1.249864    3.883296
     11          6           0       -2.039592   -2.374412    0.530241
     12          6           0       -1.010224   -3.185719    1.298558
     13          6           0        0.188209   -3.567564    0.466861
     14          8           0        0.424894   -3.147542   -0.633861
     15          8           0        0.961153   -4.441174    1.120840
     16          7           0       -5.272633    2.816151    1.303907
     17          6           0       -4.261702    2.713632    2.205026
     18          6           0       -4.063332    4.034723    2.765014
     19          6           0       -4.950150    4.877951    2.172287
     20          6           0       -5.762819    4.097436    1.249270
     21          6           0       -3.017686    4.355773    3.776106
     22          6           0       -5.063794    6.315682    2.416138
     23          6           0       -5.253802    7.247246    1.488941
     24          7           0       -7.487152    2.492374   -0.647901
     25          6           0       -7.653981    3.776603   -0.353823
     26          6           0       -8.799106    4.348708   -1.048278
     27          6           0       -9.332864    3.340744   -1.781857
     28          6           0       -8.500419    2.176023   -1.525851
     29          6           0       -9.245806    5.768735   -0.944450
     30          6           0      -10.497135    3.387732   -2.717893
     31          6           0      -10.075842    3.623175   -4.170170
     32          7           0       -6.791275   -0.136064   -1.011428
     33          6           0       -7.900676   -0.200260   -1.836794
     34          6           0       -8.034314   -1.525460   -2.301602
     35          6           0       -6.974542   -2.227276   -1.722058
     36          6           0       -6.235745   -1.340136   -0.933844
     37          6           0       -9.103602   -2.063937   -3.186826
     38          6           0       -6.374534   -3.547679   -1.630572
     39          8           0       -6.706927   -4.592365   -2.126823
     40          6           0       -5.102291   -3.374107   -0.723801
     41          6           0       -5.124134   -4.383507    0.400289
     42          8           0       -5.873670   -4.353151    1.336872
     43          8           0       -4.191773   -5.326565    0.226134
     44          6           0       -4.162290   -6.354351    1.212282
     45          6           0        2.201659   -4.816453    0.486877
     46          6           0        3.291793   -3.856523    0.828867
     47          6           0        3.965806   -3.081644   -0.019322
     48          6           0        3.715333   -3.034125   -1.500674
     49          6           0        5.074573   -2.195753    0.481571
     50          6           0        6.447107   -2.560627   -0.088322
     51          6           0        7.555546   -1.672994    0.464449
     52          6           0        8.936093   -1.886246   -0.162648
     53          6           0        9.455354   -3.301811    0.077953
     54          6           0        9.910001   -0.824412    0.356009
     55          6           0       11.278372   -0.811230   -0.315828
     56          6           0       12.148671    0.347081    0.158480
     57          6           0       13.494365    0.491047   -0.557881
     58          6           0       14.393404   -0.721894   -0.329964
     59          6           0       14.175779    1.792480   -0.126318
     60          6           0       15.456521    2.138497   -0.877485
     61          6           0       15.984725    3.522860   -0.518858
     62          6           0       17.347999    3.873814   -1.118544
     63          6           0       17.327064    3.870715   -2.644898
     64          6           0       17.828843    5.223432   -0.593185
     65          1           0       -2.794657    1.699003    3.295074
     66          1           0       -7.103315    5.564848    0.666865
     67          1           0       -9.537094    0.798590   -2.739687
     68          1           0       -3.590548   -2.849749    1.936985
     69          1           0       -1.794605   -0.611280    2.385934
     70          1           0       -2.603634   -2.112947    4.196702
     71          1           0       -2.988883   -0.429686    4.572868
     72          1           0       -4.250694   -1.510755    3.971205
     73          1           0       -2.395536   -2.969784   -0.310529
     74          1           0       -1.573778   -1.485535    0.099318
     75          1           0       -0.632826   -2.635957    2.166491
     76          1           0       -1.455085   -4.101434    1.696157
     77          1           0       -2.019125    4.153394    3.382045
     78          1           0       -3.053270    5.404895    4.064258
     79          1           0       -3.142811    3.750070    4.676472
     80          1           0       -4.950631    6.628917    3.449646
     81          1           0       -5.330520    7.001763    0.436955
     82          1           0       -5.314417    8.293555    1.758804
     83          1           0       -8.472669    6.455939   -1.297946
     84          1           0      -10.139927    5.947095   -1.541278
     85          1           0       -9.475455    6.041971    0.088364
     86          1           0      -11.065609    2.456687   -2.649521
     87          1           0      -11.182593    4.178962   -2.407026
     88          1           0       -9.547148    4.572887   -4.267305
     89          1           0       -9.403252    2.835097   -4.513222
     90          1           0      -10.943714    3.644781   -4.831587
     91          1           0       -9.557418   -1.282755   -3.796676
     92          1           0       -8.700810   -2.832208   -3.846110
     93          1           0       -9.893593   -2.530196   -2.593234
     94          1           0       -4.241562   -3.580451   -1.362179
     95          1           0       -3.354861   -7.020710    0.921156
     96          1           0       -3.973158   -5.932637    2.200082
     97          1           0       -5.110741   -6.890210    1.232544
     98          1           0        2.416325   -5.803098    0.897412
     99          1           0        2.042962   -4.907861   -0.585121
    100          1           0        3.544839   -3.812804    1.884636
    101          1           0        2.696946   -3.319158   -1.756076
    102          1           0        3.883365   -2.022339   -1.875824
    103          1           0        4.408639   -3.690077   -2.033879
    104          1           0        4.846448   -1.158051    0.211104
    105          1           0        5.117014   -2.237253    1.572969
    106          1           0        6.648208   -3.610686    0.139510
    107          1           0        6.429438   -2.475750   -1.179475
    108          1           0        7.266894   -0.626127    0.320509
    109          1           0        7.631375   -1.820541    1.548724
    110          1           0        8.834040   -1.741642   -1.245992
    111          1           0        8.773670   -4.054127   -0.320021
    112          1           0       10.423509   -3.461498   -0.397369
    113          1           0        9.572642   -3.488200    1.149861
    114          1           0        9.448857    0.160767    0.227282
    115          1           0       10.039273   -0.959367    1.436990
    116          1           0       11.789841   -1.756805   -0.125227
    117          1           0       11.147122   -0.743279   -1.402191
    118          1           0       11.587513    1.279231    0.031919
    119          1           0       12.329181    0.246287    1.235853
    120          1           0       13.290882    0.564863   -1.634097
    121          1           0       13.918452   -1.644632   -0.664631
    122          1           0       15.336071   -0.630789   -0.870413
    123          1           0       14.625466   -0.830225    0.733985
    124          1           0       13.464357    2.615355   -0.256084
    125          1           0       14.388177    1.742888    0.948721
    126          1           0       16.232963    1.398446   -0.661192
    127          1           0       15.263026    2.077909   -1.952990
    128          1           0       15.255544    4.281374   -0.829520
    129          1           0       16.054570    3.599143    0.571836
    130          1           0       18.061783    3.109389   -0.788846
    131          1           0       16.584862    4.582238   -3.019240
    132          1           0       18.299238    4.161173   -3.048345
    133          1           0       17.082200    2.887568   -3.048796
    134          1           0       17.877321    5.230649    0.497762
    135          1           0       18.821644    5.467412   -0.976722
    136          1           0       17.147352    6.021309   -0.902234
    137          1           0       -5.667060    2.034136    0.807210
    138          1           0       -6.509984    0.731236   -0.575029
 ---------------------------------------------------------------------

 SCF Done:  E(UwB97XD) =  -2735.79959304     A.U. after   28 cycles

 Alpha virt. eigenvalues --    2.07485   2.07628   2.07839   2.07959   2.08048
 Alpha virt. eigenvalues --    2.08317   2.08454   2.08480   2.08879   2.09235
 Alpha virt. eigenvalues --    2.09393   2.09626   2.09947   2.10816   2.11052

  Beta  occ. eigenvalues --  -19.23367 -19.21769 -19.16968 -19.14500 -19.11854
  Beta  occ. eigenvalues --  -14.35725 -14.35690 -14.29963 -14.28131 -10.34718
  Beta  occ. eigenvalues --  -10.32427 -10.28686 -10.26533 -10.26359 -10.25844
  Beta  occ. eigenvalues --  -10.25311 -10.24794 -10.24782 -10.24659 -10.24622
  Beta  occ. eigenvalues --  -10.24438 -10.24285 -10.24244 -10.24198 -10.24132
  Beta  occ. eigenvalues --  -10.23920 -10.23860 -10.23724 -10.23658 -10.23654
  Beta  occ. eigenvalues --  -10.23303 -10.22663 -10.22489 -10.22346 -10.21660
  Beta  occ. eigenvalues --  -10.21606 -10.21427 -10.21222 -10.21172 -10.20823
  Beta  occ. eigenvalues --  -10.20771 -10.20728 -10.20347 -10.20302 -10.20271
  Beta  occ. eigenvalues --  -10.19803 -10.19678 -10.19477 -10.19425 -10.19326
  Beta  occ. eigenvalues --  -10.19146 -10.19138 -10.19095 -10.18607 -10.18252
  Beta  occ. eigenvalues --  -10.18199 -10.18141 -10.17952 -10.17908 -10.17607
  Beta  occ. eigenvalues --  -10.17165 -10.16864 -10.16082 -10.15920  -1.15008
  Beta  occ. eigenvalues --   -1.13266  -1.05886  -1.03741  -1.03211  -0.98338
  Beta  occ. eigenvalues --   -0.97643  -0.94412  -0.93214  -0.90143  -0.89293
  Beta  occ. eigenvalues --   -0.88378  -0.87378  -0.84608  -0.84229  -0.83623
  Beta  occ. eigenvalues --   -0.82306  -0.82027  -0.81012  -0.80314  -0.80091
  Beta  occ. eigenvalues --   -0.79440  -0.79121  -0.78620  -0.77772  -0.76858
  Beta  occ. eigenvalues --   -0.76603  -0.75652  -0.75595  -0.74749  -0.74186
  Beta  occ. eigenvalues --   -0.74112  -0.73604  -0.72908  -0.71921  -0.70899
  Beta  occ. eigenvalues --   -0.70508  -0.69899  -0.69389  -0.68529  -0.67702
  Beta  occ. eigenvalues --   -0.65844  -0.64743  -0.64227  -0.63765  -0.63343
  Beta  occ. eigenvalues --   -0.62789  -0.62606  -0.62236  -0.61761  -0.61355
  Beta  occ. eigenvalues --   -0.61050  -0.59130  -0.57838  -0.57458  -0.57150
  Beta  occ. eigenvalues --   -0.56501  -0.55329  -0.54565  -0.54366  -0.54079
  Beta  occ. eigenvalues --   -0.53598  -0.53317  -0.53014  -0.52877  -0.52344
  Beta  occ. eigenvalues --   -0.51842  -0.51583  -0.50963  -0.50769  -0.50516
  Beta  occ. eigenvalues --   -0.50455  -0.50413  -0.50138  -0.49833  -0.49414
  Beta  occ. eigenvalues --   -0.49107  -0.48911  -0.48585  -0.48283  -0.48074
  Beta  occ. eigenvalues --   -0.47695  -0.47437  -0.46880  -0.46417  -0.46224
  Beta  occ. eigenvalues --   -0.45925  -0.45223  -0.44941  -0.44746  -0.44709
  Beta  occ. eigenvalues --   -0.44328  -0.44267  -0.43908  -0.43756  -0.43447
  Beta  occ. eigenvalues --   -0.43326  -0.43146  -0.42922  -0.42816  -0.42649
  Beta  occ. eigenvalues --   -0.42535  -0.41981  -0.41922  -0.41831  -0.41545
  Beta  occ. eigenvalues --   -0.41371  -0.41177  -0.41039  -0.40876  -0.40694
  Beta  occ. eigenvalues --   -0.40626  -0.40540  -0.40270  -0.39977  -0.39837
  Beta  occ. eigenvalues --   -0.39584  -0.39421  -0.39267  -0.39178  -0.38886
  Beta  occ. eigenvalues --   -0.38817  -0.38459  -0.38201  -0.38164  -0.37977
  Beta  occ. eigenvalues --   -0.37668  -0.37545  -0.37468  -0.37350  -0.37266
  Beta  occ. eigenvalues --   -0.37137  -0.36998  -0.36763  -0.36634  -0.36549
  Beta  occ. eigenvalues --   -0.36453  -0.36318  -0.36191  -0.36079  -0.35778
  Beta  occ. eigenvalues --   -0.35585  -0.35554  -0.35432  -0.35088  -0.34517
  Beta  occ. eigenvalues --   -0.34237  -0.33831  -0.33664  -0.33079  -0.32832
  Beta  occ. eigenvalues --   -0.32764  -0.32587  -0.32053  -0.31776  -0.31247
  Beta  occ. eigenvalues --   -0.30921  -0.29996  -0.29175  -0.28347  -0.27657
  Beta  occ. eigenvalues --   -0.27482  -0.24088  -0.23906  -0.23364  -0.22936
  Beta  occ. eigenvalues --   -0.22239  -0.21795  -0.21188  -0.19540  -0.13688
  Beta  occ. eigenvalues --   -0.13247
  Beta virt. eigenvalues --    0.07859   0.09614   0.12347   0.13043   0.13791
  Beta virt. eigenvalues --    0.14102   0.14787   0.15009   0.15141   0.15305
  Beta virt. eigenvalues --    0.15686   0.16144   0.16298   0.16467   0.16825

 Mulliken charges and spin densities:
               1          2
     1  C   -0.236668   0.068887
     2  C   -0.619948   0.097968
     3  C   -0.497041   0.068324
     4  C   -0.417861   0.317234
     5  N   -0.410299   0.109732
     6  C    0.290822  -0.030934
     7  C    0.029358  -0.000509
     8  C    0.092516   0.004437
     9  C    0.259167  -0.001339
    10  C   -0.394060  -0.000218
    11  C   -0.311275   0.000197
    12  C   -0.228702  -0.000452
    13  C    0.400543   0.000013
    14  O   -0.389523   0.000009
    15  O   -0.281591  -0.000004
    16  N   -0.180536  -0.053139
    17  C    0.279410   0.069929
    18  C   -0.126287   0.089467
    19  C    0.085827   0.060189
    20  C    0.191116   0.057735
    21  C   -0.361184  -0.006369
    22  C   -0.212583  -0.018945
    23  C   -0.318359   0.034202
    24  N   -0.495859   0.144962
    25  C    0.292214  -0.014522
    26  C    0.009786  -0.063571
    27  C   -0.093060   0.036799
    28  C    0.360667  -0.143886
    29  C   -0.383416   0.005563
    30  C   -0.275237  -0.002800
    31  C   -0.324528   0.001606
    32  N   -0.163451   0.006092
    33  C    0.293948  -0.090036
    34  C   -0.191793   0.182119
    35  C   -0.018447   0.006179
    36  C    0.020283   0.011970
    37  C   -0.377009  -0.010202
    38  C    0.116297   0.012857
    39  O   -0.372699   0.038214
    40  C    0.097379  -0.000782
    41  C    0.279048   0.001991
    42  O   -0.354494   0.001214
    43  O   -0.267751  -0.000136
    44  C   -0.208188   0.000022
    45  C   -0.032958  -0.000001
    46  C   -0.252240  -0.000003
    47  C    0.132594   0.000002
    48  C   -0.409802  -0.000000
    49  C   -0.214492   0.000000
    50  C   -0.246715   0.000000
    51  C   -0.199105   0.000000
    52  C    0.054761   0.000000
    53  C   -0.409172  -0.000000
    54  C   -0.204822  -0.000000
    55  C   -0.224518   0.000000
    56  C   -0.204377   0.000000
    57  C    0.059035  -0.000000
    58  C   -0.409064   0.000000
    59  C   -0.203168   0.000000
    60  C   -0.229375  -0.000000
    61  C   -0.203644   0.000000
    62  C    0.015212  -0.000000
    63  C   -0.378296   0.000000
    64  C   -0.341475  -0.000000
    65  H    0.103724  -0.003458
    66  H    0.155339  -0.001912
    67  H    0.100598  -0.010035
    68  H    0.095929  -0.000692
    69  H    0.063071  -0.000047
    70  H    0.096717   0.001594
    71  H    0.110943   0.000792
    72  H    0.140819  -0.000135
    73  H    0.126273  -0.000192
    74  H    0.134755   0.000117
    75  H    0.126887   0.000328
    76  H    0.125916  -0.000016
    77  H    0.123140   0.005896
    78  H    0.100577  -0.000139
    79  H    0.120563   0.003910
    80  H    0.105924   0.002869
    81  H    0.147973  -0.001077
    82  H    0.101949  -0.000669
    83  H    0.125079  -0.003167
    84  H    0.100208  -0.000076
    85  H    0.126808  -0.002468
    86  H    0.103030   0.002234
    87  H    0.091498   0.000309
    88  H    0.105935   0.000144
    89  H    0.126342  -0.000068
    90  H    0.090285  -0.000192
    91  H    0.101694   0.002294
    92  H    0.134645   0.003727
    93  H    0.119329   0.010699
    94  H    0.091205   0.000938
    95  H    0.121250   0.000010
    96  H    0.125300  -0.000024
    97  H    0.138473   0.000009
    98  H    0.103555  -0.000001
    99  H    0.131442  -0.000000
   100  H    0.108252   0.000000
   101  H    0.166966   0.000000
   102  H    0.121784   0.000000
   103  H    0.128038  -0.000000
   104  H    0.119735  -0.000000
   105  H    0.100601   0.000000
   106  H    0.107597  -0.000000
   107  H    0.105045   0.000000
   108  H    0.096424  -0.000000
   109  H    0.095478   0.000000
   110  H    0.061831   0.000000
   111  H    0.127539   0.000000
   112  H    0.119524   0.000000
   113  H    0.105527   0.000000
   114  H    0.095995   0.000000
   115  H    0.093054   0.000000
   116  H    0.096897  -0.000000
   117  H    0.091688  -0.000000
   118  H    0.095254   0.000000
   119  H    0.092873  -0.000000
   120  H    0.060791   0.000000
   121  H    0.124357  -0.000000
   122  H    0.122425  -0.000000
   123  H    0.105496  -0.000000
   124  H    0.095877   0.000000
   125  H    0.094103   0.000000
   126  H    0.095050   0.000000
   127  H    0.099846   0.000000
   128  H    0.095899   0.000000
   129  H    0.092633  -0.000000
   130  H    0.061536   0.000000
   131  H    0.106792   0.000000
   132  H    0.113570  -0.000000
   133  H    0.123614  -0.000000
   134  H    0.112014   0.000000
   135  H    0.113535   0.000000
   136  H    0.105457   0.000000
   137  H    0.222474  -0.000311
   138  H    0.222343  -0.001256
 Sum of Mulliken charges =  -1.00000   1.00000

 Dipole moment (field-independent basis, Debye):
    X=             31.1579    Y=             -1.3754    Z=              2.0942  Tot=             31.2585
 Quadrupole moment (field-independent basis, Debye-Ang):
   XX=           -611.8536   YY=           -450.1703   ZZ=           -411.0891
   XY=             -4.8615   XZ=            -12.4452   YZ=            -18.6727

 Normal termination of Gaussian 16 at Mon Nov 25 15:05:20 2019.
