 Gaussian 16, Revision A.03,
 Gaussian 16:  ES64L-G16RevA.03 25-Dec-2016

 ------------------------------------------------------------
 # wB97XD/Def2TZVP iop(3/107=0000000000,3/108=0000000000) opt
 ------------------------------------------------------------

 -----
 TITLE
 -----
 Symbolic Z-matrix:
 Charge =  0 Multiplicity = 1

 SCF Done:  E(RwB97XD) =  -2735.73863427     A.U. after   19 cycles

 The electronic state is 1-A.
 Alpha  occ. eigenvalues --  -19.29966 -19.29384 -19.23407 -19.23276 -19.22825
 Alpha  occ. eigenvalues --  -14.47395 -14.47145 -14.42749 -14.40849 -10.41328
 Alpha  occ. eigenvalues --  -10.41278 -10.37427 -10.34589 -10.34119 -10.34028
 Alpha  occ. eigenvalues --  -10.33594 -10.33348 -10.32718 -10.32422 -10.32343
 Alpha  occ. eigenvalues --  -10.31496 -10.31219 -10.31018 -10.30942 -10.30890
 Alpha  occ. eigenvalues --  -10.30821 -10.30713 -10.30583 -10.30157 -10.29969
 Alpha  occ. eigenvalues --  -10.29889 -10.29726 -10.29685 -10.29630 -10.29479
 Alpha  occ. eigenvalues --  -10.29369 -10.28877 -10.28817 -10.28724 -10.28372
 Alpha  occ. eigenvalues --  -10.28354 -10.28334 -10.28273 -10.28263 -10.28201
 Alpha  occ. eigenvalues --  -10.28187 -10.28181 -10.28097 -10.27879 -10.27814
 Alpha  occ. eigenvalues --  -10.27596 -10.27524 -10.27446 -10.27287 -10.27259
 Alpha  occ. eigenvalues --  -10.27201 -10.27170 -10.27165 -10.27117 -10.27107
 Alpha  occ. eigenvalues --  -10.26738 -10.26564 -10.26560 -10.26557  -1.21621
 Alpha  occ. eigenvalues --   -1.21158  -1.14014  -1.12248  -1.12189  -1.10040
 Alpha  occ. eigenvalues --   -1.09819  -1.06082  -1.04986  -0.95716  -0.93814
 Alpha  occ. eigenvalues --   -0.93573  -0.92850  -0.92569  -0.92309  -0.91804
 Alpha  occ. eigenvalues --   -0.91110  -0.90621  -0.90616  -0.90127  -0.88690
 Alpha  occ. eigenvalues --   -0.87898  -0.87227  -0.86616  -0.85925  -0.85405
 Alpha  occ. eigenvalues --   -0.84450  -0.84086  -0.83408  -0.82332  -0.81974
 Alpha  occ. eigenvalues --   -0.80840  -0.80122  -0.79464  -0.78373  -0.78173
 Alpha  occ. eigenvalues --   -0.77897  -0.77575  -0.76978  -0.76343  -0.75923
 Alpha  occ. eigenvalues --   -0.74542  -0.73393  -0.72641  -0.72188  -0.71977
 Alpha  occ. eigenvalues --   -0.71455  -0.69071  -0.68410  -0.67900  -0.67196
 Alpha  occ. eigenvalues --   -0.66871  -0.65993  -0.65625  -0.65606  -0.65154
 Alpha  occ. eigenvalues --   -0.64948  -0.64603  -0.64384  -0.64038  -0.62479
 Alpha  occ. eigenvalues --   -0.62271  -0.61691  -0.61163  -0.60742  -0.59901
 Alpha  occ. eigenvalues --   -0.58914  -0.58841  -0.58503  -0.58027  -0.57449
 Alpha  occ. eigenvalues --   -0.57313  -0.57164  -0.56862  -0.56704  -0.56248
 Alpha  occ. eigenvalues --   -0.56067  -0.55456  -0.55301  -0.55003  -0.54681
 Alpha  occ. eigenvalues --   -0.54620  -0.54250  -0.54108  -0.53900  -0.53726
 Alpha  occ. eigenvalues --   -0.53385  -0.53192  -0.52878  -0.52625  -0.52468
 Alpha  occ. eigenvalues --   -0.52380  -0.52016  -0.51902  -0.51596  -0.51434
 Alpha  occ. eigenvalues --   -0.51125  -0.51001  -0.50797  -0.50653  -0.50307
 Alpha  occ. eigenvalues --   -0.50225  -0.50073  -0.49581  -0.49373  -0.49225
 Alpha  occ. eigenvalues --   -0.49009  -0.48812  -0.48541  -0.48338  -0.48085
 Alpha  occ. eigenvalues --   -0.47986  -0.47825  -0.47656  -0.47524  -0.47305
 Alpha  occ. eigenvalues --   -0.47056  -0.46756  -0.46632  -0.46400  -0.46079
 Alpha  occ. eigenvalues --   -0.45918  -0.45856  -0.45638  -0.45494  -0.45407
 Alpha  occ. eigenvalues --   -0.45285  -0.45094  -0.45003  -0.44606  -0.44371
 Alpha  occ. eigenvalues --   -0.44178  -0.44078  -0.43979  -0.43904  -0.43784
 Alpha  occ. eigenvalues --   -0.43557  -0.43025  -0.42742  -0.42450  -0.42362
 Alpha  occ. eigenvalues --   -0.42188  -0.42013  -0.41904  -0.41371  -0.40994
 Alpha  occ. eigenvalues --   -0.40671  -0.40654  -0.40248  -0.39977  -0.39933
 Alpha  occ. eigenvalues --   -0.39685  -0.39580  -0.39494  -0.39462  -0.39220
 Alpha  occ. eigenvalues --   -0.39014  -0.38198  -0.36656  -0.36629  -0.36524
 Alpha  occ. eigenvalues --   -0.35974  -0.35528  -0.35194  -0.34386  -0.33500
 Alpha  occ. eigenvalues --   -0.32878  -0.32743  -0.32642  -0.30518  -0.25897
 Alpha  occ. eigenvalues --   -0.24593
 Alpha virt. eigenvalues --   -0.04921  -0.01827   0.03104   0.05161   0.07235
 Alpha virt. eigenvalues --    0.07724   0.08058   0.08426   0.09494   0.09638
 Alpha virt. eigenvalues --    0.10055   0.10226   0.10510   0.10799   0.11477

 Mulliken charges:
               1
     1  C   -0.227657
     2  C   -0.547696
     3  C   -0.461750
     4  C   -0.322301
     5  N   -0.392558
     6  C    0.315059
     7  C    0.013483
     8  C    0.075854
     9  C    0.256428
    10  C   -0.397976
    11  C   -0.308850
    12  C   -0.235076
    13  C    0.395861
    14  O   -0.386575
    15  O   -0.280668
    16  N   -0.187606
    17  C    0.286682
    18  C   -0.107342
    19  C    0.088194
    20  C    0.220459
    21  C   -0.353164
    22  C   -0.206182
    23  C   -0.307269
    24  N   -0.480424
    25  C    0.302197
    26  C    0.007446
    27  C   -0.085995
    28  C    0.335611
    29  C   -0.381308
    30  C   -0.271921
    31  C   -0.330130
    32  N   -0.168048
    33  C    0.277377
    34  C   -0.155051
    35  C   -0.009982
    36  C    0.039872
    37  C   -0.365685
    38  C    0.140148
    39  O   -0.325140
    40  C    0.081372
    41  C    0.272706
    42  O   -0.342755
    43  O   -0.262468
    44  C   -0.208261
    45  C   -0.033782
    46  C   -0.258703
    47  C    0.127895
    48  C   -0.408531
    49  C   -0.208310
    50  C   -0.248302
    51  C   -0.199798
    52  C    0.052906
    53  C   -0.410010
    54  C   -0.203059
    55  C   -0.227115
    56  C   -0.204018
    57  C    0.057503
    58  C   -0.409577
    59  C   -0.201642
    60  C   -0.231171
    61  C   -0.203834
    62  C    0.013895
    63  C   -0.378350
    64  C   -0.341898
    65  H    0.141384
    66  H    0.184067
    67  H    0.134014
    68  H    0.117773
    69  H    0.090091
    70  H    0.123362
    71  H    0.118494
    72  H    0.144419
    73  H    0.130805
    74  H    0.137199
    75  H    0.130612
    76  H    0.132711
    77  H    0.146510
    78  H    0.123273
    79  H    0.140801
    80  H    0.135958
    81  H    0.160178
    82  H    0.134759
    83  H    0.135291
    84  H    0.119417
    85  H    0.137431
    86  H    0.110122
    87  H    0.110721
    88  H    0.116135
    89  H    0.120610
    90  H    0.116210
    91  H    0.116078
    92  H    0.155487
    93  H    0.147552
    94  H    0.116861
    95  H    0.136315
    96  H    0.128136
    97  H    0.147533
    98  H    0.113410
    99  H    0.134806
   100  H    0.112168
   101  H    0.159601
   102  H    0.123006
   103  H    0.137409
   104  H    0.115358
   105  H    0.101494
   106  H    0.111236
   107  H    0.106775
   108  H    0.094343
   109  H    0.097146
   110  H    0.062582
   111  H    0.125042
   112  H    0.124821
   113  H    0.107194
   114  H    0.093614
   115  H    0.094423
   116  H    0.099036
   117  H    0.092403
   118  H    0.093387
   119  H    0.093938
   120  H    0.060920
   121  H    0.122959
   122  H    0.125698
   123  H    0.106704
   124  H    0.093901
   125  H    0.095020
   126  H    0.096996
   127  H    0.100017
   128  H    0.094412
   129  H    0.093014
   130  H    0.063381
   131  H    0.105675
   132  H    0.116270
   133  H    0.122999
   134  H    0.112378
   135  H    0.116114
   136  H    0.104635
   137  H    0.226318
   138  H    0.226072
 Sum of Mulliken charges =  -0.00000

 Dipole moment (field-independent basis, Debye):
    X=              3.5333    Y=              4.4385    Z=              2.9119  Tot=              6.3768
 Quadrupole moment (field-independent basis, Debye-Ang):
   XX=           -388.5239   YY=           -368.4854   ZZ=           -378.3479
   XY=            -46.0462   XZ=              5.8807   YZ=             -4.1931

 Optimization completed.
    -- Stationary point found.

                         Standard orientation:
 ---------------------------------------------------------------------
 Center     Atomic      Atomic             Coordinates (Angstroms)
 Number     Number       Type             X           Y           Z
 ---------------------------------------------------------------------
      1          6           0       -5.140433   -1.928454   -0.262036
      2          6           0       -3.548714    1.583789    2.527660
      3          6           0       -6.834777    4.526861    0.528907
      4          6           0       -8.694056    0.929812   -2.072918
      5          7           0       -4.517337   -0.000459    0.989346
      6          6           0       -4.345051   -1.316139    0.649169
      7          6           0       -3.213572   -1.961640    1.420092
      8          6           0       -2.856447   -0.868622    2.443375
      9          6           0       -3.683186    0.307144    1.957089
     10          6           0       -3.194206   -1.249864    3.883296
     11          6           0       -2.039592   -2.374412    0.530241
     12          6           0       -1.010224   -3.185719    1.298558
     13          6           0        0.188209   -3.567564    0.466861
     14          8           0        0.424894   -3.147542   -0.633861
     15          8           0        0.961153   -4.441174    1.120840
     16          7           0       -5.272633    2.816151    1.303907
     17          6           0       -4.261702    2.713632    2.205026
     18          6           0       -4.063332    4.034723    2.765014
     19          6           0       -4.950150    4.877951    2.172287
     20          6           0       -5.762819    4.097436    1.249270
     21          6           0       -3.017686    4.355773    3.776106
     22          6           0       -5.063794    6.315682    2.416138
     23          6           0       -5.253802    7.247246    1.488941
     24          7           0       -7.487152    2.492374   -0.647901
     25          6           0       -7.653981    3.776603   -0.353823
     26          6           0       -8.799106    4.348708   -1.048278
     27          6           0       -9.332864    3.340744   -1.781857
     28          6           0       -8.500419    2.176023   -1.525851
     29          6           0       -9.245806    5.768735   -0.944450
     30          6           0      -10.497135    3.387732   -2.717893
     31          6           0      -10.075842    3.623175   -4.170170
     32          7           0       -6.791275   -0.136064   -1.011428
     33          6           0       -7.900676   -0.200260   -1.836794
     34          6           0       -8.034314   -1.525460   -2.301602
     35          6           0       -6.974542   -2.227276   -1.722058
     36          6           0       -6.235745   -1.340136   -0.933844
     37          6           0       -9.103602   -2.063937   -3.186826
     38          6           0       -6.374534   -3.547679   -1.630572
     39          8           0       -6.706927   -4.592365   -2.126823
     40          6           0       -5.102291   -3.374107   -0.723801
     41          6           0       -5.124134   -4.383507    0.400289
     42          8           0       -5.873670   -4.353151    1.336872
     43          8           0       -4.191773   -5.326565    0.226134
     44          6           0       -4.162290   -6.354351    1.212282
     45          6           0        2.201659   -4.816453    0.486877
     46          6           0        3.291793   -3.856523    0.828867
     47          6           0        3.965806   -3.081644   -0.019322
     48          6           0        3.715333   -3.034125   -1.500674
     49          6           0        5.074573   -2.195753    0.481571
     50          6           0        6.447107   -2.560627   -0.088322
     51          6           0        7.555546   -1.672994    0.464449
     52          6           0        8.936093   -1.886246   -0.162648
     53          6           0        9.455354   -3.301811    0.077953
     54          6           0        9.910001   -0.824412    0.356009
     55          6           0       11.278372   -0.811230   -0.315828
     56          6           0       12.148671    0.347081    0.158480
     57          6           0       13.494365    0.491047   -0.557881
     58          6           0       14.393404   -0.721894   -0.329964
     59          6           0       14.175779    1.792480   -0.126318
     60          6           0       15.456521    2.138497   -0.877485
     61          6           0       15.984725    3.522860   -0.518858
     62          6           0       17.347999    3.873814   -1.118544
     63          6           0       17.327064    3.870715   -2.644898
     64          6           0       17.828843    5.223432   -0.593185
     65          1           0       -2.794657    1.699003    3.295074
     66          1           0       -7.103315    5.564848    0.666865
     67          1           0       -9.537094    0.798590   -2.739687
     68          1           0       -3.590548   -2.849749    1.936985
     69          1           0       -1.794605   -0.611280    2.385934
     70          1           0       -2.603634   -2.112947    4.196702
     71          1           0       -2.988883   -0.429686    4.572868
     72          1           0       -4.250694   -1.510755    3.971205
     73          1           0       -2.395536   -2.969784   -0.310529
     74          1           0       -1.573778   -1.485535    0.099318
     75          1           0       -0.632826   -2.635957    2.166491
     76          1           0       -1.455085   -4.101434    1.696157
     77          1           0       -2.019125    4.153394    3.382045
     78          1           0       -3.053270    5.404895    4.064258
     79          1           0       -3.142811    3.750070    4.676472
     80          1           0       -4.950631    6.628917    3.449646
     81          1           0       -5.330520    7.001763    0.436955
     82          1           0       -5.314417    8.293555    1.758804
     83          1           0       -8.472669    6.455939   -1.297946
     84          1           0      -10.139927    5.947095   -1.541278
     85          1           0       -9.475455    6.041971    0.088364
     86          1           0      -11.065609    2.456687   -2.649521
     87          1           0      -11.182593    4.178962   -2.407026
     88          1           0       -9.547148    4.572887   -4.267305
     89          1           0       -9.403252    2.835097   -4.513222
     90          1           0      -10.943714    3.644781   -4.831587
     91          1           0       -9.557418   -1.282755   -3.796676
     92          1           0       -8.700810   -2.832208   -3.846110
     93          1           0       -9.893593   -2.530196   -2.593234
     94          1           0       -4.241562   -3.580451   -1.362179
     95          1           0       -3.354861   -7.020710    0.921156
     96          1           0       -3.973158   -5.932637    2.200082
     97          1           0       -5.110741   -6.890210    1.232544
     98          1           0        2.416325   -5.803098    0.897412
     99          1           0        2.042962   -4.907861   -0.585121
    100          1           0        3.544839   -3.812804    1.884636
    101          1           0        2.696946   -3.319158   -1.756076
    102          1           0        3.883365   -2.022339   -1.875824
    103          1           0        4.408639   -3.690077   -2.033879
    104          1           0        4.846448   -1.158051    0.211104
    105          1           0        5.117014   -2.237253    1.572969
    106          1           0        6.648208   -3.610686    0.139510
    107          1           0        6.429438   -2.475750   -1.179475
    108          1           0        7.266894   -0.626127    0.320509
    109          1           0        7.631375   -1.820541    1.548724
    110          1           0        8.834040   -1.741642   -1.245992
    111          1           0        8.773670   -4.054127   -0.320021
    112          1           0       10.423509   -3.461498   -0.397369
    113          1           0        9.572642   -3.488200    1.149861
    114          1           0        9.448857    0.160767    0.227282
    115          1           0       10.039273   -0.959367    1.436990
    116          1           0       11.789841   -1.756805   -0.125227
    117          1           0       11.147122   -0.743279   -1.402191
    118          1           0       11.587513    1.279231    0.031919
    119          1           0       12.329181    0.246287    1.235853
    120          1           0       13.290882    0.564863   -1.634097
    121          1           0       13.918452   -1.644632   -0.664631
    122          1           0       15.336071   -0.630789   -0.870413
    123          1           0       14.625466   -0.830225    0.733985
    124          1           0       13.464357    2.615355   -0.256084
    125          1           0       14.388177    1.742888    0.948721
    126          1           0       16.232963    1.398446   -0.661192
    127          1           0       15.263026    2.077909   -1.952990
    128          1           0       15.255544    4.281374   -0.829520
    129          1           0       16.054570    3.599143    0.571836
    130          1           0       18.061783    3.109389   -0.788846
    131          1           0       16.584862    4.582238   -3.019240
    132          1           0       18.299238    4.161173   -3.048345
    133          1           0       17.082200    2.887568   -3.048796
    134          1           0       17.877321    5.230649    0.497762
    135          1           0       18.821644    5.467412   -0.976722
    136          1           0       17.147352    6.021309   -0.902234
    137          1           0       -5.667060    2.034136    0.807210
    138          1           0       -6.509984    0.731236   -0.575029
 ---------------------------------------------------------------------

 Normal termination of Gaussian 16 at Tue Nov 26 01:35:34 2019.
