 Gaussian 16, Revision A.03,
 Gaussian 16:  ES64L-G16RevA.03 25-Dec-2016

 ------------------------------------------------------------
 # wB97XD/Def2TZVP iop(3/107=0100000000,3/108=0100000000) opt
 ------------------------------------------------------------

 -----
 TITLE
 -----
 Symbolic Z-matrix:
 Charge =  0 Multiplicity = 1

 SCF Done:  E(RwB97XD) =  -2736.10933011     A.U. after   17 cycles
 SCF Done:  E(RwB97XD) =  -2736.11097043     A.U. after   15 cycles
 SCF Done:  E(RwB97XD) =  -2736.11090561     A.U. after   14 cycles
 SCF Done:  E(RwB97XD) =  -2736.11176007     A.U. after   14 cycles
 SCF Done:  E(RwB97XD) =  -2736.11196462     A.U. after   14 cycles
 SCF Done:  E(RwB97XD) =  -2736.11200024     A.U. after   13 cycles
 SCF Done:  E(RwB97XD) =  -2736.11202695     A.U. after   12 cycles
 SCF Done:  E(RwB97XD) =  -2736.11203895     A.U. after   12 cycles
 SCF Done:  E(RwB97XD) =  -2736.11204276     A.U. after   12 cycles
 SCF Done:  E(RwB97XD) =  -2736.11204694     A.U. after   12 cycles
 SCF Done:  E(RwB97XD) =  -2736.11213963     A.U. after   10 cycles
 SCF Done:  E(RwB97XD) =  -2736.11214208     A.U. after   10 cycles
 SCF Done:  E(RwB97XD) =  -2736.11214313     A.U. after   10 cycles
 SCF Done:  E(RwB97XD) =  -2736.11214347     A.U. after    9 cycles
 SCF Done:  E(RwB97XD) =  -2736.11214362     A.U. after    7 cycles
 SCF Done:  E(RwB97XD) =  -2736.11214370     A.U. after    7 cycles
 SCF Done:  E(RwB97XD) =  -2736.11214370     A.U. after    7 cycles
 SCF Done:  E(RwB97XD) =  -2736.11214373     A.U. after    6 cycles
 SCF Done:  E(RwB97XD) =  -2736.11214373     A.U. after    5 cycles
 SCF Done:  E(RwB97XD) =  -2736.11214373     A.U. after    6 cycles
 Optimization completed.
    -- Stationary point found.

                         Standard orientation:
 ---------------------------------------------------------------------
 Center     Atomic      Atomic             Coordinates (Angstroms)
 Number     Number       Type             X           Y           Z
 ---------------------------------------------------------------------
      1          6           0       -5.321644   -1.920984   -0.257732
      2          6           0       -3.458202    1.302186    2.720091
      3          6           0       -6.309238    4.670744    0.673934
      4          6           0       -8.406244    1.380711   -2.156749
      5          7           0       -4.534402   -0.116868    1.086836
      6          6           0       -4.480072   -1.415250    0.702835
      7          6           0       -3.405295   -2.190350    1.442452
      8          6           0       -3.051787   -1.215682    2.586447
      9          6           0       -3.702912    0.074027    2.108151
     10          6           0       -3.599718   -1.656462    3.948625
     11          6           0       -2.212891   -2.523467    0.530257
     12          6           0       -1.203842   -3.443805    1.206298
     13          6           0       -0.004828   -3.761921    0.338364
     14          8           0        0.189000   -3.320471   -0.764053
     15          8           0        0.816411   -4.616531    0.968146
     16          7           0       -4.971757    2.777637    1.469129
     17          6           0       -4.022211    2.533910    2.412747
     18          6           0       -3.708673    3.795900    3.027779
     19          6           0       -4.474451    4.761018    2.419004
     20          6           0       -5.312451    4.105661    1.436540
     21          6           0       -2.685098    3.975644    4.100086
     22          6           0       -4.441783    6.192540    2.714372
     23          6           0       -4.481331    7.180196    1.821731
     24          7           0       -7.121030    2.756822   -0.609722
     25          6           0       -7.154290    4.056077   -0.268332
     26          6           0       -8.189230    4.774481   -1.004071
     27          6           0       -8.786192    3.853274   -1.808985
     28          6           0       -8.103135    2.593098   -1.546891
     29          6           0       -8.489972    6.232484   -0.871511
     30          6           0       -9.884888    4.060883   -2.805972
     31          6           0       -9.367208    4.306399   -4.230330
     32          7           0       -6.723880    0.069292   -1.002841
     33          6           0       -7.763925    0.169712   -1.912207
     34          6           0       -7.996643   -1.123961   -2.465013
     35          6           0       -7.069849   -1.958583   -1.850108
     36          6           0       -6.300388   -1.194141   -0.950191
     37          6           0       -9.032478   -1.479922   -3.477988
     38          6           0       -6.607093   -3.339308   -1.804070
     39          8           0       -6.987863   -4.309639   -2.407981
     40          6           0       -5.416438   -3.352146   -0.759550
     41          6           0       -5.715466   -4.380398    0.316144
     42          8           0       -6.431266   -4.199433    1.265342
     43          8           0       -5.093823   -5.538732    0.055169
     44          6           0       -5.391828   -6.622795    0.938501
     45          6           0        2.054989   -4.958992    0.297860
     46          6           0        3.144017   -4.000515    0.655872
     47          6           0        3.836799   -3.219939   -0.177502
     48          6           0        3.610294   -3.158387   -1.664697
     49          6           0        4.940012   -2.337852    0.354137
     50          6           0        6.335466   -2.708510   -0.170272
     51          6           0        7.432115   -1.817027    0.413150
     52          6           0        8.839871   -2.044810   -0.161004
     53          6           0        9.357070   -3.455562    0.135146
     54          6           0        9.796447   -0.959072    0.358524
     55          6           0       11.184679   -0.945184   -0.283587
     56          6           0       12.041155    0.229348    0.192602
     57          6           0       13.411302    0.367070   -0.491038
     58          6           0       14.320146   -0.831091   -0.201386
     59          6           0       14.067019    1.696542   -0.084080
     60          6           0       15.355359    2.049455   -0.829456
     61          6           0       15.868580    3.448668   -0.485169
     62          6           0       17.229152    3.817794   -1.095381
     63          6           0       17.201288    3.828937   -2.626377
     64          6           0       17.710195    5.167378   -0.555283
     65          1           0       -2.738359    1.306163    3.527381
     66          1           0       -6.469666    5.725922    0.842603
     67          1           0       -9.209715    1.365431   -2.880475
     68          1           0       -3.817817   -3.120301    1.840332
     69          1           0       -1.971273   -1.077554    2.669706
     70          1           0       -3.135006   -2.592707    4.262468
     71          1           0       -3.402356   -0.906353    4.715383
     72          1           0       -4.678284   -1.812364    3.896782
     73          1           0       -2.566871   -2.999891   -0.383642
     74          1           0       -1.725029   -1.598357    0.217343
     75          1           0       -0.823750   -3.011487    2.135376
     76          1           0       -1.670480   -4.390216    1.490935
     77          1           0       -1.694388    3.673641    3.753014
     78          1           0       -2.618777    5.015287    4.414325
     79          1           0       -2.921759    3.371745    4.978881
     80          1           0       -4.347592    6.453607    3.764010
     81          1           0       -4.524524    6.991780    0.756785
     82          1           0       -4.445737    8.214559    2.137377
     83          1           0       -7.638438    6.845500   -1.177552
     84          1           0       -9.338228    6.520260   -1.491159
     85          1           0       -8.728271    6.500498    0.160414
     86          1           0      -10.551924    3.195249   -2.807643
     87          1           0      -10.500874    4.907875   -2.497294
     88          1           0       -8.741406    5.199013   -4.264858
     89          1           0       -8.763437    3.466961   -4.577522
     90          1           0      -10.195497    4.442570   -4.927868
     91          1           0       -8.940435   -0.860654   -4.372434
     92          1           0       -8.935448   -2.522752   -3.770130
     93          1           0      -10.037979   -1.330622   -3.078070
     94          1           0       -4.528781   -3.670859   -1.307563
     95          1           0       -4.814788   -7.466838    0.571639
     96          1           0       -5.102294   -6.378644    1.960207
     97          1           0       -6.456218   -6.852043    0.914167
     98          1           0        2.283505   -5.956962    0.672515
     99          1           0        1.877736   -5.017559   -0.772660
    100          1           0        3.383280   -3.966379    1.714798
    101          1           0        2.611732   -3.483214   -1.946835
    102          1           0        3.740771   -2.135054   -2.022318
    103          1           0        4.338655   -3.776234   -2.196472
    104          1           0        4.725239   -1.299663    0.076041
    105          1           0        4.947325   -2.376004    1.445820
    106          1           0        6.527288   -3.756943    0.069327
    107          1           0        6.352659   -2.629910   -1.260971
    108          1           0        7.154873   -0.771640    0.243389
    109          1           0        7.465525   -1.948006    1.500831
    110          1           0        8.773749   -1.931812   -1.250205
    111          1           0        8.691521   -4.220520   -0.265279
    112          1           0       10.339783   -3.623689   -0.305467
    113          1           0        9.441704   -3.616365    1.213488
    114          1           0        9.329507    0.017783    0.196774
    115          1           0        9.901192   -1.067157    1.444309
    116          1           0       11.697348   -1.884170   -0.068313
    117          1           0       11.077502   -0.894396   -1.372704
    118          1           0       11.480341    1.155468    0.030541
    119          1           0       12.190077    0.152773    1.275913
    120          1           0       13.237205    0.403696   -1.573615
    121          1           0       13.864838   -1.768550   -0.521246
    122          1           0       15.275029   -0.745448   -0.720257
    123          1           0       14.526850   -0.907553    0.869764
    124          1           0       13.342750    2.501502   -0.245611
    125          1           0       14.264706    1.680925    0.993963
    126          1           0       16.136736    1.320888   -0.596214
    127          1           0       15.173090    1.972142   -1.905077
    128          1           0       15.126749    4.193723   -0.795550
    129          1           0       15.943758    3.534060    0.603831
    130          1           0       17.950638    3.055527   -0.779023
    131          1           0       16.462604    4.546211   -2.994557
    132          1           0       18.173336    4.116516   -3.031423
    133          1           0       16.950882    2.850491   -3.037342
    134          1           0       17.773038    5.159128    0.534598
    135          1           0       18.697364    5.421174   -0.946155
    136          1           0       17.023449    5.967872   -0.843020
    137          1           0       -5.414400    2.062197    0.916336
    138          1           0       -6.392286    0.882885   -0.501923
 ---------------------------------------------------------------------

 The electronic state is 1-A.
 Alpha  occ. eigenvalues --  -19.25216 -19.24704 -19.18767 -19.18756 -19.18684
 Alpha  occ. eigenvalues --  -14.42889 -14.42723 -14.38254 -14.36081 -10.36687
 Alpha  occ. eigenvalues --  -10.36560 -10.33260 -10.29543 -10.29472 -10.29164
 Alpha  occ. eigenvalues --  -10.29009 -10.28458 -10.28366 -10.28364 -10.28130
 Alpha  occ. eigenvalues --  -10.26891 -10.26720 -10.26648 -10.26433 -10.26241
 Alpha  occ. eigenvalues --  -10.26047 -10.25986 -10.25589 -10.25574 -10.25492
 Alpha  occ. eigenvalues --  -10.25476 -10.25430 -10.25272 -10.24969 -10.24845
 Alpha  occ. eigenvalues --  -10.24629 -10.24502 -10.24380 -10.24267 -10.24110
 Alpha  occ. eigenvalues --  -10.24045 -10.23947 -10.23785 -10.23783 -10.23783
 Alpha  occ. eigenvalues --  -10.23697 -10.23679 -10.23664 -10.23609 -10.23449
 Alpha  occ. eigenvalues --  -10.23204 -10.23088 -10.22889 -10.22884 -10.22840
 Alpha  occ. eigenvalues --  -10.22807 -10.22715 -10.22707 -10.22663 -10.22653
 Alpha  occ. eigenvalues --  -10.22266 -10.22085 -10.22080 -10.22075  -1.16266
 Alpha  occ. eigenvalues --   -1.15767  -1.09457  -1.07210  -1.07089  -1.04867
 Alpha  occ. eigenvalues --   -1.04602  -1.00858  -0.99556  -0.90662  -0.88312
 Alpha  occ. eigenvalues --   -0.88262  -0.87534  -0.87228  -0.87045  -0.86529
 Alpha  occ. eigenvalues --   -0.86147  -0.85346  -0.85292  -0.84942  -0.83491
 Alpha  occ. eigenvalues --   -0.82670  -0.82010  -0.81549  -0.80752  -0.80277
 Alpha  occ. eigenvalues --   -0.79379  -0.78988  -0.78360  -0.77354  -0.76849
 Alpha  occ. eigenvalues --   -0.75965  -0.75082  -0.74559  -0.73507  -0.73306
 Alpha  occ. eigenvalues --   -0.73002  -0.72667  -0.72050  -0.71546  -0.70998
 Alpha  occ. eigenvalues --   -0.69709  -0.68442  -0.67862  -0.67322  -0.67181
 Alpha  occ. eigenvalues --   -0.66644  -0.64350  -0.63661  -0.63125  -0.62505
 Alpha  occ. eigenvalues --   -0.62223  -0.61206  -0.60879  -0.60836  -0.60468
 Alpha  occ. eigenvalues --   -0.60306  -0.60108  -0.59723  -0.59282  -0.57819
 Alpha  occ. eigenvalues --   -0.57662  -0.56974  -0.56533  -0.56042  -0.55406
 Alpha  occ. eigenvalues --   -0.54260  -0.53953  -0.53809  -0.53392  -0.52769
 Alpha  occ. eigenvalues --   -0.52623  -0.52450  -0.52226  -0.52102  -0.51714
 Alpha  occ. eigenvalues --   -0.51423  -0.50797  -0.50738  -0.50413  -0.50170
 Alpha  occ. eigenvalues --   -0.50071  -0.49705  -0.49642  -0.49294  -0.49244
 Alpha  occ. eigenvalues --   -0.48847  -0.48800  -0.48356  -0.48200  -0.48014
 Alpha  occ. eigenvalues --   -0.47841  -0.47705  -0.47529  -0.47328  -0.47037
 Alpha  occ. eigenvalues --   -0.46743  -0.46639  -0.46438  -0.46374  -0.46091
 Alpha  occ. eigenvalues --   -0.45827  -0.45694  -0.45306  -0.45267  -0.44845
 Alpha  occ. eigenvalues --   -0.44661  -0.44559  -0.44251  -0.44157  -0.43895
 Alpha  occ. eigenvalues --   -0.43760  -0.43563  -0.43431  -0.43132  -0.43026
 Alpha  occ. eigenvalues --   -0.42859  -0.42635  -0.42524  -0.42304  -0.41979
 Alpha  occ. eigenvalues --   -0.41744  -0.41693  -0.41613  -0.41480  -0.41342
 Alpha  occ. eigenvalues --   -0.41169  -0.41006  -0.40827  -0.40541  -0.40374
 Alpha  occ. eigenvalues --   -0.40190  -0.40093  -0.39944  -0.39754  -0.39683
 Alpha  occ. eigenvalues --   -0.39484  -0.38970  -0.38728  -0.38403  -0.38302
 Alpha  occ. eigenvalues --   -0.38179  -0.38104  -0.37944  -0.37469  -0.37001
 Alpha  occ. eigenvalues --   -0.36761  -0.36417  -0.36341  -0.36076  -0.36045
 Alpha  occ. eigenvalues --   -0.35790  -0.35664  -0.35541  -0.35132  -0.35080
 Alpha  occ. eigenvalues --   -0.35063  -0.34282  -0.32825  -0.32583  -0.32358
 Alpha  occ. eigenvalues --   -0.32075  -0.31501  -0.31084  -0.30679  -0.30350
 Alpha  occ. eigenvalues --   -0.29238  -0.28943  -0.28730  -0.26763  -0.23234
 Alpha  occ. eigenvalues --   -0.22233
 Alpha virt. eigenvalues --   -0.05935  -0.03131   0.00928   0.03203   0.05168
 Alpha virt. eigenvalues --    0.05357   0.05963   0.06160   0.07517   0.09331
 Alpha virt. eigenvalues --    0.09699   0.09925   0.10177   0.10477   0.11075

 Mulliken charges:
               1
     1  C   -0.239500
     2  C   -0.533164
     3  C   -0.455115
     4  C   -0.330278
     5  N   -0.461913
     6  C    0.364558
     7  C   -0.008260
     8  C    0.077134
     9  C    0.282948
    10  C   -0.370873
    11  C   -0.278067
    12  C   -0.221100
    13  C    0.442389
    14  O   -0.405645
    15  O   -0.304224
    16  N   -0.210335
    17  C    0.289536
    18  C   -0.095638
    19  C    0.080305
    20  C    0.232339
    21  C   -0.335712
    22  C   -0.196705
    23  C   -0.301778
    24  N   -0.552455
    25  C    0.304415
    26  C    0.021681
    27  C   -0.097730
    28  C    0.402492
    29  C   -0.366740
    30  C   -0.248789
    31  C   -0.303811
    32  N   -0.199199
    33  C    0.219377
    34  C   -0.106701
    35  C   -0.051454
    36  C    0.089694
    37  C   -0.395624
    38  C    0.227607
    39  O   -0.356909
    40  C    0.052519
    41  C    0.352490
    42  O   -0.379176
    43  O   -0.290252
    44  C   -0.176302
    45  C    0.009641
    46  C   -0.253038
    47  C    0.100737
    48  C   -0.377262
    49  C   -0.167182
    50  C   -0.242192
    51  C   -0.166457
    52  C    0.044738
    53  C   -0.381418
    54  C   -0.168637
    55  C   -0.223451
    56  C   -0.169310
    57  C    0.049532
    58  C   -0.381442
    59  C   -0.168097
    60  C   -0.223656
    61  C   -0.174530
    62  C    0.011191
    63  C   -0.350463
    64  C   -0.312019
    65  H    0.140624
    66  H    0.203099
    67  H    0.148329
    68  H    0.125248
    69  H    0.070570
    70  H    0.112565
    71  H    0.110584
    72  H    0.140375
    73  H    0.126131
    74  H    0.123640
    75  H    0.118641
    76  H    0.120201
    77  H    0.136267
    78  H    0.116540
    79  H    0.132468
    80  H    0.127725
    81  H    0.156339
    82  H    0.129068
    83  H    0.129328
    84  H    0.111713
    85  H    0.129951
    86  H    0.099484
    87  H    0.099780
    88  H    0.109458
    89  H    0.113873
    90  H    0.105926
    91  H    0.127709
    92  H    0.161277
    93  H    0.132990
    94  H    0.096200
    95  H    0.126478
    96  H    0.119502
    97  H    0.134030
    98  H    0.097968
    99  H    0.123854
   100  H    0.100470
   101  H    0.153972
   102  H    0.114455
   103  H    0.129911
   104  H    0.104567
   105  H    0.090071
   106  H    0.105677
   107  H    0.099345
   108  H    0.083297
   109  H    0.086640
   110  H    0.048486
   111  H    0.117062
   112  H    0.117001
   113  H    0.098931
   114  H    0.082952
   115  H    0.083851
   116  H    0.098926
   117  H    0.080445
   118  H    0.082669
   119  H    0.083326
   120  H    0.047060
   121  H    0.114857
   122  H    0.118122
   123  H    0.098482
   124  H    0.082608
   125  H    0.084777
   126  H    0.089786
   127  H    0.092470
   128  H    0.084847
   129  H    0.082409
   130  H    0.050686
   131  H    0.097692
   132  H    0.107388
   133  H    0.116111
   134  H    0.104268
   135  H    0.107513
   136  H    0.097243
   137  H    0.239136
   138  H    0.241839
 Sum of Mulliken charges =  -0.00000

 Dipole moment (field-independent basis, Debye):
    X=              3.5833    Y=              2.9985    Z=              2.6755  Tot=              5.3842
 Quadrupole moment (field-independent basis, Debye-Ang):
   XX=           -389.1079   YY=           -360.2224   ZZ=           -374.1770
   XY=            -35.5502   XZ=              5.8026   YZ=             -7.0319

 Normal termination of Gaussian 16 at Tue Nov 19 17:56:55 2019.
