 Gaussian 16, Revision A.03,
 Gaussian 16:  ES64L-G16RevA.03 25-Dec-2016

 --------------------------------------------------------
 # wB97XD/Def2TZVP iop(3/107=0150000000,3/108=0150000000)
 --------------------------------------------------------

 -----
 TITLE
 -----
 Symbolic Z-matrix:
 Charge =  1 Multiplicity = 2

                         Standard orientation:
 ---------------------------------------------------------------------
 Center     Atomic      Atomic             Coordinates (Angstroms)
 Number     Number       Type             X           Y           Z
 ---------------------------------------------------------------------
      1          6           0       -5.231143   -1.901434   -0.322419
      2          6           0       -3.469334    1.299589    2.731947
      3          6           0       -6.342655    4.649219    0.709276
      4          6           0       -8.364115    1.374667   -2.186838
      5          7           0       -4.496528   -0.106379    1.060370
      6          6           0       -4.421400   -1.404118    0.658535
      7          6           0       -3.367833   -2.182248    1.420299
      8          6           0       -3.015029   -1.204116    2.557950
      9          6           0       -3.687109    0.076572    2.092284
     10          6           0       -3.535165   -1.653211    3.924814
     11          6           0       -2.169356   -2.552991    0.538342
     12          6           0       -1.193276   -3.472467    1.256647
     13          6           0        0.019414   -3.821403    0.426296
     14          8           0        0.248519   -3.394830   -0.674723
     15          8           0        0.809699   -4.681090    1.082636
     16          7           0       -4.992628    2.761942    1.485320
     17          6           0       -4.050883    2.518756    2.434460
     18          6           0       -3.762063    3.779483    3.072313
     19          6           0       -4.531834    4.738209    2.472963
     20          6           0       -5.352964    4.085825    1.470083
     21          6           0       -2.752638    3.953187    4.156106
     22          6           0       -4.521905    6.165924    2.787501
     23          6           0       -4.570481    7.160349    1.905286
     24          7           0       -7.111341    2.743840   -0.609361
     25          6           0       -7.169778    4.031735   -0.253217
     26          6           0       -8.207473    4.745402   -0.985469
     27          6           0       -8.785453    3.828381   -1.805544
     28          6           0       -8.086322    2.576537   -1.558711
     29          6           0       -8.526295    6.196373   -0.835192
     30          6           0       -9.876513    4.033681   -2.808296
     31          6           0       -9.343410    4.290658   -4.221985
     32          7           0       -6.656567    0.077573   -1.054934
     33          6           0       -7.701446    0.168980   -1.958969
     34          6           0       -7.919977   -1.117686   -2.518087
     35          6           0       -6.978579   -1.945857   -1.913202
     36          6           0       -6.218351   -1.178548   -1.014659
     37          6           0       -8.964588   -1.488229   -3.514279
     38          6           0       -6.502231   -3.320435   -1.873966
     39          8           0       -6.882575   -4.294641   -2.470528
     40          6           0       -5.297531   -3.322146   -0.852922
     41          6           0       -5.539028   -4.379296    0.203346
     42          8           0       -6.263447   -4.252646    1.153881
     43          8           0       -4.851135   -5.494596   -0.067598
     44          6           0       -5.082578   -6.595255    0.811005
     45          6           0        2.058252   -5.039180    0.446775
     46          6           0        3.137458   -4.068363    0.796034
     47          6           0        3.814020   -3.286892   -0.047292
     48          6           0        3.577309   -3.242431   -1.531984
     49          6           0        4.908271   -2.387478    0.466062
     50          6           0        6.295655   -2.735681   -0.084656
     51          6           0        7.385539   -1.825881    0.474930
     52          6           0        8.780243   -2.027059   -0.130626
     53          6           0        9.322448   -3.429883    0.144021
     54          6           0        9.730031   -0.935391    0.378199
     55          6           0       11.105242   -0.905251   -0.284000
     56          6           0       11.950516    0.279395    0.177363
     57          6           0       13.302637    0.436057   -0.529606
     58          6           0       14.227360   -0.751951   -0.263154
     59          6           0       13.951243    1.765523   -0.124783
     60          6           0       15.228510    2.126570   -0.879184
     61          6           0       15.727094    3.530189   -0.544648
     62          6           0       17.082129    3.904289   -1.155388
     63          6           0       17.055893    3.886599   -2.683618
     64          6           0       17.539868    5.269182   -0.642643
     65          1           0       -2.757677    1.302708    3.547267
     66          1           0       -6.520776    5.700271    0.889443
     67          1           0       -9.166415    1.357012   -2.913478
     68          1           0       -3.805633   -3.098894    1.825834
     69          1           0       -1.934672   -1.048751    2.624486
     70          1           0       -3.053371   -2.584482    4.229025
     71          1           0       -3.337875   -0.902169    4.691334
     72          1           0       -4.612682   -1.824214    3.886339
     73          1           0       -2.512550   -3.046132   -0.371505
     74          1           0       -1.658966   -1.643100    0.214459
     75          1           0       -0.830185   -3.027171    2.187296
     76          1           0       -1.681474   -4.406834    1.547054
     77          1           0       -1.754234    3.675305    3.810057
     78          1           0       -2.707762    4.986999    4.494223
     79          1           0       -2.986769    3.323934    5.017944
     80          1           0       -4.437649    6.415193    3.841159
     81          1           0       -4.607110    6.979807    0.838179
     82          1           0       -4.549546    8.192183    2.231199
     83          1           0       -7.674567    6.822721   -1.113524
     84          1           0       -9.365024    6.485220   -1.468162
     85          1           0       -8.788230    6.444647    0.196330
     86          1           0      -10.536686    3.162388   -2.821586
     87          1           0      -10.501031    4.874967   -2.499841
     88          1           0       -8.720982    5.186772   -4.241201
     89          1           0       -8.729755    3.455938   -4.565134
     90          1           0      -10.162474    4.427203   -4.930542
     91          1           0       -9.064536   -0.728742   -4.291275
     92          1           0       -8.720520   -2.439157   -3.984276
     93          1           0       -9.938670   -1.597073   -3.030467
     94          1           0       -4.411283   -3.600087   -1.426206
     95          1           0       -4.456664   -7.403162    0.442096
     96          1           0       -4.808178   -6.335518    1.833680
     97          1           0       -6.132319   -6.886123    0.787703
     98          1           0        2.282365   -6.025714    0.853040
     99          1           0        1.901534   -5.127131   -0.625734
    100          1           0        3.380522   -4.021472    1.854029
    101          1           0        2.569439   -3.552866   -1.799234
    102          1           0        3.723259   -2.226022   -1.904183
    103          1           0        4.291733   -3.879893   -2.060118
    104          1           0        4.671391   -1.352804    0.190864
    105          1           0        4.936318   -2.425833    1.558038
    106          1           0        6.510020   -3.780919    0.153000
    107          1           0        6.289980   -2.658807   -1.176419
    108          1           0        7.084772   -0.784872    0.314313
    109          1           0        7.447020   -1.959251    1.561876
    110          1           0        8.689393   -1.905866   -1.217844
    111          1           0        8.659060   -4.201952   -0.247332
    112          1           0       10.298816   -3.581153   -0.317324
    113          1           0        9.430821   -3.594511    1.220337
    114          1           0        9.250117    0.037787    0.228383
    115          1           0        9.852816   -1.048274    1.462386
    116          1           0       11.633898   -1.837426   -0.074614
    117          1           0       10.980995   -0.857639   -1.372195
    118          1           0       11.373171    1.198096    0.027240
    119          1           0       12.121410    0.203028    1.258231
    120          1           0       13.108571    0.478296   -1.609265
    121          1           0       13.776264   -1.693107   -0.579418
    122          1           0       15.172784   -0.653092   -0.797617
    123          1           0       14.452361   -0.829825    0.804893
    124          1           0       13.220396    2.567261   -0.276902
    125          1           0       14.159169    1.746598    0.952046
    126          1           0       16.019742    1.407165   -0.647337
    127          1           0       15.039921    2.042144   -1.953931
    128          1           0       14.979288    4.266665   -0.863759
    129          1           0       15.799109    3.625321    0.544414
    130          1           0       17.812864    3.157457   -0.822232
    131          1           0       16.302168    4.582994   -3.063176
    132          1           0       18.022369    4.187337   -3.093377
    133          1           0       16.824805    2.895902   -3.077283
    134          1           0       17.595463    5.285634    0.447925
    135          1           0       18.525476    5.529608   -1.034070
    136          1           0       16.841525    6.051901   -0.952740
    137          1           0       -5.425163    2.047178    0.922835
    138          1           0       -6.331106    0.891287   -0.549769
 ---------------------------------------------------------------------

 SCF Done:  E(UwB97XD) =  -2735.60014849     A.U. after   29 cycles

 Alpha virt. eigenvalues --    1.88782   1.88870   1.89658   1.89690   1.90525
 Alpha virt. eigenvalues --    1.90761   1.90939   1.91133   1.91397   1.91415
 Alpha virt. eigenvalues --    1.92180   1.92275   1.92461   1.92854   1.93081

  Beta  occ. eigenvalues --  -19.36118 -19.33384 -19.31969 -19.30132 -19.27897
  Beta  occ. eigenvalues --  -14.57296 -14.56736 -14.52157 -14.50509 -10.48197
  Beta  occ. eigenvalues --  -10.46387 -10.45801 -10.44221 -10.44148 -10.44067
  Beta  occ. eigenvalues --  -10.43729 -10.43281 -10.43276 -10.42083 -10.42039
  Beta  occ. eigenvalues --  -10.41723 -10.39948 -10.39670 -10.39541 -10.39527
  Beta  occ. eigenvalues --  -10.39301 -10.38714 -10.38652 -10.38637 -10.38200
  Beta  occ. eigenvalues --  -10.38098 -10.37957 -10.37701 -10.37563 -10.37476
  Beta  occ. eigenvalues --  -10.37323 -10.36575 -10.36478 -10.36317 -10.36095
  Beta  occ. eigenvalues --  -10.36006 -10.35697 -10.35683 -10.35324 -10.33948
  Beta  occ. eigenvalues --  -10.32603 -10.30678 -10.30505 -10.30028 -10.29951
  Beta  occ. eigenvalues --  -10.29789 -10.29284 -10.28758 -10.28515 -10.28382
  Beta  occ. eigenvalues --  -10.28259 -10.28033 -10.27996 -10.27650 -10.27551
  Beta  occ. eigenvalues --  -10.27408 -10.27103 -10.26695 -10.26661  -1.27635
  Beta  occ. eigenvalues --   -1.24923  -1.22541  -1.19981  -1.18955  -1.18627
  Beta  occ. eigenvalues --   -1.16246  -1.15214  -1.14541  -1.04928  -1.01597
  Beta  occ. eigenvalues --   -1.01469  -1.00495  -0.99777  -0.99263  -0.98689
  Beta  occ. eigenvalues --   -0.96267  -0.95668  -0.95002  -0.94253  -0.93592
  Beta  occ. eigenvalues --   -0.93302  -0.92424  -0.92138  -0.91992  -0.90849
  Beta  occ. eigenvalues --   -0.89956  -0.89634  -0.88696  -0.87911  -0.87448
  Beta  occ. eigenvalues --   -0.86454  -0.86181  -0.85387  -0.85056  -0.83289
  Beta  occ. eigenvalues --   -0.83179  -0.81467  -0.81290  -0.80508  -0.79803
  Beta  occ. eigenvalues --   -0.79538  -0.78381  -0.77830  -0.77812  -0.77367
  Beta  occ. eigenvalues --   -0.77012  -0.76654  -0.75485  -0.74412  -0.74289
  Beta  occ. eigenvalues --   -0.73080  -0.72402  -0.72132  -0.71157  -0.70494
  Beta  occ. eigenvalues --   -0.70228  -0.70137  -0.69119  -0.68211  -0.68006
  Beta  occ. eigenvalues --   -0.67794  -0.67578  -0.66733  -0.66210  -0.65656
  Beta  occ. eigenvalues --   -0.65497  -0.65084  -0.64842  -0.64703  -0.64559
  Beta  occ. eigenvalues --   -0.64052  -0.63822  -0.63360  -0.63255  -0.62921
  Beta  occ. eigenvalues --   -0.62765  -0.62516  -0.62120  -0.61406  -0.61253
  Beta  occ. eigenvalues --   -0.60872  -0.60787  -0.60484  -0.59871  -0.59586
  Beta  occ. eigenvalues --   -0.59247  -0.58813  -0.58732  -0.58547  -0.58437
  Beta  occ. eigenvalues --   -0.58059  -0.58033  -0.57820  -0.57415  -0.57276
  Beta  occ. eigenvalues --   -0.57142  -0.56756  -0.56514  -0.56438  -0.56333
  Beta  occ. eigenvalues --   -0.56115  -0.55592  -0.55468  -0.55360  -0.55217
  Beta  occ. eigenvalues --   -0.55154  -0.54861  -0.54616  -0.54248  -0.54118
  Beta  occ. eigenvalues --   -0.53870  -0.53668  -0.53513  -0.53414  -0.53256
  Beta  occ. eigenvalues --   -0.53237  -0.52852  -0.52608  -0.52299  -0.52046
  Beta  occ. eigenvalues --   -0.51878  -0.51319  -0.50868  -0.50749  -0.50598
  Beta  occ. eigenvalues --   -0.50319  -0.50304  -0.50059  -0.49588  -0.49507
  Beta  occ. eigenvalues --   -0.49113  -0.48855  -0.48569  -0.48190  -0.47661
  Beta  occ. eigenvalues --   -0.47471  -0.47458  -0.47050  -0.46951  -0.46238
  Beta  occ. eigenvalues --   -0.46020  -0.45704  -0.45295  -0.45105  -0.45091
  Beta  occ. eigenvalues --   -0.44955  -0.44931  -0.44234  -0.44153  -0.44132
  Beta  occ. eigenvalues --   -0.43622  -0.43580  -0.43131  -0.42817  -0.42685
  Beta  occ. eigenvalues --   -0.42164  -0.41938  -0.41657  -0.41292  -0.41197
  Beta  occ. eigenvalues --   -0.41007  -0.40927  -0.40823  -0.40363  -0.40276
  Beta  occ. eigenvalues --   -0.40113  -0.39916  -0.37888  -0.36766  -0.36029
  Beta virt. eigenvalues --   -0.22327  -0.15325  -0.12622  -0.08308  -0.05334
  Beta virt. eigenvalues --   -0.03466  -0.02588  -0.02089   0.00190   0.00645
  Beta virt. eigenvalues --    0.00937   0.01409   0.01718   0.02319   0.02506

 Mulliken charges and spin densities:
               1          2
     1  C   -0.236983   0.008808
     2  C   -0.520096   0.019817
     3  C   -0.471865  -0.123484
     4  C   -0.345514  -0.173736
     5  N   -0.431708  -0.028553
     6  C    0.385488   0.146742
     7  C   -0.006674  -0.004350
     8  C    0.053991  -0.003909
     9  C    0.301706   0.116614
    10  C   -0.389231   0.008635
    11  C   -0.298695   0.013227
    12  C   -0.236085   0.001038
    13  C    0.409440   0.000213
    14  O   -0.390691   0.000038
    15  O   -0.286582   0.000023
    16  N   -0.194791  -0.028798
    17  C    0.314082   0.069376
    18  C   -0.099131   0.058725
    19  C    0.077919  -0.027120
    20  C    0.277825   0.167873
    21  C   -0.337084  -0.002655
    22  C   -0.195752   0.004291
    23  C   -0.300343  -0.004074
    24  N   -0.517347  -0.111056
    25  C    0.355446   0.193157
    26  C    0.016834   0.057938
    27  C   -0.095512  -0.005691
    28  C    0.423991   0.242651
    29  C   -0.366946  -0.001614
    30  C   -0.252892   0.000794
    31  C   -0.328409   0.001343
    32  N   -0.176873  -0.052082
    33  C    0.301884   0.222323
    34  C   -0.115541   0.023125
    35  C   -0.011437   0.057762
    36  C    0.106195   0.094096
    37  C   -0.373206   0.001052
    38  C    0.180282  -0.016410
    39  O   -0.286977   0.036398
    40  C    0.055729   0.001798
    41  C    0.296219  -0.000179
    42  O   -0.347619   0.000902
    43  O   -0.264988  -0.000114
    44  C   -0.193671  -0.000041
    45  C   -0.017994   0.000040
    46  C   -0.265771  -0.000005
    47  C    0.114534   0.000014
    48  C   -0.396381   0.000000
    49  C   -0.187397  -0.000000
    50  C   -0.248093   0.000000
    51  C   -0.186706   0.000000
    52  C    0.046904  -0.000000
    53  C   -0.400404  -0.000000
    54  C   -0.187462   0.000000
    55  C   -0.228804   0.000000
    56  C   -0.189901   0.000000
    57  C    0.052392   0.000000
    58  C   -0.400066  -0.000000
    59  C   -0.186904   0.000000
    60  C   -0.230597   0.000000
    61  C   -0.193141  -0.000000
    62  C    0.010501   0.000000
    63  C   -0.368651  -0.000000
    64  C   -0.331386   0.000000
    65  H    0.169292  -0.000859
    66  H    0.211705   0.002587
    67  H    0.170442   0.004494
    68  H    0.153368   0.007662
    69  H    0.112419   0.005766
    70  H    0.143870   0.000808
    71  H    0.129378  -0.000007
    72  H    0.146996  -0.000176
    73  H    0.136425  -0.000417
    74  H    0.136493  -0.000464
    75  H    0.131383   0.000014
    76  H    0.135908   0.000034
    77  H    0.158636   0.003916
    78  H    0.139192  -0.000051
    79  H    0.151772   0.003173
    80  H    0.155295  -0.000772
    81  H    0.164055   0.000220
    82  H    0.158340   0.000388
    83  H    0.150709   0.003823
    84  H    0.136420  -0.000236
    85  H    0.151301   0.003318
    86  H    0.114245  -0.000064
    87  H    0.126565  -0.000189
    88  H    0.124733  -0.000017
    89  H    0.114496   0.000129
    90  H    0.139508   0.000419
    91  H    0.140662   0.000635
    92  H    0.179594   0.000015
    93  H    0.168904   0.003216
    94  H    0.132800  -0.002657
    95  H    0.147701  -0.000001
    96  H    0.128009  -0.000000
    97  H    0.149147  -0.000001
    98  H    0.118640   0.000009
    99  H    0.133940  -0.000003
   100  H    0.112103  -0.000000
   101  H    0.150004  -0.000000
   102  H    0.121709   0.000000
   103  H    0.144865   0.000001
   104  H    0.107294   0.000001
   105  H    0.098001   0.000000
   106  H    0.112713   0.000000
   107  H    0.105870  -0.000000
   108  H    0.087954  -0.000000
   109  H    0.094784   0.000000
   110  H    0.057767   0.000000
   111  H    0.119705  -0.000000
   112  H    0.127728  -0.000000
   113  H    0.106038   0.000000
   114  H    0.087027   0.000000
   115  H    0.091803  -0.000000
   116  H    0.101017   0.000000
   117  H    0.088571  -0.000000
   118  H    0.087318  -0.000000
   119  H    0.090955  -0.000000
   120  H    0.055502  -0.000000
   121  H    0.118859  -0.000000
   122  H    0.126552   0.000000
   123  H    0.105121   0.000000
   124  H    0.087499  -0.000000
   125  H    0.092057  -0.000000
   126  H    0.096292  -0.000000
   127  H    0.097363  -0.000000
   128  H    0.089251  -0.000000
   129  H    0.089487  -0.000000
   130  H    0.060632  -0.000000
   131  H    0.101835  -0.000000
   132  H    0.116025  -0.000000
   133  H    0.120315   0.000000
   134  H    0.110165  -0.000000
   135  H    0.115930   0.000000
   136  H    0.101294  -0.000000
   137  H    0.232229   0.000177
   138  H    0.238962   0.000169
 Sum of Mulliken charges =   1.00000   1.00000

 Dipole moment (field-independent basis, Debye):
    X=            -23.8001    Y=              8.1990    Z=              2.7906  Tot=             25.3270
 Quadrupole moment (field-independent basis, Debye-Ang):
   XX=           -173.7064   YY=           -285.2921   ZZ=           -341.9163
   XY=            -77.8862   XZ=             28.2310   YZ=              0.8996

 Normal termination of Gaussian 16 at Sat Nov 30 19:49:50 2019.
