 Gaussian 16, Revision A.03,
 Gaussian 16:  ES64L-G16RevA.03 25-Dec-2016

 --------------------------------------------------------
 # wB97XD/Def2TZVP iop(3/107=0100000000,3/108=0100000000)
 --------------------------------------------------------

 -----
 TITLE
 -----
 Symbolic Z-matrix:
 Charge =  1 Multiplicity = 2

                         Standard orientation:
 ---------------------------------------------------------------------
 Center     Atomic      Atomic             Coordinates (Angstroms)
 Number     Number       Type             X           Y           Z
 ---------------------------------------------------------------------
      1          6           0       -5.321644   -1.920984   -0.257732
      2          6           0       -3.458202    1.302186    2.720091
      3          6           0       -6.309238    4.670744    0.673934
      4          6           0       -8.406244    1.380711   -2.156749
      5          7           0       -4.534402   -0.116868    1.086836
      6          6           0       -4.480072   -1.415250    0.702835
      7          6           0       -3.405295   -2.190350    1.442452
      8          6           0       -3.051787   -1.215682    2.586447
      9          6           0       -3.702912    0.074027    2.108151
     10          6           0       -3.599718   -1.656462    3.948625
     11          6           0       -2.212891   -2.523467    0.530257
     12          6           0       -1.203842   -3.443805    1.206298
     13          6           0       -0.004828   -3.761921    0.338364
     14          8           0        0.189000   -3.320471   -0.764053
     15          8           0        0.816411   -4.616531    0.968146
     16          7           0       -4.971757    2.777637    1.469129
     17          6           0       -4.022211    2.533910    2.412747
     18          6           0       -3.708673    3.795900    3.027779
     19          6           0       -4.474451    4.761018    2.419004
     20          6           0       -5.312451    4.105661    1.436540
     21          6           0       -2.685098    3.975644    4.100086
     22          6           0       -4.441783    6.192540    2.714372
     23          6           0       -4.481331    7.180196    1.821731
     24          7           0       -7.121030    2.756822   -0.609722
     25          6           0       -7.154290    4.056077   -0.268332
     26          6           0       -8.189230    4.774481   -1.004071
     27          6           0       -8.786192    3.853274   -1.808985
     28          6           0       -8.103135    2.593098   -1.546891
     29          6           0       -8.489972    6.232484   -0.871511
     30          6           0       -9.884888    4.060883   -2.805972
     31          6           0       -9.367208    4.306399   -4.230330
     32          7           0       -6.723880    0.069292   -1.002841
     33          6           0       -7.763925    0.169712   -1.912207
     34          6           0       -7.996643   -1.123961   -2.465013
     35          6           0       -7.069849   -1.958583   -1.850108
     36          6           0       -6.300388   -1.194141   -0.950191
     37          6           0       -9.032478   -1.479922   -3.477988
     38          6           0       -6.607093   -3.339308   -1.804070
     39          8           0       -6.987863   -4.309639   -2.407981
     40          6           0       -5.416438   -3.352146   -0.759550
     41          6           0       -5.715466   -4.380398    0.316144
     42          8           0       -6.431266   -4.199433    1.265342
     43          8           0       -5.093823   -5.538732    0.055169
     44          6           0       -5.391828   -6.622795    0.938501
     45          6           0        2.054989   -4.958992    0.297860
     46          6           0        3.144017   -4.000515    0.655872
     47          6           0        3.836799   -3.219939   -0.177502
     48          6           0        3.610294   -3.158387   -1.664697
     49          6           0        4.940012   -2.337852    0.354137
     50          6           0        6.335466   -2.708510   -0.170272
     51          6           0        7.432115   -1.817027    0.413150
     52          6           0        8.839871   -2.044810   -0.161004
     53          6           0        9.357070   -3.455562    0.135146
     54          6           0        9.796447   -0.959072    0.358524
     55          6           0       11.184679   -0.945184   -0.283587
     56          6           0       12.041155    0.229348    0.192602
     57          6           0       13.411302    0.367070   -0.491038
     58          6           0       14.320146   -0.831091   -0.201386
     59          6           0       14.067019    1.696542   -0.084080
     60          6           0       15.355359    2.049455   -0.829456
     61          6           0       15.868580    3.448668   -0.485169
     62          6           0       17.229152    3.817794   -1.095381
     63          6           0       17.201288    3.828937   -2.626377
     64          6           0       17.710195    5.167378   -0.555283
     65          1           0       -2.738359    1.306163    3.527381
     66          1           0       -6.469666    5.725922    0.842603
     67          1           0       -9.209715    1.365431   -2.880475
     68          1           0       -3.817817   -3.120301    1.840332
     69          1           0       -1.971273   -1.077554    2.669706
     70          1           0       -3.135006   -2.592707    4.262468
     71          1           0       -3.402356   -0.906353    4.715383
     72          1           0       -4.678284   -1.812364    3.896782
     73          1           0       -2.566871   -2.999891   -0.383642
     74          1           0       -1.725029   -1.598357    0.217343
     75          1           0       -0.823750   -3.011487    2.135376
     76          1           0       -1.670480   -4.390216    1.490935
     77          1           0       -1.694388    3.673641    3.753014
     78          1           0       -2.618777    5.015287    4.414325
     79          1           0       -2.921759    3.371745    4.978881
     80          1           0       -4.347592    6.453607    3.764010
     81          1           0       -4.524524    6.991780    0.756785
     82          1           0       -4.445737    8.214559    2.137377
     83          1           0       -7.638438    6.845500   -1.177552
     84          1           0       -9.338228    6.520260   -1.491159
     85          1           0       -8.728271    6.500498    0.160414
     86          1           0      -10.551924    3.195249   -2.807643
     87          1           0      -10.500874    4.907875   -2.497294
     88          1           0       -8.741406    5.199013   -4.264858
     89          1           0       -8.763437    3.466961   -4.577522
     90          1           0      -10.195497    4.442570   -4.927868
     91          1           0       -8.940435   -0.860654   -4.372434
     92          1           0       -8.935448   -2.522752   -3.770130
     93          1           0      -10.037979   -1.330622   -3.078070
     94          1           0       -4.528781   -3.670859   -1.307563
     95          1           0       -4.814788   -7.466838    0.571639
     96          1           0       -5.102294   -6.378644    1.960207
     97          1           0       -6.456218   -6.852043    0.914167
     98          1           0        2.283505   -5.956962    0.672515
     99          1           0        1.877736   -5.017559   -0.772660
    100          1           0        3.383280   -3.966379    1.714798
    101          1           0        2.611732   -3.483214   -1.946835
    102          1           0        3.740771   -2.135054   -2.022318
    103          1           0        4.338655   -3.776234   -2.196472
    104          1           0        4.725239   -1.299663    0.076041
    105          1           0        4.947325   -2.376004    1.445820
    106          1           0        6.527288   -3.756943    0.069327
    107          1           0        6.352659   -2.629910   -1.260971
    108          1           0        7.154873   -0.771640    0.243389
    109          1           0        7.465525   -1.948006    1.500831
    110          1           0        8.773749   -1.931812   -1.250205
    111          1           0        8.691521   -4.220520   -0.265279
    112          1           0       10.339783   -3.623689   -0.305467
    113          1           0        9.441704   -3.616365    1.213488
    114          1           0        9.329507    0.017783    0.196774
    115          1           0        9.901192   -1.067157    1.444309
    116          1           0       11.697348   -1.884170   -0.068313
    117          1           0       11.077502   -0.894396   -1.372704
    118          1           0       11.480341    1.155468    0.030541
    119          1           0       12.190077    0.152773    1.275913
    120          1           0       13.237205    0.403696   -1.573615
    121          1           0       13.864838   -1.768550   -0.521246
    122          1           0       15.275029   -0.745448   -0.720257
    123          1           0       14.526850   -0.907553    0.869764
    124          1           0       13.342750    2.501502   -0.245611
    125          1           0       14.264706    1.680925    0.993963
    126          1           0       16.136736    1.320888   -0.596214
    127          1           0       15.173090    1.972142   -1.905077
    128          1           0       15.126749    4.193723   -0.795550
    129          1           0       15.943758    3.534060    0.603831
    130          1           0       17.950638    3.055527   -0.779023
    131          1           0       16.462604    4.546211   -2.994557
    132          1           0       18.173336    4.116516   -3.031423
    133          1           0       16.950882    2.850491   -3.037342
    134          1           0       17.773038    5.159128    0.534598
    135          1           0       18.697364    5.421174   -0.946155
    136          1           0       17.023449    5.967872   -0.843020
    137          1           0       -5.414400    2.062197    0.916336
    138          1           0       -6.392286    0.882885   -0.501923
 ---------------------------------------------------------------------

 SCF Done:  E(UwB97XD) =  -2735.88617022     A.U. after   28 cycles

 Alpha virt. eigenvalues --    1.87082   1.87154   1.87801   1.87890   1.88776
 Alpha virt. eigenvalues --    1.89047   1.89251   1.89357   1.89596   1.89835
 Alpha virt. eigenvalues --    1.90342   1.90501   1.90671   1.91162   1.91280

  Beta  occ. eigenvalues --  -19.33636 -19.30965 -19.29555 -19.27688 -19.25479
  Beta  occ. eigenvalues --  -14.54849 -14.54526 -14.49914 -14.48057 -10.45797
  Beta  occ. eigenvalues --  -10.43997 -10.43417 -10.41808 -10.41801 -10.41789
  Beta  occ. eigenvalues --  -10.41234 -10.40933 -10.40866 -10.39692 -10.39684
  Beta  occ. eigenvalues --  -10.39292 -10.37416 -10.37402 -10.37356 -10.37284
  Beta  occ. eigenvalues --  -10.37036 -10.36500 -10.36384 -10.36342 -10.35958
  Beta  occ. eigenvalues --  -10.35916 -10.35869 -10.35372 -10.35313 -10.35128
  Beta  occ. eigenvalues --  -10.35053 -10.34237 -10.34210 -10.34072 -10.33781
  Beta  occ. eigenvalues --  -10.33756 -10.33390 -10.33370 -10.33023 -10.31616
  Beta  occ. eigenvalues --  -10.30332 -10.28429 -10.28269 -10.27841 -10.27689
  Beta  occ. eigenvalues --  -10.27553 -10.27021 -10.26512 -10.26244 -10.26141
  Beta  occ. eigenvalues --  -10.25979 -10.25750 -10.25720 -10.25372 -10.25266
  Beta  occ. eigenvalues --  -10.25132 -10.24810 -10.24408 -10.24379  -1.24866
  Beta  occ. eigenvalues --   -1.22189  -1.19945  -1.17185  -1.16406  -1.16003
  Beta  occ. eigenvalues --   -1.13645  -1.12601  -1.11772  -1.02212  -0.98987
  Beta  occ. eigenvalues --   -0.98801  -0.97847  -0.97051  -0.96594  -0.95988
  Beta  occ. eigenvalues --   -0.93651  -0.93024  -0.92434  -0.91652  -0.90928
  Beta  occ. eigenvalues --   -0.90663  -0.89733  -0.89506  -0.89330  -0.88168
  Beta  occ. eigenvalues --   -0.87380  -0.87108  -0.86108  -0.85317  -0.84856
  Beta  occ. eigenvalues --   -0.83875  -0.83615  -0.82935  -0.82504  -0.80794
  Beta  occ. eigenvalues --   -0.80632  -0.78954  -0.78785  -0.78048  -0.77327
  Beta  occ. eigenvalues --   -0.77023  -0.75877  -0.75324  -0.75314  -0.74871
  Beta  occ. eigenvalues --   -0.74519  -0.74191  -0.73030  -0.71973  -0.71887
  Beta  occ. eigenvalues --   -0.70590  -0.69979  -0.69698  -0.68711  -0.68049
  Beta  occ. eigenvalues --   -0.67762  -0.67715  -0.66707  -0.65780  -0.65537
  Beta  occ. eigenvalues --   -0.65392  -0.65117  -0.64291  -0.63721  -0.63223
  Beta  occ. eigenvalues --   -0.63062  -0.62604  -0.62422  -0.62277  -0.62143
  Beta  occ. eigenvalues --   -0.61590  -0.61393  -0.60860  -0.60831  -0.60486
  Beta  occ. eigenvalues --   -0.60389  -0.60124  -0.59770  -0.59007  -0.58911
  Beta  occ. eigenvalues --   -0.58500  -0.58393  -0.58017  -0.57522  -0.57221
  Beta  occ. eigenvalues --   -0.56927  -0.56537  -0.56386  -0.56207  -0.56100
  Beta  occ. eigenvalues --   -0.55749  -0.55664  -0.55538  -0.55166  -0.54984
  Beta  occ. eigenvalues --   -0.54829  -0.54497  -0.54295  -0.54068  -0.54001
  Beta  occ. eigenvalues --   -0.53776  -0.53266  -0.53151  -0.53067  -0.52873
  Beta  occ. eigenvalues --   -0.52790  -0.52576  -0.52358  -0.52003  -0.51842
  Beta  occ. eigenvalues --   -0.51665  -0.51401  -0.51247  -0.51137  -0.50978
  Beta  occ. eigenvalues --   -0.50936  -0.50562  -0.50313  -0.50125  -0.49995
  Beta  occ. eigenvalues --   -0.49674  -0.49040  -0.48693  -0.48499  -0.48320
  Beta  occ. eigenvalues --   -0.48198  -0.48162  -0.47883  -0.47373  -0.47317
  Beta  occ. eigenvalues --   -0.46863  -0.46692  -0.46452  -0.46027  -0.45483
  Beta  occ. eigenvalues --   -0.45292  -0.45261  -0.44873  -0.44798  -0.44070
  Beta  occ. eigenvalues --   -0.43838  -0.43467  -0.43170  -0.43068  -0.42971
  Beta  occ. eigenvalues --   -0.42797  -0.42789  -0.42132  -0.42026  -0.41982
  Beta  occ. eigenvalues --   -0.41535  -0.41395  -0.41036  -0.40896  -0.40532
  Beta  occ. eigenvalues --   -0.40079  -0.39723  -0.39544  -0.39193  -0.38969
  Beta  occ. eigenvalues --   -0.38953  -0.38910  -0.38706  -0.38269  -0.38179
  Beta  occ. eigenvalues --   -0.38025  -0.37795  -0.35828  -0.35186  -0.34004
  Beta virt. eigenvalues --   -0.22971  -0.16248  -0.13611  -0.09578  -0.06579
  Beta virt. eigenvalues --   -0.04771  -0.03839  -0.03382  -0.01001   0.00256
  Beta virt. eigenvalues --    0.00284   0.00684   0.00971   0.01379   0.02025

 Mulliken charges and spin densities:
               1          2
     1  C   -0.255757   0.005907
     2  C   -0.508238   0.004573
     3  C   -0.477197  -0.113997
     4  C   -0.350348  -0.141906
     5  N   -0.471399  -0.037123
     6  C    0.429617   0.146511
     7  C   -0.022455  -0.005703
     8  C    0.057849  -0.005526
     9  C    0.315173   0.130332
    10  C   -0.370455   0.009872
    11  C   -0.275475   0.013974
    12  C   -0.227524   0.000813
    13  C    0.435853   0.000245
    14  O   -0.402041   0.000035
    15  O   -0.302125   0.000037
    16  N   -0.208318  -0.031532
    17  C    0.315923   0.084773
    18  C   -0.090551   0.049813
    19  C    0.073578  -0.017510
    20  C    0.292206   0.168428
    21  C   -0.326231  -0.002122
    22  C   -0.193858   0.001170
    23  C   -0.292194   0.001785
    24  N   -0.555390  -0.094869
    25  C    0.358604   0.191387
    26  C    0.023885   0.044306
    27  C   -0.102961   0.000956
    28  C    0.462481   0.222649
    29  C   -0.357267  -0.000979
    30  C   -0.237961   0.000198
    31  C   -0.311446   0.001729
    32  N   -0.194500  -0.042746
    33  C    0.273469   0.200333
    34  C   -0.089205   0.027248
    35  C   -0.035889   0.045044
    36  C    0.124768   0.087532
    37  C   -0.379281   0.001171
    38  C    0.224000  -0.014613
    39  O   -0.306785   0.030625
    40  C    0.049874   0.002632
    41  C    0.339502  -0.000571
    42  O   -0.367302   0.000939
    43  O   -0.283376  -0.000080
    44  C   -0.176963  -0.000038
    45  C    0.009136   0.000045
    46  C   -0.261621  -0.000004
    47  C    0.096403   0.000025
    48  C   -0.374767  -0.000000
    49  C   -0.161123  -0.000000
    50  C   -0.242764   0.000001
    51  C   -0.167878   0.000001
    52  C    0.042824   0.000000
    53  C   -0.382005  -0.000000
    54  C   -0.167094   0.000000
    55  C   -0.225631   0.000000
    56  C   -0.169360   0.000000
    57  C    0.048026   0.000000
    58  C   -0.381777  -0.000000
    59  C   -0.166776   0.000000
    60  C   -0.225102   0.000000
    61  C   -0.175123   0.000000
    62  C    0.009979   0.000000
    63  C   -0.350536  -0.000000
    64  C   -0.312466  -0.000000
    65  H    0.168201  -0.000349
    66  H    0.224094   0.002916
    67  H    0.175137   0.004254
    68  H    0.153015   0.007122
    69  H    0.101354   0.005956
    70  H    0.137663   0.000818
    71  H    0.123817  -0.000040
    72  H    0.142871  -0.000287
    73  H    0.133399  -0.000465
    74  H    0.127510  -0.000561
    75  H    0.123495   0.000002
    76  H    0.128345   0.000045
    77  H    0.152843   0.003591
    78  H    0.135709  -0.000108
    79  H    0.147523   0.002908
    80  H    0.151208  -0.000372
    81  H    0.162047   0.000080
    82  H    0.155683   0.000180
    83  H    0.145993   0.003333
    84  H    0.131893  -0.000252
    85  H    0.145519   0.002740
    86  H    0.107778   0.000199
    87  H    0.119841  -0.000075
    88  H    0.119976   0.000008
    89  H    0.110378   0.000137
    90  H    0.132996   0.000447
    91  H    0.146508   0.001855
    92  H    0.178502  -0.000373
    93  H    0.154344   0.002569
    94  H    0.118831  -0.002116
    95  H    0.142194  -0.000002
    96  H    0.123814  -0.000001
    97  H    0.142557  -0.000001
    98  H    0.108788   0.000013
    99  H    0.127469  -0.000004
   100  H    0.104619  -0.000000
   101  H    0.146059   0.000000
   102  H    0.115624   0.000000
   103  H    0.139684   0.000002
   104  H    0.100633   0.000001
   105  H    0.090623   0.000000
   106  H    0.109185   0.000000
   107  H    0.101153  -0.000000
   108  H    0.081412  -0.000000
   109  H    0.088161   0.000000
   110  H    0.049442   0.000000
   111  H    0.114468  -0.000000
   112  H    0.122445  -0.000000
   113  H    0.100507   0.000000
   114  H    0.080585   0.000000
   115  H    0.085155  -0.000000
   116  H    0.101059  -0.000000
   117  H    0.081183  -0.000000
   118  H    0.080836  -0.000000
   119  H    0.084356  -0.000000
   120  H    0.047259  -0.000000
   121  H    0.113386  -0.000000
   122  H    0.121446   0.000000
   123  H    0.099666   0.000000
   124  H    0.080597  -0.000000
   125  H    0.085694  -0.000000
   126  H    0.091705  -0.000000
   127  H    0.092631   0.000000
   128  H    0.083357   0.000000
   129  H    0.082872   0.000000
   130  H    0.052529   0.000000
   131  H    0.096576  -0.000000
   132  H    0.110131  -0.000000
   133  H    0.115423   0.000000
   134  H    0.104686   0.000000
   135  H    0.110121   0.000000
   136  H    0.096394   0.000000
   137  H    0.241776   0.000154
   138  H    0.248634  -0.000096
 Sum of Mulliken charges =   1.00000   1.00000

 Dipole moment (field-independent basis, Debye):
    X=            -23.6539    Y=              8.2008    Z=              2.8777  Tot=             25.2000
 Quadrupole moment (field-independent basis, Debye-Ang):
   XX=           -171.9862   YY=           -281.5500   ZZ=           -340.3837
   XY=            -76.1583   XZ=             27.5069   YZ=              0.1103

 Normal termination of Gaussian 16 at Wed Nov 20 05:04:22 2019.
