 Gaussian 16, Revision A.03,
 Gaussian 16:  ES64L-G16RevA.03 25-Dec-2016

 --------------------------------------------------------
 # wB97XD/Def2TZVP iop(3/107=0200000000,3/108=0200000000)
 --------------------------------------------------------

 -----
 TITLE
 -----
 Symbolic Z-matrix:
 Charge =  1 Multiplicity = 2

                         Standard orientation:
 ---------------------------------------------------------------------
 Center     Atomic      Atomic             Coordinates (Angstroms)
 Number     Number       Type             X           Y           Z
 ---------------------------------------------------------------------
      1          6           0       -5.140433   -1.928454   -0.262036
      2          6           0       -3.548714    1.583789    2.527660
      3          6           0       -6.834777    4.526861    0.528907
      4          6           0       -8.694056    0.929812   -2.072918
      5          7           0       -4.517337   -0.000459    0.989346
      6          6           0       -4.345051   -1.316139    0.649169
      7          6           0       -3.213572   -1.961640    1.420092
      8          6           0       -2.856447   -0.868622    2.443375
      9          6           0       -3.683186    0.307144    1.957089
     10          6           0       -3.194206   -1.249864    3.883296
     11          6           0       -2.039592   -2.374412    0.530241
     12          6           0       -1.010224   -3.185719    1.298558
     13          6           0        0.188209   -3.567564    0.466861
     14          8           0        0.424894   -3.147542   -0.633861
     15          8           0        0.961153   -4.441174    1.120840
     16          7           0       -5.272633    2.816151    1.303907
     17          6           0       -4.261702    2.713632    2.205026
     18          6           0       -4.063332    4.034723    2.765014
     19          6           0       -4.950150    4.877951    2.172287
     20          6           0       -5.762819    4.097436    1.249270
     21          6           0       -3.017686    4.355773    3.776106
     22          6           0       -5.063794    6.315682    2.416138
     23          6           0       -5.253802    7.247246    1.488941
     24          7           0       -7.487152    2.492374   -0.647901
     25          6           0       -7.653981    3.776603   -0.353823
     26          6           0       -8.799106    4.348708   -1.048278
     27          6           0       -9.332864    3.340744   -1.781857
     28          6           0       -8.500419    2.176023   -1.525851
     29          6           0       -9.245806    5.768735   -0.944450
     30          6           0      -10.497135    3.387732   -2.717893
     31          6           0      -10.075842    3.623175   -4.170170
     32          7           0       -6.791275   -0.136064   -1.011428
     33          6           0       -7.900676   -0.200260   -1.836794
     34          6           0       -8.034314   -1.525460   -2.301602
     35          6           0       -6.974542   -2.227276   -1.722058
     36          6           0       -6.235745   -1.340136   -0.933844
     37          6           0       -9.103602   -2.063937   -3.186826
     38          6           0       -6.374534   -3.547679   -1.630572
     39          8           0       -6.706927   -4.592365   -2.126823
     40          6           0       -5.102291   -3.374107   -0.723801
     41          6           0       -5.124134   -4.383507    0.400289
     42          8           0       -5.873670   -4.353151    1.336872
     43          8           0       -4.191773   -5.326565    0.226134
     44          6           0       -4.162290   -6.354351    1.212282
     45          6           0        2.201659   -4.816453    0.486877
     46          6           0        3.291793   -3.856523    0.828867
     47          6           0        3.965806   -3.081644   -0.019322
     48          6           0        3.715333   -3.034125   -1.500674
     49          6           0        5.074573   -2.195753    0.481571
     50          6           0        6.447107   -2.560627   -0.088322
     51          6           0        7.555546   -1.672994    0.464449
     52          6           0        8.936093   -1.886246   -0.162648
     53          6           0        9.455354   -3.301811    0.077953
     54          6           0        9.910001   -0.824412    0.356009
     55          6           0       11.278372   -0.811230   -0.315828
     56          6           0       12.148671    0.347081    0.158480
     57          6           0       13.494365    0.491047   -0.557881
     58          6           0       14.393404   -0.721894   -0.329964
     59          6           0       14.175779    1.792480   -0.126318
     60          6           0       15.456521    2.138497   -0.877485
     61          6           0       15.984725    3.522860   -0.518858
     62          6           0       17.347999    3.873814   -1.118544
     63          6           0       17.327064    3.870715   -2.644898
     64          6           0       17.828843    5.223432   -0.593185
     65          1           0       -2.794657    1.699003    3.295074
     66          1           0       -7.103315    5.564848    0.666865
     67          1           0       -9.537094    0.798590   -2.739687
     68          1           0       -3.590548   -2.849749    1.936985
     69          1           0       -1.794605   -0.611280    2.385934
     70          1           0       -2.603634   -2.112947    4.196702
     71          1           0       -2.988883   -0.429686    4.572868
     72          1           0       -4.250694   -1.510755    3.971205
     73          1           0       -2.395536   -2.969784   -0.310529
     74          1           0       -1.573778   -1.485535    0.099318
     75          1           0       -0.632826   -2.635957    2.166491
     76          1           0       -1.455085   -4.101434    1.696157
     77          1           0       -2.019125    4.153394    3.382045
     78          1           0       -3.053270    5.404895    4.064258
     79          1           0       -3.142811    3.750070    4.676472
     80          1           0       -4.950631    6.628917    3.449646
     81          1           0       -5.330520    7.001763    0.436955
     82          1           0       -5.314417    8.293555    1.758804
     83          1           0       -8.472669    6.455939   -1.297946
     84          1           0      -10.139927    5.947095   -1.541278
     85          1           0       -9.475455    6.041971    0.088364
     86          1           0      -11.065609    2.456687   -2.649521
     87          1           0      -11.182593    4.178962   -2.407026
     88          1           0       -9.547148    4.572887   -4.267305
     89          1           0       -9.403252    2.835097   -4.513222
     90          1           0      -10.943714    3.644781   -4.831587
     91          1           0       -9.557418   -1.282755   -3.796676
     92          1           0       -8.700810   -2.832208   -3.846110
     93          1           0       -9.893593   -2.530196   -2.593234
     94          1           0       -4.241562   -3.580451   -1.362179
     95          1           0       -3.354861   -7.020710    0.921156
     96          1           0       -3.973158   -5.932637    2.200082
     97          1           0       -5.110741   -6.890210    1.232544
     98          1           0        2.416325   -5.803098    0.897412
     99          1           0        2.042962   -4.907861   -0.585121
    100          1           0        3.544839   -3.812804    1.884636
    101          1           0        2.696946   -3.319158   -1.756076
    102          1           0        3.883365   -2.022339   -1.875824
    103          1           0        4.408639   -3.690077   -2.033879
    104          1           0        4.846448   -1.158051    0.211104
    105          1           0        5.117014   -2.237253    1.572969
    106          1           0        6.648208   -3.610686    0.139510
    107          1           0        6.429438   -2.475750   -1.179475
    108          1           0        7.266894   -0.626127    0.320509
    109          1           0        7.631375   -1.820541    1.548724
    110          1           0        8.834040   -1.741642   -1.245992
    111          1           0        8.773670   -4.054127   -0.320021
    112          1           0       10.423509   -3.461498   -0.397369
    113          1           0        9.572642   -3.488200    1.149861
    114          1           0        9.448857    0.160767    0.227282
    115          1           0       10.039273   -0.959367    1.436990
    116          1           0       11.789841   -1.756805   -0.125227
    117          1           0       11.147122   -0.743279   -1.402191
    118          1           0       11.587513    1.279231    0.031919
    119          1           0       12.329181    0.246287    1.235853
    120          1           0       13.290882    0.564863   -1.634097
    121          1           0       13.918452   -1.644632   -0.664631
    122          1           0       15.336071   -0.630789   -0.870413
    123          1           0       14.625466   -0.830225    0.733985
    124          1           0       13.464357    2.615355   -0.256084
    125          1           0       14.388177    1.742888    0.948721
    126          1           0       16.232963    1.398446   -0.661192
    127          1           0       15.263026    2.077909   -1.952990
    128          1           0       15.255544    4.281374   -0.829520
    129          1           0       16.054570    3.599143    0.571836
    130          1           0       18.061783    3.109389   -0.788846
    131          1           0       16.584862    4.582238   -3.019240
    132          1           0       18.299238    4.161173   -3.048345
    133          1           0       17.082200    2.887568   -3.048796
    134          1           0       17.877321    5.230649    0.497762
    135          1           0       18.821644    5.467412   -0.976722
    136          1           0       17.147352    6.021309   -0.902234
    137          1           0       -5.667060    2.034136    0.807210
    138          1           0       -6.509984    0.731236   -0.575029
 ---------------------------------------------------------------------

 SCF Done:  E(UwB97XD) =  -2735.50620197     A.U. after   30 cycles

 Alpha virt. eigenvalues --    1.90578   1.90717   1.91422   1.91540   1.92239
 Alpha virt. eigenvalues --    1.92442   1.92524   1.92844   1.92943   1.93093
 Alpha virt. eigenvalues --    1.93753   1.94177   1.94509   1.94883   1.94890

  Beta  occ. eigenvalues --  -19.38577 -19.35662 -19.34196 -19.32473 -19.30146
  Beta  occ. eigenvalues --  -14.59718 -14.58725 -14.54294 -14.52833 -10.50636
  Beta  occ. eigenvalues --  -10.48673 -10.48154 -10.46714 -10.46384 -10.46274
  Beta  occ. eigenvalues --  -10.46270 -10.45669 -10.45606 -10.44506 -10.44384
  Beta  occ. eigenvalues --  -10.44126 -10.42507 -10.41797 -10.41787 -10.41661
  Beta  occ. eigenvalues --  -10.41524 -10.41153 -10.40862 -10.40592 -10.40431
  Beta  occ. eigenvalues --  -10.40355 -10.39985 -10.39875 -10.39799 -10.39685
  Beta  occ. eigenvalues --  -10.39544 -10.38906 -10.38619 -10.38441 -10.38365
  Beta  occ. eigenvalues --  -10.38157 -10.37968 -10.37911 -10.37632 -10.36219
  Beta  occ. eigenvalues --  -10.34774 -10.32810 -10.32645 -10.32164 -10.32090
  Beta  occ. eigenvalues --  -10.31907 -10.31418 -10.30876 -10.30649 -10.30504
  Beta  occ. eigenvalues --  -10.30397 -10.30194 -10.30131 -10.29788 -10.29694
  Beta  occ. eigenvalues --  -10.29548 -10.29263 -10.28856 -10.28819  -1.30412
  Beta  occ. eigenvalues --   -1.27590  -1.25028  -1.22810  -1.21359  -1.21250
  Beta  occ. eigenvalues --   -1.18765  -1.17801  -1.17281  -1.07641  -1.04166
  Beta  occ. eigenvalues --   -1.04027  -1.03056  -1.02488  -1.01889  -1.01352
  Beta  occ. eigenvalues --   -0.98794  -0.98223  -0.97471  -0.96774  -0.96148
  Beta  occ. eigenvalues --   -0.95856  -0.94989  -0.94726  -0.94576  -0.93402
  Beta  occ. eigenvalues --   -0.92463  -0.92024  -0.91198  -0.90451  -0.89978
  Beta  occ. eigenvalues --   -0.88970  -0.88692  -0.87661  -0.87506  -0.85665
  Beta  occ. eigenvalues --   -0.85588  -0.83882  -0.83702  -0.82814  -0.82149
  Beta  occ. eigenvalues --   -0.81963  -0.80751  -0.80196  -0.80175  -0.79708
  Beta  occ. eigenvalues --   -0.79344  -0.78954  -0.77804  -0.76736  -0.76444
  Beta  occ. eigenvalues --   -0.75401  -0.74775  -0.74337  -0.73445  -0.72758
  Beta  occ. eigenvalues --   -0.72507  -0.72358  -0.71360  -0.70469  -0.70334
  Beta  occ. eigenvalues --   -0.70009  -0.69837  -0.68981  -0.68532  -0.67897
  Beta  occ. eigenvalues --   -0.67747  -0.67368  -0.67057  -0.66933  -0.66750
  Beta  occ. eigenvalues --   -0.66413  -0.66004  -0.65692  -0.65439  -0.65162
  Beta  occ. eigenvalues --   -0.64945  -0.64646  -0.64211  -0.63643  -0.63352
  Beta  occ. eigenvalues --   -0.63019  -0.62894  -0.62712  -0.61995  -0.61733
  Beta  occ. eigenvalues --   -0.61333  -0.60879  -0.60800  -0.60645  -0.60541
  Beta  occ. eigenvalues --   -0.60189  -0.60085  -0.59818  -0.59475  -0.59335
  Beta  occ. eigenvalues --   -0.59135  -0.58775  -0.58640  -0.58468  -0.58380
  Beta  occ. eigenvalues --   -0.58189  -0.57711  -0.57540  -0.57466  -0.57330
  Beta  occ. eigenvalues --   -0.57269  -0.56859  -0.56645  -0.56255  -0.56189
  Beta  occ. eigenvalues --   -0.55788  -0.55689  -0.55491  -0.55404  -0.55293
  Beta  occ. eigenvalues --   -0.55188  -0.54864  -0.54624  -0.54254  -0.53875
  Beta  occ. eigenvalues --   -0.53741  -0.53309  -0.52897  -0.52755  -0.52579
  Beta  occ. eigenvalues --   -0.52219  -0.52160  -0.51991  -0.51515  -0.51368
  Beta  occ. eigenvalues --   -0.51059  -0.50783  -0.50409  -0.50078  -0.49544
  Beta  occ. eigenvalues --   -0.49342  -0.49269  -0.48944  -0.48830  -0.48096
  Beta  occ. eigenvalues --   -0.47897  -0.47758  -0.47245  -0.46938  -0.46819
  Beta  occ. eigenvalues --   -0.46799  -0.46630  -0.46041  -0.45994  -0.45976
  Beta  occ. eigenvalues --   -0.45487  -0.45422  -0.44915  -0.44510  -0.44305
  Beta  occ. eigenvalues --   -0.43928  -0.43846  -0.43429  -0.43166  -0.43038
  Beta  occ. eigenvalues --   -0.42770  -0.42587  -0.42536  -0.42119  -0.42034
  Beta  occ. eigenvalues --   -0.41862  -0.41670  -0.39590  -0.38019  -0.37689
  Beta virt. eigenvalues --   -0.21991  -0.14667  -0.11879  -0.07292  -0.04304
  Beta virt. eigenvalues --   -0.02399  -0.01661  -0.01068   0.00773   0.00967
  Beta virt. eigenvalues --    0.01320   0.02001   0.02437   0.02643   0.03067

 Mulliken charges and spin densities:
               1          2
     1  C   -0.242492   0.002791
     2  C   -0.522427   0.036284
     3  C   -0.469925  -0.124464
     4  C   -0.338577  -0.202715
     5  N   -0.408195  -0.021241
     6  C    0.376055   0.151916
     7  C   -0.002537  -0.003308
     8  C    0.057884  -0.002767
     9  C    0.287454   0.100258
    10  C   -0.399755   0.006911
    11  C   -0.309654   0.012195
    12  C   -0.241882   0.001208
    13  C    0.390282   0.000165
    14  O   -0.382625   0.000041
    15  O   -0.278937   0.000017
    16  N   -0.189634  -0.022063
    17  C    0.306815   0.048054
    18  C   -0.101432   0.064984
    19  C    0.081391  -0.037174
    20  C    0.263573   0.160572
    21  C   -0.346273  -0.003138
    22  C   -0.198162   0.007795
    23  C   -0.304509  -0.009442
    24  N   -0.491698  -0.122828
    25  C    0.349729   0.187153
    26  C    0.019955   0.075466
    27  C   -0.093793  -0.019494
    28  C    0.391712   0.263928
    29  C   -0.372336  -0.002680
    30  C   -0.263612   0.001968
    31  C   -0.336405   0.000586
    32  N   -0.167393  -0.063867
    33  C    0.337475   0.245423
    34  C   -0.134654   0.026577
    35  C    0.013451   0.069972
    36  C    0.084983   0.107258
    37  C   -0.354222   0.000135
    38  C    0.148883  -0.019388
    39  O   -0.274417   0.043442
    40  C    0.071087   0.001756
    41  C    0.262233   0.000342
    42  O   -0.330037   0.000634
    43  O   -0.255635  -0.000122
    44  C   -0.208512  -0.000041
    45  C   -0.034972   0.000033
    46  C   -0.266037  -0.000005
    47  C    0.123410   0.000009
    48  C   -0.407092   0.000000
    49  C   -0.202261  -0.000000
    50  C   -0.249922   0.000000
    51  C   -0.200987   0.000000
    52  C    0.051051  -0.000000
    53  C   -0.410763  -0.000000
    54  C   -0.201579   0.000000
    55  C   -0.229610   0.000000
    56  C   -0.203886  -0.000000
    57  C    0.056009   0.000000
    58  C   -0.410047  -0.000000
    59  C   -0.200253  -0.000000
    60  C   -0.232897   0.000000
    61  C   -0.204110  -0.000000
    62  C    0.012582   0.000000
    63  C   -0.378394   0.000000
    64  C   -0.342319   0.000000
    65  H    0.169743  -0.001279
    66  H    0.205794   0.002170
    67  H    0.162446   0.004562
    68  H    0.147526   0.008667
    69  H    0.121224   0.005617
    70  H    0.147268   0.000694
    71  H    0.132779   0.000026
    72  H    0.147216  -0.000067
    73  H    0.138037  -0.000361
    74  H    0.144475  -0.000334
    75  H    0.136679   0.000003
    76  H    0.140344   0.000024
    77  H    0.161414   0.004025
    78  H    0.141447   0.000008
    79  H    0.153895   0.003331
    80  H    0.157583  -0.001120
    81  H    0.164599   0.000301
    82  H    0.159232   0.000530
    83  H    0.153151   0.004510
    84  H    0.139362  -0.000203
    85  H    0.154887   0.004094
    86  H    0.117726  -0.000477
    87  H    0.131168  -0.000348
    88  H    0.127031  -0.000031
    89  H    0.116356   0.000099
    90  H    0.142864   0.000299
    91  H    0.132954  -0.000073
    92  H    0.177140   0.001206
    93  H    0.175687   0.003916
    94  H    0.141925  -0.003455
    95  H    0.151839  -0.000007
    96  H    0.131275   0.000004
    97  H    0.157145  -0.000001
    98  H    0.123718   0.000007
    99  H    0.138376  -0.000003
   100  H    0.116752  -0.000000
   101  H    0.151209  -0.000000
   102  H    0.125027   0.000000
   103  H    0.147030   0.000001
   104  H    0.111754   0.000000
   105  H    0.102775   0.000000
   106  H    0.114810  -0.000000
   107  H    0.108489  -0.000000
   108  H    0.092747  -0.000000
   109  H    0.099030   0.000000
   110  H    0.063317   0.000000
   111  H    0.122278  -0.000000
   112  H    0.130164  -0.000000
   113  H    0.108964   0.000000
   114  H    0.091523   0.000000
   115  H    0.095924  -0.000000
   116  H    0.101116   0.000000
   117  H    0.093070  -0.000000
   118  H    0.091724  -0.000000
   119  H    0.095087  -0.000000
   120  H    0.061014  -0.000000
   121  H    0.121443  -0.000000
   122  H    0.128957   0.000000
   123  H    0.107951   0.000000
   124  H    0.092068   0.000000
   125  H    0.095995  -0.000000
   126  H    0.098889  -0.000000
   127  H    0.100148  -0.000000
   128  H    0.093024  -0.000000
   129  H    0.093449   0.000000
   130  H    0.065174  -0.000000
   131  H    0.104613  -0.000000
   132  H    0.118937   0.000000
   133  H    0.122318  -0.000000
   134  H    0.112777  -0.000000
   135  H    0.118645  -0.000000
   136  H    0.103889  -0.000000
   137  H    0.226571   0.000119
   138  H    0.235887   0.000409
 Sum of Mulliken charges =   1.00000   1.00000

 Dipole moment (field-independent basis, Debye):
    X=            -24.9815    Y=              8.1349    Z=              2.2806  Tot=             26.3714
 Quadrupole moment (field-independent basis, Debye-Ang):
   XX=           -151.7549   YY=           -295.2829   ZZ=           -348.2169
   XY=            -81.6057   XZ=             31.9204   YZ=              3.2747

 Normal termination of Gaussian 16 at Mon Nov 25 21:30:16 2019.
