 Gaussian 16, Revision A.03,
 Gaussian 16:  ES64L-G16RevA.03 25-Dec-2016

 --------------------------------------------------------
 # wB97XD/Def2TZVP iop(3/107=0100001000,3/108=0100001000)
 --------------------------------------------------------

 -----
 TITLE
 -----
 Symbolic Z-matrix:
 Charge = -1 Multiplicity = 2

                         Standard orientation:
 ---------------------------------------------------------------------
 Center     Atomic      Atomic             Coordinates (Angstroms)
 Number     Number       Type             X           Y           Z
 ---------------------------------------------------------------------
      1          8           0      -11.627510    0.890843    0.865736
      2          8           0      -13.492719   -2.416023   -1.164976
      3          8           0       10.635930   -0.478458   -2.335423
      4          8           0       14.502572   -1.165471   -0.353406
      5          6           0      -10.921714   -0.257145    0.385371
      6          6           0      -11.859920    0.490145   -0.493076
      7          6           0      -11.348699   -1.580354    1.051910
      8          6           0      -13.274308   -0.003678   -0.755038
      9          6           0      -12.890108   -1.673036    1.108417
     10          6           0      -13.635211   -1.384668   -0.191811
     11          6           0      -11.358930    1.467173   -1.530625
     12          6           0       -9.446719   -0.035930    0.279747
     13          6           0      -10.723353   -2.771660    0.299828
     14          6           0      -10.829624   -1.601599    2.501010
     15          6           0       -8.691501   -0.364508   -0.769619
     16          6           0       -7.244819   -0.153897   -0.902845
     17          6           0       -6.527831   -1.199796   -1.714337
     18          6           0       -6.646807    0.920084   -0.341238
     19          6           0       -5.244305    1.244240   -0.346623
     20          6           0       11.882904   -0.388411    1.300752
     21          6           0       11.673576   -0.326997   -1.369729
     22          6           0       12.597767   -1.744708    1.114584
     23          6           0       13.323789   -1.956950   -0.214318
     24          6           0       12.401093   -1.678551   -1.391354
     25          6           0       11.072861   -0.067873    0.032712
     26          6           0       10.949798   -0.509700    2.514719
     27          6           0       12.888845    0.741830    1.602307
     28          6           0       12.572288    0.835089   -1.813487
     29          6           0       -4.743933    2.361179    0.220814
     30          6           0        9.873054    0.434130    0.098434
     31          6           0       -3.344307    2.763653    0.287374
     32          6           0        8.654863    0.928530    0.102846
     33          6           0       -3.120742    4.245429    0.446110
     34          6           0       -2.340117    1.853606    0.226567
     35          6           0        7.422386    0.139937    0.091015
     36          6           0        7.572472   -1.352887    0.041478
     37          6           0        6.238216    0.795643    0.120401
     38          6           0       -0.928579    2.105899    0.230789
     39          6           0        4.918161    0.224641    0.114417
     40          6           0        0.006600    1.126589    0.189920
     41          6           0        3.791769    0.970404    0.149656
     42          6           0        1.417132    1.379755    0.185869
     43          6           0        2.431916    0.475022    0.146102
     44          6           0        2.216421   -1.012854    0.098255
     45          1           0      -13.465627   -0.018293   -1.828994
     46          1           0      -13.943978    0.749329   -0.330201
     47          1           0      -13.170176   -2.667082    1.463298
     48          1           0      -13.245059   -0.955977    1.851639
     49          1           0      -14.704010   -1.391887    0.025922
     50          1           0      -11.207362    0.965973   -2.488617
     51          1           0      -12.102474    2.253286   -1.679130
     52          1           0      -10.422503    1.927660   -1.227776
     53          1           0       -8.990235    0.414088    1.155315
     54          1           0       -9.658867   -2.851175    0.518165
     55          1           0      -11.203015   -3.705046    0.595049
     56          1           0      -10.801065   -2.679256   -0.786112
     57          1           0      -11.200381   -0.741369    3.059145
     58          1           0      -11.169022   -2.507442    3.007404
     59          1           0       -9.739214   -1.591267    2.534986
     60          1           0      -12.564320   -2.515160   -1.377931
     61          1           0       -9.169700   -0.861497   -1.610563
     62          1           0       -5.480836   -0.964955   -1.887310
     63          1           0       -6.580142   -2.174191   -1.221019
     64          1           0       -7.008423   -1.313759   -2.689710
     65          1           0       -7.287550    1.634513    0.166929
     66          1           0       -4.562446    0.561096   -0.839139
     67          1           0       13.296286   -1.895561    1.944709
     68          1           0       11.851624   -2.540629    1.197547
     69          1           0       13.608839   -3.015528   -0.269243
     70          1           0       12.957744   -1.769817   -2.325021
     71          1           0       11.629699   -2.450883   -1.398827
     72          1           0       11.526080   -0.782217    3.401395
     73          1           0       10.442944    0.433649    2.719533
     74          1           0       10.187954   -1.273199    2.354931
     75          1           0       13.637125    0.852017    0.823592
     76          1           0       12.363783    1.690939    1.717857
     77          1           0       13.410616    0.528276    2.538633
     78          1           0       12.884240    0.661505   -2.843821
     79          1           0       12.015920    1.773436   -1.769079
     80          1           0       13.464234    0.924365   -1.200562
     81          1           0       -5.453130    3.063899    0.652181
     82          1           0       10.050317    0.280966   -2.267459
     83          1           0       15.078060   -1.348904    0.390418
     84          1           0        8.541075    2.010225    0.123595
     85          1           0       -2.079505    4.506103    0.616202
     86          1           0       -3.464689    4.784179   -0.440769
     87          1           0       -3.700607    4.623850    1.291731
     88          1           0       -2.620126    0.805519    0.182941
     89          1           0        6.623111   -1.867494   -0.080555
     90          1           0        8.229365   -1.638395   -0.782430
     91          1           0        8.040477   -1.717479    0.959063
     92          1           0        6.275577    1.881386    0.154527
     93          1           0       -0.585066    3.134297    0.259851
     94          1           0        4.831948   -0.854268    0.082360
     95          1           0       -0.337139    0.098405    0.156219
     96          1           0        3.899174    2.051305    0.184077
     97          1           0        1.699215    2.428813    0.218960
     98          1           0        1.164298   -1.283404    0.101646
     99          1           0        2.667141   -1.438726   -0.801352
    100          1           0        2.687342   -1.498022    0.956513
 ---------------------------------------------------------------------

 SCF Done:  E(UwB97XD) =  -1859.10366338     A.U. after   20 cycles

 Alpha virt. eigenvalues --    0.56633   0.56770   0.57093   0.57162   0.57284
 Alpha virt. eigenvalues --    0.57482   0.57600   0.57752   0.57828   0.58009
 Alpha virt. eigenvalues --    0.58189   0.58390   0.58531   0.58678   0.58897

  Beta  occ. eigenvalues --  -19.15336 -19.14451 -19.14419 -19.12710 -10.23762
  Beta  occ. eigenvalues --  -10.23724 -10.23617 -10.23362 -10.23234 -10.20058
  Beta  occ. eigenvalues --  -10.20049 -10.18210 -10.18025 -10.17557 -10.17485
  Beta  occ. eigenvalues --  -10.17482 -10.17236 -10.16851 -10.16840 -10.16692
  Beta  occ. eigenvalues --  -10.16591 -10.16254 -10.16228 -10.15786 -10.15703
  Beta  occ. eigenvalues --  -10.15255 -10.15117 -10.14939 -10.14687 -10.14503
  Beta  occ. eigenvalues --  -10.14446 -10.14326 -10.13600 -10.13449 -10.13346
  Beta  occ. eigenvalues --  -10.13332 -10.13099 -10.13021 -10.12586 -10.12556
  Beta  occ. eigenvalues --  -10.12356 -10.12221 -10.12132 -10.11964  -1.06227
  Beta  occ. eigenvalues --   -1.02816  -1.01992  -1.00656  -0.83431  -0.82054
  Beta  occ. eigenvalues --   -0.79141  -0.79116  -0.77823  -0.77397  -0.77189
  Beta  occ. eigenvalues --   -0.76601  -0.75011  -0.74127  -0.73035  -0.72187
  Beta  occ. eigenvalues --   -0.71371  -0.69846  -0.68873  -0.68306  -0.67672
  Beta  occ. eigenvalues --   -0.67583  -0.67359  -0.66529  -0.64980  -0.64908
  Beta  occ. eigenvalues --   -0.64145  -0.63675  -0.61680  -0.61350  -0.60589
  Beta  occ. eigenvalues --   -0.57040  -0.56481  -0.56167  -0.55450  -0.54111
  Beta  occ. eigenvalues --   -0.52920  -0.50902  -0.50570  -0.49740  -0.49360
  Beta  occ. eigenvalues --   -0.48529  -0.48312  -0.47684  -0.47442  -0.46769
  Beta  occ. eigenvalues --   -0.46151  -0.45894  -0.45564  -0.45179  -0.44773
  Beta  occ. eigenvalues --   -0.44077  -0.43548  -0.43204  -0.42779  -0.42238
  Beta  occ. eigenvalues --   -0.41900  -0.41426  -0.41211  -0.40959  -0.40593
  Beta  occ. eigenvalues --   -0.40306  -0.40125  -0.39466  -0.39075  -0.39031
  Beta  occ. eigenvalues --   -0.38534  -0.38280  -0.37791  -0.37575  -0.37216
  Beta  occ. eigenvalues --   -0.36787  -0.36710  -0.36562  -0.36359  -0.36302
  Beta  occ. eigenvalues --   -0.36183  -0.35783  -0.35624  -0.35452  -0.35104
  Beta  occ. eigenvalues --   -0.34690  -0.34533  -0.34502  -0.34112  -0.33345
  Beta  occ. eigenvalues --   -0.33250  -0.33060  -0.33010  -0.32878  -0.32637
  Beta  occ. eigenvalues --   -0.32057  -0.31975  -0.31829  -0.31334  -0.31001
  Beta  occ. eigenvalues --   -0.30958  -0.30483  -0.30083  -0.29995  -0.29171
  Beta  occ. eigenvalues --   -0.28863  -0.27930  -0.27753  -0.27663  -0.27210
  Beta  occ. eigenvalues --   -0.27069  -0.26581  -0.26342  -0.25930  -0.25297
  Beta  occ. eigenvalues --   -0.24978  -0.24333  -0.24056  -0.23245  -0.21312
  Beta  occ. eigenvalues --   -0.20700  -0.17433  -0.14365  -0.09936
  Beta virt. eigenvalues --    0.06937   0.09629   0.13133   0.13587   0.14090
  Beta virt. eigenvalues --    0.14589   0.16210   0.16792   0.16929   0.17627
  Beta virt. eigenvalues --    0.17917   0.18484   0.18593   0.19063   0.19137

 Mulliken charges and spin densities:
               1          2
     1  O   -0.452770   0.001525
     2  O   -0.480830   0.000010
     3  O   -0.486801  -0.000225
     4  O   -0.495003  -0.000003
     5  C    0.357317  -0.005286
     6  C    0.197762   0.001824
     7  C    0.135860   0.002015
     8  C   -0.227018   0.000230
     9  C   -0.193743   0.000379
    10  C    0.183692  -0.000066
    11  C   -0.371232   0.000282
    12  C   -0.361634   0.091220
    13  C   -0.425385   0.000307
    14  C   -0.416014   0.000807
    15  C   -0.161989  -0.028975
    16  C    0.028092   0.141144
    17  C   -0.331670  -0.006651
    18  C   -0.113892  -0.044748
    19  C   -0.089490   0.141925
    20  C    0.181142   0.007926
    21  C    0.244434   0.008654
    22  C   -0.279510  -0.000048
    23  C    0.138729   0.000041
    24  C   -0.152179   0.000019
    25  C   -0.114530  -0.018217
    26  C   -0.336292  -0.000908
    27  C   -0.403707  -0.000472
    28  C   -0.361875  -0.000612
    29  C   -0.230668  -0.012907
    30  C   -0.071989   0.098120
    31  C    0.067593   0.135355
    32  C   -0.301642  -0.035414
    33  C   -0.329279  -0.004458
    34  C   -0.151034   0.009328
    35  C    0.123301   0.129215
    36  C   -0.311795  -0.005230
    37  C   -0.143765  -0.046447
    38  C   -0.120809   0.088660
    39  C   -0.132222   0.137965
    40  C   -0.144851   0.067819
    41  C   -0.180219  -0.012701
    42  C   -0.125705   0.027930
    43  C    0.081038   0.105550
    44  C   -0.369823  -0.003630
    45  H    0.097563  -0.000001
    46  H    0.090070   0.000125
    47  H    0.093804   0.000309
    48  H    0.100498  -0.000002
    49  H    0.043851  -0.000004
    50  H    0.100565   0.000095
    51  H    0.105747  -0.000054
    52  H    0.160528  -0.000007
    53  H    0.133385  -0.004379
    54  H    0.145884  -0.000017
    55  H    0.130808  -0.000091
    56  H    0.078405  -0.000047
    57  H    0.125938  -0.000027
    58  H    0.105826  -0.000034
    59  H    0.138803   0.000119
    60  H    0.298405   0.000010
    61  H    0.083835   0.003666
    62  H    0.108267   0.000951
    63  H    0.097894   0.005796
    64  H    0.089650   0.005265
    65  H    0.098322   0.001502
    66  H    0.081659  -0.007075
    67  H    0.094370   0.000474
    68  H    0.094582   0.000008
    69  H    0.043041  -0.000029
    70  H    0.087371   0.000562
    71  H    0.108434   0.000012
    72  H    0.098152   0.000085
    73  H    0.132384   0.000237
    74  H    0.118541   0.000266
    75  H    0.121374   0.000032
    76  H    0.116985   0.000182
    77  H    0.094468   0.000154
    78  H    0.103176   0.000153
    79  H    0.101656   0.000257
    80  H    0.115692   0.000055
    81  H    0.066916   0.002258
    82  H    0.325201   0.000242
    83  H    0.306617   0.000040
    84  H    0.098957   0.001700
    85  H    0.091962   0.001757
    86  H    0.099317   0.004749
    87  H    0.090506   0.004146
    88  H    0.078622  -0.000486
    89  H    0.104768   0.000309
    90  H    0.123573   0.004173
    91  H    0.091271   0.005592
    92  H    0.067139   0.001813
    93  H    0.056743  -0.003946
    94  H    0.096078  -0.006163
    95  H    0.054462  -0.003024
    96  H    0.063279  -0.000135
    97  H    0.061491  -0.000626
    98  H    0.103699  -0.000264
    99  H    0.105662   0.003992
   100  H    0.104207   0.004068
 Sum of Mulliken charges =  -1.00000   1.00000

 Dipole moment (field-independent basis, Debye):
    X=              2.1488    Y=             -3.8964    Z=              1.6139  Tot=              4.7333
 Quadrupole moment (field-independent basis, Debye-Ang):
   XX=           -540.7049   YY=           -278.8322   ZZ=           -285.9684
   XY=             -5.0167   XZ=             26.8903   YZ=             -6.8903

 Normal termination of Gaussian 16 at Fri Nov 22 18:17:54 2019.
