 Gaussian 16, Revision A.03,
 Gaussian 16:  ES64L-G16RevA.03 25-Dec-2016

 ----------------------
 #n wB97XD/Def2TZVP Opt
 ----------------------

 -------------
 neoxanthin-s0
 -------------
 Symbolic Z-matrix:
 Charge =  0 Multiplicity = 1

 SCF Done:  E(RwB97XD) =  -1858.81175228     A.U. after   14 cycles
 SCF Done:  E(RwB97XD) =  -1858.81196280     A.U. after   14 cycles
 SCF Done:  E(RwB97XD) =  -1858.81041216     A.U. after   13 cycles
 SCF Done:  E(RwB97XD) =  -1858.81313433     A.U. after   13 cycles
 SCF Done:  E(RwB97XD) =  -1858.81326230     A.U. after   11 cycles
 SCF Done:  E(RwB97XD) =  -1858.81329604     A.U. after   13 cycles
 SCF Done:  E(RwB97XD) =  -1858.81338889     A.U. after   11 cycles
 SCF Done:  E(RwB97XD) =  -1858.81342486     A.U. after   12 cycles
 SCF Done:  E(RwB97XD) =  -1858.81345241     A.U. after   11 cycles
 SCF Done:  E(RwB97XD) =  -1858.81348489     A.U. after   11 cycles
 SCF Done:  E(RwB97XD) =  -1858.81358781     A.U. after   11 cycles
 SCF Done:  E(RwB97XD) =  -1858.81359188     A.U. after   10 cycles
 SCF Done:  E(RwB97XD) =  -1858.81359465     A.U. after    9 cycles
 SCF Done:  E(RwB97XD) =  -1858.81359645     A.U. after    9 cycles
 SCF Done:  E(RwB97XD) =  -1858.81359715     A.U. after    8 cycles
 SCF Done:  E(RwB97XD) =  -1858.81359761     A.U. after    8 cycles
 SCF Done:  E(RwB97XD) =  -1858.81359775     A.U. after    8 cycles
 SCF Done:  E(RwB97XD) =  -1858.81359785     A.U. after    7 cycles
 SCF Done:  E(RwB97XD) =  -1858.81359788     A.U. after    7 cycles
 SCF Done:  E(RwB97XD) =  -1858.81359785     A.U. after    6 cycles
 Optimization completed.
    -- Stationary point found.

                         Standard orientation:
 ---------------------------------------------------------------------
 Center     Atomic      Atomic             Coordinates (Angstroms)
 Number     Number       Type             X           Y           Z
 ---------------------------------------------------------------------
      1          8           0      -11.559673    0.752180    0.977815
      2          8           0      -13.314513   -2.480003   -1.208218
      3          8           0       10.519603   -0.564002   -2.316873
      4          8           0       14.321096   -1.425875   -0.323146
      5          6           0      -10.832804   -0.339974    0.421905
      6          6           0      -11.807566    0.422401   -0.392067
      7          6           0      -11.201529   -1.705211    1.020108
      8          6           0      -13.207570   -0.099711   -0.653255
      9          6           0      -12.732594   -1.854313    1.094865
     10          6           0      -13.501548   -1.522444   -0.175854
     11          6           0      -11.358633    1.468033   -1.379534
     12          6           0       -9.370249   -0.073574    0.293179
     13          6           0      -10.548730   -2.828416    0.198244
     14          6           0      -10.659993   -1.780062    2.453298
     15          6           0       -8.651018   -0.300520   -0.800668
     16          6           0       -7.211514   -0.050349   -0.955656
     17          6           0       -6.493234   -1.048015   -1.819013
     18          6           0       -6.632745    1.008444   -0.365103
     19          6           0       -5.232233    1.364787   -0.388498
     20          6           0       11.795459   -0.390560    1.290772
     21          6           0       11.571612   -0.444837   -1.369186
     22          6           0       12.399918   -1.801236    1.171847
     23          6           0       13.097817   -2.128796   -0.143745
     24          6           0       12.191678   -1.843340   -1.327009
     25          6           0       11.005786   -0.076327    0.015630
     26          6           0       10.866793   -0.378288    2.507910
     27          6           0       12.884547    0.668304    1.530602
     28          6           0       12.550214    0.617030   -1.873483
     29          6           0       -4.745091    2.455426    0.219687
     30          6           0        9.842769    0.502731    0.062084
     31          6           0       -3.343114    2.870741    0.262381
     32          6           0        8.644235    1.031767    0.051084
     33          6           0       -3.131548    4.355689    0.360629
     34          6           0       -2.346511    1.965155    0.231225
     35          6           0        7.400390    0.256261    0.080117
     36          6           0        7.542774   -1.235574    0.079369
     37          6           0        6.229437    0.919025    0.096626
     38          6           0       -0.928819    2.223535    0.217163
     39          6           0        4.901903    0.352202    0.121945
     40          6           0       -0.000791    1.250123    0.205527
     41          6           0        3.788267    1.102240    0.140931
     42          6           0        1.415735    1.508209    0.182053
     43          6           0        2.422029    0.608239    0.165815
     44          6           0        2.212719   -0.877924    0.170937
     45          1           0      -13.424879   -0.052102   -1.721884
     46          1           0      -13.890011    0.600206   -0.162231
     47          1           0      -12.971950   -2.876252    1.397713
     48          1           0      -13.099628   -1.189987    1.880822
     49          1           0      -14.567470   -1.593286    0.046225
     50          1           0      -11.196333    1.021446   -2.363054
     51          1           0      -12.136536    2.228356   -1.481110
     52          1           0      -10.438265    1.950176   -1.060277
     53          1           0       -8.891254    0.313423    1.187613
     54          1           0       -9.482931   -2.896456    0.416469
     55          1           0      -11.009284   -3.789278    0.430303
     56          1           0      -10.622590   -2.667170   -0.880311
     57          1           0      -11.050726   -0.959436    3.056901
     58          1           0      -10.962568   -2.720826    2.918678
     59          1           0       -9.569647   -1.735121    2.471571
     60          1           0      -12.387075   -2.507802   -1.445151
     61          1           0       -9.148877   -0.734324   -1.666184
     62          1           0       -5.449855   -0.795481   -1.990961
     63          1           0       -6.533600   -2.043556   -1.368615
     64          1           0       -6.984163   -1.121711   -2.793289
     65          1           0       -7.277234    1.685635    0.188653
     66          1           0       -4.546290    0.723899   -0.931187
     67          1           0       13.090757   -1.963257    2.006975
     68          1           0       11.594565   -2.532416    1.294978
     69          1           0       13.310186   -3.205715   -0.148363
     70          1           0       12.733588   -2.021182   -2.257471
     71          1           0       11.362608   -2.553598   -1.292615
     72          1           0       11.426946   -0.653986    3.404320
     73          1           0       10.438207    0.611908    2.667861
     74          1           0       10.044535   -1.085295    2.386519
     75          1           0       13.635400    0.679385    0.746191
     76          1           0       12.433672    1.659864    1.597824
     77          1           0       13.392022    0.462215    2.476928
     78          1           0       12.835014    0.368604   -2.896702
     79          1           0       12.067625    1.596972   -1.870423
     80          1           0       13.453534    0.664663   -1.272154
     81          1           0       -5.451284    3.125329    0.706512
     82          1           0        9.995849    0.241870   -2.292057
     83          1           0       14.889692   -1.608946    0.426318
     84          1           0        8.549919    2.114655    0.024226
     85          1           0       -2.089215    4.633064    0.496752
     86          1           0       -3.503466    4.855994   -0.537362
     87          1           0       -3.697436    4.757894    1.205109
     88          1           0       -2.624307    0.914879    0.229134
     89          1           0        6.587835   -1.750111    0.009501
     90          1           0        8.171707   -1.551115   -0.756359
     91          1           0        8.043441   -1.567633    0.992552
     92          1           0        6.271555    2.005617    0.092047
     93          1           0       -0.588444    3.253935    0.206608
     94          1           0        4.810741   -0.727270    0.127335
     95          1           0       -0.342075    0.220089    0.211480
     96          1           0        3.898648    2.183961    0.137102
     97          1           0        1.693592    2.559445    0.176327
     98          1           0        1.161662   -1.152861    0.192144
     99          1           0        2.659960   -1.331126   -0.717209
    100          1           0        2.694532   -1.329804    1.041474
 ---------------------------------------------------------------------

 The electronic state is 1-A.
 Alpha  occ. eigenvalues --  -19.25593 -19.25263 -19.24304 -19.24002 -10.34757
 Alpha  occ. eigenvalues --  -10.34635 -10.34545 -10.33867 -10.33192 -10.31041
 Alpha  occ. eigenvalues --  -10.30612 -10.30289 -10.30074 -10.30020 -10.29879
 Alpha  occ. eigenvalues --  -10.29612 -10.29550 -10.29405 -10.29112 -10.29080
 Alpha  occ. eigenvalues --  -10.29036 -10.28958 -10.28925 -10.28842 -10.28708
 Alpha  occ. eigenvalues --  -10.28644 -10.28597 -10.28594 -10.28588 -10.28558
 Alpha  occ. eigenvalues --  -10.28435 -10.28362 -10.28174 -10.28100 -10.28059
 Alpha  occ. eigenvalues --  -10.28024 -10.27654 -10.27616 -10.27583 -10.27498
 Alpha  occ. eigenvalues --  -10.27165 -10.27110 -10.26987 -10.26237  -1.18215
 Alpha  occ. eigenvalues --   -1.13309  -1.12467  -1.12371  -0.95530  -0.94778
 Alpha  occ. eigenvalues --   -0.94315  -0.93696  -0.93091  -0.92571  -0.89870
 Alpha  occ. eigenvalues --   -0.88969  -0.88591  -0.88094  -0.87255  -0.85650
 Alpha  occ. eigenvalues --   -0.84821  -0.83536  -0.83007  -0.80737  -0.79488
 Alpha  occ. eigenvalues --   -0.79341  -0.79222  -0.78697  -0.78572  -0.78473
 Alpha  occ. eigenvalues --   -0.78308  -0.77100  -0.76199  -0.73067  -0.72559
 Alpha  occ. eigenvalues --   -0.71314  -0.69400  -0.67946  -0.67372  -0.67077
 Alpha  occ. eigenvalues --   -0.65907  -0.64726  -0.63480  -0.62931  -0.62413
 Alpha  occ. eigenvalues --   -0.61618  -0.61277  -0.60619  -0.60328  -0.59479
 Alpha  occ. eigenvalues --   -0.58426  -0.58094  -0.57739  -0.57170  -0.57038
 Alpha  occ. eigenvalues --   -0.56250  -0.56101  -0.55546  -0.54797  -0.54369
 Alpha  occ. eigenvalues --   -0.54127  -0.54016  -0.52626  -0.52398  -0.52264
 Alpha  occ. eigenvalues --   -0.51881  -0.51802  -0.51663  -0.51169  -0.51108
 Alpha  occ. eigenvalues --   -0.51066  -0.50753  -0.50578  -0.50398  -0.49808
 Alpha  occ. eigenvalues --   -0.49384  -0.49286  -0.48798  -0.48760  -0.48052
 Alpha  occ. eigenvalues --   -0.47735  -0.47216  -0.47077  -0.46869  -0.46808
 Alpha  occ. eigenvalues --   -0.46639  -0.46411  -0.46265  -0.45849  -0.45634
 Alpha  occ. eigenvalues --   -0.45345  -0.45133  -0.44897  -0.44781  -0.44493
 Alpha  occ. eigenvalues --   -0.44026  -0.43570  -0.43272  -0.43087  -0.43039
 Alpha  occ. eigenvalues --   -0.42741  -0.42642  -0.42418  -0.42121  -0.42000
 Alpha  occ. eigenvalues --   -0.41765  -0.41578  -0.41246  -0.41131  -0.40547
 Alpha  occ. eigenvalues --   -0.40359  -0.38953  -0.38168  -0.37298  -0.36980
 Alpha  occ. eigenvalues --   -0.35790  -0.35583  -0.35115  -0.34876  -0.34340
 Alpha  occ. eigenvalues --   -0.32748  -0.31166  -0.28038  -0.24315
 Alpha virt. eigenvalues --   -0.02325   0.01504   0.05130   0.08089   0.08319
 Alpha virt. eigenvalues --    0.08959   0.08993   0.10808   0.11111   0.11242
 Alpha virt. eigenvalues --    0.11577   0.11774   0.12020   0.12365   0.12495

 Mulliken charges:
               1
     1  O   -0.409230
     2  O   -0.450330
     3  O   -0.457153
     4  O   -0.471580
     5  C    0.326634
     6  C    0.152459
     7  C    0.153996
     8  C   -0.258659
     9  C   -0.223497
    10  C    0.120605
    11  C   -0.382201
    12  C   -0.310088
    13  C   -0.437511
    14  C   -0.444235
    15  C   -0.172929
    16  C    0.065229
    17  C   -0.358756
    18  C   -0.135507
    19  C   -0.054732
    20  C    0.228038
    21  C    0.237783
    22  C   -0.322152
    23  C    0.086718
    24  C   -0.190862
    25  C   -0.094724
    26  C   -0.369061
    27  C   -0.432123
    28  C   -0.385936
    29  C   -0.223262
    30  C   -0.066207
    31  C    0.106070
    32  C   -0.328177
    33  C   -0.356316
    34  C   -0.161470
    35  C    0.181009
    36  C   -0.319705
    37  C   -0.189740
    38  C   -0.090315
    39  C   -0.053951
    40  C   -0.125104
    41  C   -0.208424
    42  C   -0.130093
    43  C    0.123157
    44  C   -0.387764
    45  H    0.118854
    46  H    0.115715
    47  H    0.115406
    48  H    0.118146
    49  H    0.086504
    50  H    0.114268
    51  H    0.130821
    52  H    0.146435
    53  H    0.152261
    54  H    0.134600
    55  H    0.152167
    56  H    0.083096
    57  H    0.141569
    58  H    0.127318
    59  H    0.132109
    60  H    0.291727
    61  H    0.114724
    62  H    0.114588
    63  H    0.129627
    64  H    0.125973
    65  H    0.128358
    66  H    0.102581
    67  H    0.121274
    68  H    0.108722
    69  H    0.080118
    70  H    0.116747
    71  H    0.121194
    72  H    0.121552
    73  H    0.136860
    74  H    0.114338
    75  H    0.130324
    76  H    0.125329
    77  H    0.116259
    78  H    0.126031
    79  H    0.108405
    80  H    0.127868
    81  H    0.109803
    82  H    0.318936
    83  H    0.310796
    84  H    0.126387
    85  H    0.110744
    86  H    0.133138
    87  H    0.125338
    88  H    0.110648
    89  H    0.114393
    90  H    0.142084
    91  H    0.114253
    92  H    0.098314
    93  H    0.090467
    94  H    0.110060
    95  H    0.085482
    96  H    0.098313
    97  H    0.100625
    98  H    0.119105
    99  H    0.135166
   100  H    0.134173
 Sum of Mulliken charges =  -0.00000

 Dipole moment (field-independent basis, Debye):
    X=              2.0910    Y=             -0.5897    Z=              1.5574  Tot=              2.6731
 Quadrupole moment (field-independent basis, Debye-Ang):
   XX=           -279.1829   YY=           -259.5751   ZZ=           -278.1450
   XY=            -13.4185   XZ=             31.2526   YZ=             -7.0674

 Normal termination of Gaussian 16 at Wed Nov  6 07:35:32 2019.
