 Gaussian 16, Revision A.03,
 Gaussian 16:  ES64L-G16RevA.03 25-Dec-2016

 ------------------------------------------------------------
 # wB97XD/Def2TZVP iop(3/107=0100001000,3/108=0100001000) opt
 ------------------------------------------------------------

 -----
 TITLE
 -----
 Symbolic Z-matrix:
 Charge =  0 Multiplicity = 1

 SCF Done:  E(RwB97XD) =  -1859.06225995     A.U. after   15 cycles
 SCF Done:  E(RwB97XD) =  -1859.06323978     A.U. after   13 cycles
 SCF Done:  E(RwB97XD) =  -1859.06326586     A.U. after   12 cycles
 SCF Done:  E(RwB97XD) =  -1859.06342505     A.U. after   12 cycles
 SCF Done:  E(RwB97XD) =  -1859.06350732     A.U. after   11 cycles
 SCF Done:  E(RwB97XD) =  -1859.06351582     A.U. after   11 cycles
 SCF Done:  E(RwB97XD) =  -1859.06351991     A.U. after   11 cycles
 SCF Done:  E(RwB97XD) =  -1859.06353351     A.U. after   11 cycles
 SCF Done:  E(RwB97XD) =  -1859.06353525     A.U. after    9 cycles
 SCF Done:  E(RwB97XD) =  -1859.06353762     A.U. after    8 cycles
 SCF Done:  E(RwB97XD) =  -1859.06353798     A.U. after    9 cycles
 SCF Done:  E(RwB97XD) =  -1859.06353808     A.U. after    9 cycles
 SCF Done:  E(RwB97XD) =  -1859.06353829     A.U. after    7 cycles
 SCF Done:  E(RwB97XD) =  -1859.06353840     A.U. after    7 cycles
 SCF Done:  E(RwB97XD) =  -1859.06353850     A.U. after    7 cycles
 SCF Done:  E(RwB97XD) =  -1859.06353858     A.U. after    6 cycles
 SCF Done:  E(RwB97XD) =  -1859.06353866     A.U. after    6 cycles
 SCF Done:  E(RwB97XD) =  -1859.06353868     A.U. after    6 cycles
 SCF Done:  E(RwB97XD) =  -1859.06353872     A.U. after    6 cycles
 Optimization completed.
    -- Stationary point found.

                         Standard orientation:
 ---------------------------------------------------------------------
 Center     Atomic      Atomic             Coordinates (Angstroms)
 Number     Number       Type             X           Y           Z
 ---------------------------------------------------------------------
      1          8           0      -11.627510    0.890843    0.865736
      2          8           0      -13.492719   -2.416023   -1.164976
      3          8           0       10.635930   -0.478458   -2.335423
      4          8           0       14.502572   -1.165471   -0.353406
      5          6           0      -10.921714   -0.257145    0.385371
      6          6           0      -11.859920    0.490145   -0.493076
      7          6           0      -11.348699   -1.580354    1.051910
      8          6           0      -13.274308   -0.003678   -0.755038
      9          6           0      -12.890108   -1.673036    1.108417
     10          6           0      -13.635211   -1.384668   -0.191811
     11          6           0      -11.358930    1.467173   -1.530625
     12          6           0       -9.446719   -0.035930    0.279747
     13          6           0      -10.723353   -2.771660    0.299828
     14          6           0      -10.829624   -1.601599    2.501010
     15          6           0       -8.691501   -0.364508   -0.769619
     16          6           0       -7.244819   -0.153897   -0.902845
     17          6           0       -6.527831   -1.199796   -1.714337
     18          6           0       -6.646807    0.920084   -0.341238
     19          6           0       -5.244305    1.244240   -0.346623
     20          6           0       11.882904   -0.388411    1.300752
     21          6           0       11.673576   -0.326997   -1.369729
     22          6           0       12.597767   -1.744708    1.114584
     23          6           0       13.323789   -1.956950   -0.214318
     24          6           0       12.401093   -1.678551   -1.391354
     25          6           0       11.072861   -0.067873    0.032712
     26          6           0       10.949798   -0.509700    2.514719
     27          6           0       12.888845    0.741830    1.602307
     28          6           0       12.572288    0.835089   -1.813487
     29          6           0       -4.743933    2.361179    0.220814
     30          6           0        9.873054    0.434130    0.098434
     31          6           0       -3.344307    2.763653    0.287374
     32          6           0        8.654863    0.928530    0.102846
     33          6           0       -3.120742    4.245429    0.446110
     34          6           0       -2.340117    1.853606    0.226567
     35          6           0        7.422386    0.139937    0.091015
     36          6           0        7.572472   -1.352887    0.041478
     37          6           0        6.238216    0.795643    0.120401
     38          6           0       -0.928579    2.105899    0.230789
     39          6           0        4.918161    0.224641    0.114417
     40          6           0        0.006600    1.126589    0.189920
     41          6           0        3.791769    0.970404    0.149656
     42          6           0        1.417132    1.379755    0.185869
     43          6           0        2.431916    0.475022    0.146102
     44          6           0        2.216421   -1.012854    0.098255
     45          1           0      -13.465627   -0.018293   -1.828994
     46          1           0      -13.943978    0.749329   -0.330201
     47          1           0      -13.170176   -2.667082    1.463298
     48          1           0      -13.245059   -0.955977    1.851639
     49          1           0      -14.704010   -1.391887    0.025922
     50          1           0      -11.207362    0.965973   -2.488617
     51          1           0      -12.102474    2.253286   -1.679130
     52          1           0      -10.422503    1.927660   -1.227776
     53          1           0       -8.990235    0.414088    1.155315
     54          1           0       -9.658867   -2.851175    0.518165
     55          1           0      -11.203015   -3.705046    0.595049
     56          1           0      -10.801065   -2.679256   -0.786112
     57          1           0      -11.200381   -0.741369    3.059145
     58          1           0      -11.169022   -2.507442    3.007404
     59          1           0       -9.739214   -1.591267    2.534986
     60          1           0      -12.564320   -2.515160   -1.377931
     61          1           0       -9.169700   -0.861497   -1.610563
     62          1           0       -5.480836   -0.964955   -1.887310
     63          1           0       -6.580142   -2.174191   -1.221019
     64          1           0       -7.008423   -1.313759   -2.689710
     65          1           0       -7.287550    1.634513    0.166929
     66          1           0       -4.562446    0.561096   -0.839139
     67          1           0       13.296286   -1.895561    1.944709
     68          1           0       11.851624   -2.540629    1.197547
     69          1           0       13.608839   -3.015528   -0.269243
     70          1           0       12.957744   -1.769817   -2.325021
     71          1           0       11.629699   -2.450883   -1.398827
     72          1           0       11.526080   -0.782217    3.401395
     73          1           0       10.442944    0.433649    2.719533
     74          1           0       10.187954   -1.273199    2.354931
     75          1           0       13.637125    0.852017    0.823592
     76          1           0       12.363783    1.690939    1.717857
     77          1           0       13.410616    0.528276    2.538633
     78          1           0       12.884240    0.661505   -2.843821
     79          1           0       12.015920    1.773436   -1.769079
     80          1           0       13.464234    0.924365   -1.200562
     81          1           0       -5.453130    3.063899    0.652181
     82          1           0       10.050317    0.280966   -2.267459
     83          1           0       15.078060   -1.348904    0.390418
     84          1           0        8.541075    2.010225    0.123595
     85          1           0       -2.079505    4.506103    0.616202
     86          1           0       -3.464689    4.784179   -0.440769
     87          1           0       -3.700607    4.623850    1.291731
     88          1           0       -2.620126    0.805519    0.182941
     89          1           0        6.623111   -1.867494   -0.080555
     90          1           0        8.229365   -1.638395   -0.782430
     91          1           0        8.040477   -1.717479    0.959063
     92          1           0        6.275577    1.881386    0.154527
     93          1           0       -0.585066    3.134297    0.259851
     94          1           0        4.831948   -0.854268    0.082360
     95          1           0       -0.337139    0.098405    0.156219
     96          1           0        3.899174    2.051305    0.184077
     97          1           0        1.699215    2.428813    0.218960
     98          1           0        1.164298   -1.283404    0.101646
     99          1           0        2.667141   -1.438726   -0.801352
    100          1           0        2.687342   -1.498022    0.956513
 ---------------------------------------------------------------------

 The electronic state is 1-A.
 Alpha  occ. eigenvalues --  -19.20995 -19.20648 -19.19719 -19.19386 -10.30357
 Alpha  occ. eigenvalues --  -10.30157 -10.30106 -10.29389 -10.28741 -10.26691
 Alpha  occ. eigenvalues --  -10.26277 -10.25844 -10.25662 -10.25618 -10.25479
 Alpha  occ. eigenvalues --  -10.25187 -10.25097 -10.24875 -10.24610 -10.24565
 Alpha  occ. eigenvalues --  -10.24558 -10.24507 -10.24469 -10.24401 -10.24255
 Alpha  occ. eigenvalues --  -10.24182 -10.24167 -10.24131 -10.24112 -10.24095
 Alpha  occ. eigenvalues --  -10.24039 -10.23950 -10.23697 -10.23646 -10.23592
 Alpha  occ. eigenvalues --  -10.23587 -10.23211 -10.23168 -10.23120 -10.23069
 Alpha  occ. eigenvalues --  -10.22693 -10.22622 -10.22534 -10.21796  -1.12820
 Alpha  occ. eigenvalues --   -1.08190  -1.07339  -1.07282  -0.90204  -0.89589
 Alpha  occ. eigenvalues --   -0.89142  -0.88484  -0.87891  -0.87402  -0.84778
 Alpha  occ. eigenvalues --   -0.83814  -0.83441  -0.82998  -0.82170  -0.80606
 Alpha  occ. eigenvalues --   -0.79803  -0.78525  -0.78017  -0.75912  -0.74571
 Alpha  occ. eigenvalues --   -0.74406  -0.74314  -0.73840  -0.73634  -0.73542
 Alpha  occ. eigenvalues --   -0.73419  -0.72176  -0.71295  -0.68270  -0.67740
 Alpha  occ. eigenvalues --   -0.66607  -0.64762  -0.63252  -0.62604  -0.62364
 Alpha  occ. eigenvalues --   -0.61330  -0.60095  -0.58882  -0.58366  -0.57861
 Alpha  occ. eigenvalues --   -0.56954  -0.56648  -0.56078  -0.55764  -0.54811
 Alpha  occ. eigenvalues --   -0.53911  -0.53563  -0.53121  -0.52691  -0.52381
 Alpha  occ. eigenvalues --   -0.51714  -0.51551  -0.51101  -0.50270  -0.49893
 Alpha  occ. eigenvalues --   -0.49733  -0.49578  -0.48175  -0.48015  -0.47924
 Alpha  occ. eigenvalues --   -0.47471  -0.47397  -0.47266  -0.46845  -0.46782
 Alpha  occ. eigenvalues --   -0.46713  -0.46426  -0.46320  -0.46112  -0.45588
 Alpha  occ. eigenvalues --   -0.45096  -0.44982  -0.44593  -0.44475  -0.43920
 Alpha  occ. eigenvalues --   -0.43588  -0.43056  -0.42967  -0.42712  -0.42667
 Alpha  occ. eigenvalues --   -0.42537  -0.42296  -0.42061  -0.41764  -0.41529
 Alpha  occ. eigenvalues --   -0.41261  -0.41052  -0.40812  -0.40706  -0.40483
 Alpha  occ. eigenvalues --   -0.40023  -0.39603  -0.39270  -0.39085  -0.38858
 Alpha  occ. eigenvalues --   -0.38704  -0.38642  -0.38446  -0.38233  -0.38013
 Alpha  occ. eigenvalues --   -0.37854  -0.37664  -0.37241  -0.37048  -0.36472
 Alpha  occ. eigenvalues --   -0.36380  -0.35060  -0.34241  -0.33337  -0.33151
 Alpha  occ. eigenvalues --   -0.31701  -0.31624  -0.31097  -0.30879  -0.30488
 Alpha  occ. eigenvalues --   -0.29036  -0.27825  -0.24821  -0.21188
 Alpha virt. eigenvalues --   -0.04261  -0.00411   0.03103   0.06113   0.06215
 Alpha virt. eigenvalues --    0.08490   0.08586   0.09176   0.10450   0.10547
 Alpha virt. eigenvalues --    0.10739   0.11075   0.11340   0.11572   0.11767

 Mulliken charges:
               1
     1  O   -0.443353
     2  O   -0.470784
     3  O   -0.480128
     4  O   -0.492643
     5  C    0.342183
     6  C    0.192959
     7  C    0.116815
     8  C   -0.234377
     9  C   -0.199042
    10  C    0.176024
    11  C   -0.369546
    12  C   -0.328661
    13  C   -0.425221
    14  C   -0.411024
    15  C   -0.154398
    16  C    0.058308
    17  C   -0.327425
    18  C   -0.127890
    19  C   -0.041504
    20  C    0.162200
    21  C    0.228086
    22  C   -0.282262
    23  C    0.132852
    24  C   -0.153675
    25  C   -0.083929
    26  C   -0.343622
    27  C   -0.400185
    28  C   -0.357817
    29  C   -0.213578
    30  C   -0.061783
    31  C    0.085000
    32  C   -0.299839
    33  C   -0.327075
    34  C   -0.131445
    35  C    0.154079
    36  C   -0.305645
    37  C   -0.165558
    38  C   -0.096414
    39  C   -0.062178
    40  C   -0.121008
    41  C   -0.191707
    42  C   -0.111531
    43  C    0.102415
    44  C   -0.366492
    45  H    0.106879
    46  H    0.102247
    47  H    0.105595
    48  H    0.108837
    49  H    0.057974
    50  H    0.107349
    51  H    0.122014
    52  H    0.145390
    53  H    0.143540
    54  H    0.135495
    55  H    0.145112
    56  H    0.081398
    57  H    0.133668
    58  H    0.119133
    59  H    0.127433
    60  H    0.295188
    61  H    0.108299
    62  H    0.106173
    63  H    0.121759
    64  H    0.116779
    65  H    0.121951
    66  H    0.096621
    67  H    0.109261
    68  H    0.096976
    69  H    0.057112
    70  H    0.102061
    71  H    0.109714
    72  H    0.114761
    73  H    0.132806
    74  H    0.115047
    75  H    0.129224
    76  H    0.118506
    77  H    0.108428
    78  H    0.117171
    79  H    0.102073
    80  H    0.124859
    81  H    0.100991
    82  H    0.322340
    83  H    0.312187
    84  H    0.114725
    85  H    0.103833
    86  H    0.125141
    87  H    0.117230
    88  H    0.100115
    89  H    0.105574
    90  H    0.143410
    91  H    0.114632
    92  H    0.090328
    93  H    0.085720
    94  H    0.117850
    95  H    0.080811
    96  H    0.089737
    97  H    0.091621
    98  H    0.111205
    99  H    0.128791
   100  H    0.127743
 Sum of Mulliken charges =  -0.00000

 Dipole moment (field-independent basis, Debye):
    X=              2.1151    Y=             -0.7648    Z=              1.6291  Tot=              2.7772
 Quadrupole moment (field-independent basis, Debye-Ang):
   XX=           -277.3141   YY=           -256.9054   ZZ=           -275.5362
   XY=            -13.2347   XZ=             31.0556   YZ=             -5.6544

 Normal termination of Gaussian 16 at Fri Nov 22 15:45:45 2019.
