 Gaussian 09, Revision D.01,
 Gaussian 09:  ES64L-G09RevD.01 24-Apr-2013

 ----------------------------------------------------------------------
 # td=(NStates=1) iop(3/107=0140000000,3/108=0140000000) iop(3/107=0140
 000000,3/108=0140000000) CAM-B3LYP/6-31G(d,p)
 ----------------------------------------------------------------------

 --
 TD
 --
 Symbolic Z-matrix:
 Charge =  0 Multiplicity = 1

                         Standard orientation:
 ---------------------------------------------------------------------
 Center     Atomic      Atomic             Coordinates (Angstroms)
 Number     Number       Type             X           Y           Z
 ---------------------------------------------------------------------
      1         12           0       -5.566966    1.247742    0.179001
      2          6           0       -4.990054   -2.089673   -0.354706
      3          6           0       -3.344384    1.163764    2.728297
      4          6           0       -6.183391    4.622748    0.722382
      5          6           0       -7.922640    1.242989   -2.397818
      6          7           0       -4.270236   -0.267073    1.058279
      7          6           0       -4.216990   -1.648440    0.640984
      8          6           0       -3.190117   -2.401164    1.500841
      9          6           0       -2.940601   -1.358589    2.617062
     10          6           0       -3.586546   -0.100416    2.133322
     11          6           0       -3.584580   -1.845899    3.902183
     12          6           0       -2.017486   -2.725189    0.620147
     13          6           0       -1.038711   -3.645715    1.310603
     14          6           0        0.281995   -3.966944    0.640727
     15          8           0        0.453002   -3.529378   -0.511613
     16          8           0        1.134426   -4.811672    1.287299
     17          7           0       -4.793511    2.581422    1.510887
     18          6           0       -3.907533    2.387800    2.528986
     19          6           0       -3.604065    3.703481    3.229267
     20          6           0       -4.377483    4.592748    2.573558
     21          6           0       -5.186733    3.905555    1.562811
     22          6           0       -2.748850    3.774606    4.428506
     23          6           0       -4.646036    5.993641    3.068802
     24          8           0       -3.984192    6.559380    3.905619
     25          7           0       -6.816278    2.702955   -0.690501
     26          6           0       -6.958259    3.980147   -0.270153
     27          6           0       -7.955300    4.648765   -1.172685
     28          6           0       -8.462368    3.610813   -2.040528
     29          6           0       -7.749300    2.468739   -1.675139
     30          6           0       -8.221160    6.044674   -1.240501
     31          6           0       -9.341890    3.974303   -3.252020
     32          6           0       -8.517901    4.118003   -4.593287
     33          7           0       -6.357983   -0.113350   -1.154033
     34          6           0       -7.310875    0.026832   -2.097161
     35          6           0       -7.603999   -1.327193   -2.737446
     36          6           0       -6.650526   -2.185839   -2.116926
     37          6           0       -5.945280   -1.366064   -1.159078
     38          6           0       -8.652455   -1.617986   -3.790681
     39          6           0       -6.260796   -3.541908   -2.029723
     40          8           0       -6.643270   -4.477421   -2.686459
     41          6           0       -5.111108   -3.501734   -0.939164
     42          6           0       -5.335403   -4.640821    0.175154
     43          8           0       -5.765281   -4.417805    1.277209
     44          8           0       -5.137281   -5.825270   -0.415376
     45          6           0       -5.459083   -7.028881    0.261758
     46          6           0        2.407966   -5.190423    0.595514
     47          6           0        3.491804   -4.269740    0.952160
     48          6           0        4.073109   -3.239468    0.228021
     49          6           0        3.695414   -3.129082   -1.298447
     50          6           0        5.173711   -2.411145    0.851987
     51          6           0        6.540052   -2.741227    0.257545
     52          6           0        7.647771   -1.832324    0.664643
     53          6           0        8.970645   -2.007975    0.056479
     54          6           0        9.661659   -3.307640    0.275854
     55          6           0        9.938432   -0.727059    0.441646
     56          6           0       11.269392   -0.887973   -0.206530
     57          6           0       12.181474    0.284633    0.167887
     58          6           0       13.388077    0.546802   -0.694165
     59          6           0       14.388959   -0.671225   -0.529467
     60          6           0       14.194822    1.817291   -0.187500
     61          6           0       15.412608    2.121945   -1.039399
     62          6           0       15.948909    3.630370   -0.757724
     63          6           0       17.312232    3.900506   -1.415332
     64          6           0       17.036012    4.012394   -2.885477
     65          6           0       17.780216    5.088827   -0.755614
     66          1           0       -2.489274    1.037043    3.397824
     67          1           0       -6.286819    5.512594    0.897733
     68          1           0       -8.795491    1.169713   -3.066769
     69          1           0       -3.715823   -3.212277    1.790076
     70          1           0       -1.990887   -1.222164    2.802452
     71          1           0       -3.129959   -2.751160    4.276349
     72          1           0       -3.521307   -1.009004    4.662278
     73          1           0       -4.795401   -1.976112    3.876882
     74          1           0       -2.354091   -2.960133   -0.415354
     75          1           0       -1.477167   -1.672956    0.648731
     76          1           0       -0.402398   -2.988406    2.199244
     77          1           0       -1.368890   -4.666010    1.769868
     78          1           0       -1.596728    3.499070    4.189057
     79          1           0       -2.759517    4.814562    4.646716
     80          1           0       -3.012207    3.105312    5.176918
     81          1           0       -5.455248    6.555730    2.645529
     82          1           0       -9.991899    3.043250   -3.247101
     83          1           0      -10.013994    4.963254   -3.212329
     84          1           0       -9.243346    4.303108   -5.464885
     85          1           0       -7.880407    4.930777   -4.729913
     86          1           0       -8.081072    2.932282   -4.518006
     87          1           0       -8.457228   -0.534347   -4.482736
     88          1           0       -8.608171   -2.627196   -4.294536
     89          1           0       -9.594899   -1.546088   -3.149652
     90          1           0       -4.355489   -3.989868   -1.482477
     91          1           0        2.586632   -6.218176    1.024719
     92          1           0        2.044705   -5.120680   -0.534013
     93          1           0        3.876797   -4.479770    2.039846
     94          1           0        2.627801   -3.707086   -1.348607
     95          1           0        3.693366   -2.031717   -1.565117
     96          1           0        4.360691   -3.652747   -2.017754
     97          1           0        5.097031   -1.338892    0.463130
     98          1           0        5.222054   -2.466672    2.004139
     99          1           0        6.693174   -3.916523    0.284532
    100          1           0        6.418825   -2.497033   -0.804071
    101          1           0        7.273128   -0.819562    0.349100
    102          1           0        7.891525   -1.976773    1.911544
    103          1           0        8.862599   -1.881321   -1.068382
    104          1           0        8.948507   -3.979853    0.021804
    105          1           0       10.627677   -3.676271   -0.322467
    106          1           0        9.866655   -3.418854    1.212961
    107          1           0        9.403038    0.192602   -0.228360
    108          1           0        9.917642   -0.767174    1.602958
    109          1           0       11.657106   -1.826385    0.251264
    110          1           0       11.064003   -1.159451   -1.329637
    111          1           0       11.598059    1.206558   -0.003461
    112          1           0       12.367577    0.087679    1.198069
    113          1           0       13.217449    0.623517   -1.708587
    114          1           0       14.742332   -0.823051    0.578392
    115          1           0       13.936031   -1.537430   -0.651285
    116          1           0       15.216750   -0.637315   -1.192798
    117          1           0       13.437284    2.513573   -0.480093
    118          1           0       14.216668    1.608531    0.778728
    119          1           0       16.244264    1.508864   -0.746861
    120          1           0       15.310780    2.141396   -2.157221
    121          1           0       15.113586    4.186579   -1.102018
    122          1           0       16.049515    3.849779    0.337744
    123          1           0       17.756125    3.005125   -1.159207
    124          1           0       16.065787    4.654756   -3.012372
    125          1           0       17.923835    4.535375   -3.589417
    126          1           0       16.706266    2.922810   -3.281532
    127          1           0       17.984615    5.094876    0.220711
    128          1           0       18.900293    5.294553   -1.023232
    129          1           0       17.285571    5.944836   -1.030653
    130          1           0       -4.896969   -7.835730   -0.317154
    131          1           0       -6.629510   -7.232614    0.243526
    132          1           0       -5.038048   -7.014198    1.335381
    133          8           0       -7.743886    6.826067   -0.436452
    134          1           0       -8.942128    6.513290   -1.685143
 ---------------------------------------------------------------------

 SCF Done:  E(RCAM-B3LYP) =  -3043.40010023     A.U. after   16 cycles

 Excitation energies and oscillator strengths:

 Excited State   1:      Singlet-A      2.0524 eV  604.09 nm  f=0.2057  <S**2>=0.000
     243 -> 246        0.23222
     244 -> 245        0.66031
 This state for optimization and/or second-order correction.
 Total Energy, E(TD-HF/TD-KS) =  -3043.32467544
 Copying the excited state density for this state as the 1-particle RhoCI density.

 The electronic state is 1-A.
 Alpha  occ. eigenvalues --  -46.82530 -19.23643 -19.22196 -19.17966 -19.17402
 Alpha  occ. eigenvalues --  -19.16794 -19.16381 -19.14567 -14.38842 -14.37194
 Alpha  occ. eigenvalues --  -14.36923 -14.36743 -10.35809 -10.35124 -10.30783
 Alpha  occ. eigenvalues --  -10.30295 -10.29719 -10.29103 -10.27534 -10.27292
 Alpha  occ. eigenvalues --  -10.27105 -10.26944 -10.26794 -10.26586 -10.26370
 Alpha  occ. eigenvalues --  -10.26331 -10.26262 -10.26186 -10.25969 -10.25882
 Alpha  occ. eigenvalues --  -10.25333 -10.24979 -10.24875 -10.24846 -10.24666
 Alpha  occ. eigenvalues --  -10.24555 -10.24281 -10.24122 -10.23620 -10.23319
 Alpha  occ. eigenvalues --  -10.23316 -10.23268 -10.23222 -10.23063 -10.23011
 Alpha  occ. eigenvalues --  -10.22962 -10.22833 -10.22790 -10.22760 -10.22388
 Alpha  occ. eigenvalues --  -10.22240 -10.22016 -10.22000 -10.21955 -10.21855
 Alpha  occ. eigenvalues --  -10.21832 -10.21139 -10.20766 -10.20371 -10.20217
 Alpha  occ. eigenvalues --  -10.20151 -10.19734 -10.19078 -10.18837 -10.18377
 Alpha  occ. eigenvalues --  -10.18344  -3.10885  -1.85844  -1.85355  -1.85277
 Alpha  occ. eigenvalues --   -1.14603  -1.11489  -1.07611  -1.07359  -1.06403
 Alpha  occ. eigenvalues --   -1.05445  -1.03029  -1.01391  -1.00641  -0.99402
 Alpha  occ. eigenvalues --   -0.98684  -0.88752  -0.86966  -0.86673  -0.85761
 Alpha  occ. eigenvalues --   -0.84894  -0.84707  -0.84162  -0.83956  -0.83773
 Alpha  occ. eigenvalues --   -0.82823  -0.82484  -0.81746  -0.80767  -0.79827
 Alpha  occ. eigenvalues --   -0.78993  -0.78313  -0.77638  -0.76864  -0.76402
 Alpha  occ. eigenvalues --   -0.75522  -0.75243  -0.74211  -0.73032  -0.71994
 Alpha  occ. eigenvalues --   -0.71753  -0.71626  -0.70391  -0.69447  -0.69363
 Alpha  occ. eigenvalues --   -0.68922  -0.68403  -0.67358  -0.66488  -0.65732
 Alpha  occ. eigenvalues --   -0.65719  -0.64534  -0.64306  -0.63428  -0.62408
 Alpha  occ. eigenvalues --   -0.61826  -0.61319  -0.59737  -0.59577  -0.59414
 Alpha  occ. eigenvalues --   -0.58536  -0.58461  -0.57838  -0.57697  -0.57318
 Alpha  occ. eigenvalues --   -0.56626  -0.56217  -0.55659  -0.55092  -0.54410
 Alpha  occ. eigenvalues --   -0.53636  -0.53153  -0.52748  -0.52485  -0.52046
 Alpha  occ. eigenvalues --   -0.51712  -0.51686  -0.51387  -0.51189  -0.51114
 Alpha  occ. eigenvalues --   -0.50606  -0.50312  -0.49709  -0.49683  -0.49171
 Alpha  occ. eigenvalues --   -0.48828  -0.48681  -0.48510  -0.48343  -0.47846
 Alpha  occ. eigenvalues --   -0.47674  -0.47524  -0.47241  -0.47142  -0.46863
 Alpha  occ. eigenvalues --   -0.46654  -0.46462  -0.46211  -0.45998  -0.45812
 Alpha  occ. eigenvalues --   -0.45705  -0.45615  -0.45282  -0.45022  -0.44825
 Alpha  occ. eigenvalues --   -0.44464  -0.44331  -0.44249  -0.43993  -0.43804
 Alpha  occ. eigenvalues --   -0.43773  -0.43540  -0.43149  -0.43059  -0.42979
 Alpha  occ. eigenvalues --   -0.42948  -0.42702  -0.42344  -0.42042  -0.41907
 Alpha  occ. eigenvalues --   -0.41877  -0.41579  -0.41404  -0.41219  -0.41168
 Alpha  occ. eigenvalues --   -0.40983  -0.40824  -0.40563  -0.40289  -0.40237
 Alpha  occ. eigenvalues --   -0.39819  -0.39693  -0.39552  -0.39397  -0.39352
 Alpha  occ. eigenvalues --   -0.39196  -0.38805  -0.38337  -0.38159  -0.37985
 Alpha  occ. eigenvalues --   -0.37887  -0.37355  -0.37026  -0.36947  -0.36815
 Alpha  occ. eigenvalues --   -0.36540  -0.36268  -0.35927  -0.35681  -0.35672
 Alpha  occ. eigenvalues --   -0.35407  -0.35191  -0.35046  -0.34988  -0.34935
 Alpha  occ. eigenvalues --   -0.34738  -0.34078  -0.33970  -0.33945  -0.33255
 Alpha  occ. eigenvalues --   -0.33010  -0.32767  -0.32033  -0.31857  -0.31436
 Alpha  occ. eigenvalues --   -0.30980  -0.30909  -0.29968  -0.29325  -0.28898
 Alpha  occ. eigenvalues --   -0.28752  -0.28096  -0.27920  -0.27757  -0.27107
 Alpha  occ. eigenvalues --   -0.26857  -0.26096  -0.23486  -0.20863
 Alpha virt. eigenvalues --   -0.07910  -0.06482  -0.01670  -0.00245   0.01012
 Alpha virt. eigenvalues --    0.01515   0.03189   0.03730   0.03768   0.04085
 Alpha virt. eigenvalues --    0.05086   0.05952   0.06855   0.07270   0.08504

 Mulliken charges:
               1
     1  Mg   0.830733
     2  C    0.135130
     3  C   -0.230832
     4  C   -0.070573
     5  C   -0.171099
     6  N   -0.615750
     7  C    0.210300
     8  C   -0.106412
     9  C   -0.138094
    10  C    0.386182
    11  C   -0.314044
    12  C   -0.149662
    13  C   -0.236339
    14  C    0.592776
    15  O   -0.482704
    16  O   -0.481765
    17  N   -0.709268
    18  C    0.328767
    19  C    0.078047
    20  C   -0.069174
    21  C    0.292119
    22  C   -0.381387
    23  C    0.257145
    24  O   -0.406296
    25  N   -0.691056
    26  C    0.306857
    27  C   -0.052460
    28  C    0.044997
    29  C    0.285815
    30  C    0.234808
    31  C   -0.243672
    32  C   -0.277800
    33  N   -0.713259
    34  C    0.268974
    35  C    0.005389
    36  C    0.037763
    37  C    0.270141
    38  C   -0.354036
    39  C    0.353613
    40  O   -0.456668
    41  C   -0.348961
    42  C    0.590700
    43  O   -0.454792
    44  O   -0.419121
    45  C   -0.090397
    46  C   -0.011899
    47  C   -0.104882
    48  C    0.130698
    49  C   -0.368254
    50  C   -0.220405
    51  C   -0.174903
    52  C   -0.127958
    53  C   -0.072804
    54  C   -0.303993
    55  C   -0.156118
    56  C   -0.171737
    57  C   -0.155861
    58  C   -0.085360
    59  C   -0.318766
    60  C   -0.136999
    61  C   -0.201773
    62  C   -0.192914
    63  C   -0.024125
    64  C   -0.288815
    65  C   -0.302931
    66  H    0.075794
    67  H    0.049782
    68  H    0.094664
    69  H    0.129710
    70  H    0.101697
    71  H    0.122868
    72  H    0.101553
    73  H    0.109855
    74  H    0.133395
    75  H    0.104362
    76  H    0.103216
    77  H    0.127746
    78  H    0.102620
    79  H    0.162183
    80  H    0.139045
    81  H    0.097336
    82  H    0.106381
    83  H    0.102682
    84  H    0.099865
    85  H    0.133471
    86  H    0.080416
    87  H    0.099753
    88  H    0.157399
    89  H    0.139535
    90  H    0.158149
    91  H    0.122022
    92  H    0.121989
    93  H    0.074300
    94  H    0.135042
    95  H    0.107304
    96  H    0.122247
    97  H    0.091379
    98  H    0.098709
    99  H    0.084908
   100  H    0.098295
   101  H    0.093978
   102  H    0.040191
   103  H    0.067641
   104  H    0.108135
   105  H    0.090853
   106  H    0.110598
   107  H    0.058729
   108  H    0.083058
   109  H    0.094062
   110  H    0.078442
   111  H    0.082952
   112  H    0.096270
   113  H    0.087000
   114  H    0.066425
   115  H    0.106809
   116  H    0.100848
   117  H    0.086801
   118  H    0.098024
   119  H    0.099081
   120  H    0.089976
   121  H    0.093053
   122  H    0.078325
   123  H    0.096602
   124  H    0.092020
   125  H    0.075144
   126  H    0.087092
   127  H    0.115401
   128  H    0.061725
   129  H    0.112289
   130  H    0.130074
   131  H    0.128407
   132  H    0.124007
   133  O   -0.439505
   134  H    0.060982
 Sum of Mulliken charges =   0.00000

 Dipole moment (field-independent basis, Debye):
    X=              1.8534    Y=             -6.1209    Z=             -0.0855  Tot=              6.3959
 Quadrupole moment (field-independent basis, Debye-Ang):
   XX=           -390.2934   YY=           -430.7442   ZZ=           -396.8298
   XY=              8.8883   XZ=             23.0868   YZ=            -32.5877

 Normal termination of Gaussian 09 at Tue Oct  8 03:40:47 2019.
