 Gaussian 09, Revision D.01,
 Gaussian 09:  ES64L-G09RevD.01 24-Apr-2013

 ----------------------------------------------------------------------
 # td=(NStates=1) iop(3/107=0140000000,3/108=0140000000) iop(3/107=0140
 000000,3/108=0140000000) CAM-B3LYP/6-31G(d,p)
 ----------------------------------------------------------------------

 --
 TD
 --
 Symbolic Z-matrix:
 Charge =  0 Multiplicity = 1

                         Standard orientation:
 ---------------------------------------------------------------------
 Center     Atomic      Atomic             Coordinates (Angstroms)
 Number     Number       Type             X           Y           Z
 ---------------------------------------------------------------------
      1         12           0       -5.571225    1.213615    0.183653
      2          6           0       -4.970942   -2.121456   -0.442504
      3          6           0       -3.403980    1.162948    2.777362
      4          6           0       -6.156060    4.588342    0.716156
      5          6           0       -7.906517    1.122274   -2.379628
      6          7           0       -4.324448   -0.217641    1.001305
      7          6           0       -4.181039   -1.510661    0.630234
      8          6           0       -3.112228   -2.311697    1.480529
      9          6           0       -2.864270   -1.303684    2.656802
     10          6           0       -3.522498   -0.077999    2.134965
     11          6           0       -3.187443   -1.804095    4.021270
     12          6           0       -1.907368   -2.716051    0.627199
     13          6           0       -0.996089   -3.647792    1.335154
     14          6           0        0.328155   -3.860089    0.583463
     15          8           0        0.571074   -3.462385   -0.459485
     16          8           0        1.016360   -4.752409    1.277405
     17          7           0       -4.961848    2.591275    1.516943
     18          6           0       -4.051577    2.319006    2.510958
     19          6           0       -3.764334    3.684198    3.174437
     20          6           0       -4.522023    4.557231    2.510684
     21          6           0       -5.252346    3.892245    1.497768
     22          6           0       -2.743348    3.795960    4.296079
     23          6           0       -4.531792    6.015641    2.822165
     24          8           0       -4.028190    6.542925    3.853797
     25          7           0       -6.840552    2.658234   -0.742324
     26          6           0       -6.947537    4.033949   -0.319338
     27          6           0       -7.944739    4.685540   -1.180706
     28          6           0       -8.460720    3.693784   -2.050133
     29          6           0       -7.640751    2.438359   -1.786523
     30          6           0       -8.388671    6.040661   -1.165823
     31          6           0       -9.469074    3.824823   -3.080653
     32          6           0       -8.671844    3.953823   -4.498968
     33          7           0       -6.366715   -0.116621   -1.101455
     34          6           0       -7.328112   -0.039852   -2.037101
     35          6           0       -7.503329   -1.337200   -2.719206
     36          6           0       -6.706625   -2.209652   -1.983040
     37          6           0       -5.953478   -1.425133   -1.080766
     38          6           0       -8.615494   -1.664636   -3.789577
     39          6           0       -6.169763   -3.561795   -2.081924
     40          8           0       -6.635244   -4.526576   -2.671006
     41          6           0       -4.972201   -3.470724   -0.989944
     42          6           0       -5.324890   -4.591705    0.054895
     43          8           0       -5.749736   -4.400305    1.164990
     44          8           0       -4.912872   -5.876839   -0.362304
     45          6           0       -5.209078   -6.948244    0.654961
     46          6           0        2.309975   -5.143075    0.533418
     47          6           0        3.419125   -4.190810    1.029488
     48          6           0        3.981802   -3.268077    0.263240
     49          6           0        3.738316   -3.066142   -1.218349
     50          6           0        5.152883   -2.486700    0.747902
     51          6           0        6.524849   -2.801835    0.032557
     52          6           0        7.525626   -1.758272    0.479956
     53          6           0        8.942590   -2.025532   -0.044841
     54          6           0        9.386682   -3.307148    0.302846
     55          6           0        9.973731   -0.982712    0.491876
     56          6           0       11.257570   -0.884513   -0.184422
     57          6           0       12.138209    0.293678    0.113201
     58          6           0       13.463033    0.464806   -0.557846
     59          6           0       14.402054   -0.752346   -0.599561
     60          6           0       14.226773    1.748035   -0.152230
     61          6           0       15.443609    2.119554   -1.011812
     62          6           0       15.908938    3.547364   -0.705234
     63          6           0       17.254128    3.971550   -1.315586
     64          6           0       16.970176    4.336634   -2.893656
     65          6           0       17.843485    5.211907   -0.676387
     66          1           0       -2.701090    1.057332    3.677701
     67          1           0       -6.443804    5.656818    0.764257
     68          1           0       -8.800731    1.030698   -3.244781
     69          1           0       -3.487488   -3.181472    1.999270
     70          1           0       -1.724450   -1.069227    2.695055
     71          1           0       -2.518432   -2.688444    4.153885
     72          1           0       -2.771121   -1.095110    4.713786
     73          1           0       -4.421703   -1.929376    4.430407
     74          1           0       -2.329258   -3.282200   -0.291556
     75          1           0       -1.426665   -1.725413    0.390311
     76          1           0       -0.914476   -3.215815    2.424327
     77          1           0       -1.540633   -4.637354    1.409603
     78          1           0       -1.772373    3.465018    3.895113
     79          1           0       -2.720127    4.790346    4.540334
     80          1           0       -3.115314    3.268182    5.079185
     81          1           0       -5.087335    6.641608    2.159453
     82          1           0      -10.038715    2.846748   -3.198419
     83          1           0       -9.968170    4.777136   -2.996209
     84          1           0       -9.504224    3.944244   -5.364509
     85          1           0       -8.106870    4.912768   -4.388968
     86          1           0       -8.161250    3.063960   -4.651695
     87          1           0       -8.545256   -1.064329   -4.705447
     88          1           0       -8.511105   -2.740235   -4.167187
     89          1           0       -9.524207   -1.373023   -3.611405
     90          1           0       -4.156083   -3.809594   -1.609592
     91          1           0        2.593567   -6.236888    0.651697
     92          1           0        2.043139   -5.312035   -0.436349
     93          1           0        3.422340   -3.876070    2.127432
     94          1           0        2.681975   -3.103584   -1.626177
     95          1           0        4.165635   -2.049946   -1.408668
     96          1           0        4.317303   -3.765728   -1.560116
     97          1           0        4.991063   -1.354358    0.530526
     98          1           0        5.377792   -2.653747    1.815894
     99          1           0        6.898421   -3.751476    0.271049
    100          1           0        6.583638   -2.614282   -1.062829
    101          1           0        7.116086   -0.802756    0.197892
    102          1           0        7.704015   -1.712562    1.736574
    103          1           0        9.094482   -1.820397   -1.191525
    104          1           0        8.749519   -4.190450   -0.172387
    105          1           0       10.444521   -3.464272   -0.160565
    106          1           0        9.177048   -3.774997    1.291679
    107          1           0        9.600512    0.020635    0.222873
    108          1           0        9.898980   -0.983843    1.504657
    109          1           0       11.845011   -1.981391   -0.089265
    110          1           0       10.877417   -0.877426   -1.099041
    111          1           0       11.501019    1.289992    0.031335
    112          1           0       12.227497    0.197405    1.268018
    113          1           0       13.118420    0.475071   -1.533426
    114          1           0       14.680395   -1.056821    0.485189
    115          1           0       13.975116   -1.730807   -1.166206
    116          1           0       15.338863   -0.770841   -1.141442
    117          1           0       13.439754    2.529103   -0.246394
    118          1           0       14.415839    1.837076    0.834352
    119          1           0       16.323673    1.504055   -0.950791
    120          1           0       15.109303    1.916946   -2.161359
    121          1           0       15.058448    4.283428   -1.030718
    122          1           0       16.037478    3.580890    0.437871
    123          1           0       18.092395    3.069327   -1.542779
    124          1           0       16.267555    5.044345   -3.079410
    125          1           0       17.963732    4.699588   -3.525617
    126          1           0       16.643142    3.536336   -3.412279
    127          1           0       18.007149    5.181212    0.589831
    128          1           0       19.079566    5.119977   -1.134593
    129          1           0       17.255079    6.253023   -0.866444
    130          1           0       -5.360509   -7.781312    0.027554
    131          1           0       -6.371342   -6.897574    0.896721
    132          1           0       -4.291447   -7.034590    1.344905
    133          8           0       -7.923824    6.842359   -0.318623
    134          1           0       -9.062869    6.116079   -1.776759
 ---------------------------------------------------------------------

 SCF Done:  E(RCAM-B3LYP) =  -3043.36789968     A.U. after   16 cycles

 Excitation energies and oscillator strengths:

 Excited State   1:      Singlet-A      2.0037 eV  618.79 nm  f=0.1527  <S**2>=0.000
     243 -> 246       -0.27050
     244 -> 245        0.63712
 This state for optimization and/or second-order correction.
 Total Energy, E(TD-HF/TD-KS) =  -3043.29426631
 Copying the excited state density for this state as the 1-particle RhoCI density.

 The electronic state is 1-A.
 Alpha  occ. eigenvalues --  -46.81283 -19.22044 -19.21563 -19.18158 -19.17564
 Alpha  occ. eigenvalues --  -19.17509 -19.16761 -19.16657 -14.40076 -14.36980
 Alpha  occ. eigenvalues --  -14.36903 -14.36383 -10.35235 -10.34311 -10.32093
 Alpha  occ. eigenvalues --  -10.29834 -10.28959 -10.28541 -10.28308 -10.28172
 Alpha  occ. eigenvalues --  -10.27672 -10.26895 -10.26392 -10.26087 -10.26079
 Alpha  occ. eigenvalues --  -10.25835 -10.25561 -10.25549 -10.25501 -10.25346
 Alpha  occ. eigenvalues --  -10.25210 -10.24969 -10.24785 -10.24472 -10.24355
 Alpha  occ. eigenvalues --  -10.24220 -10.24139 -10.24085 -10.23931 -10.23645
 Alpha  occ. eigenvalues --  -10.23539 -10.23278 -10.23264 -10.23237 -10.22902
 Alpha  occ. eigenvalues --  -10.22873 -10.22575 -10.22481 -10.22365 -10.22331
 Alpha  occ. eigenvalues --  -10.22298 -10.22259 -10.22212 -10.22018 -10.21855
 Alpha  occ. eigenvalues --  -10.21696 -10.21677 -10.21434 -10.21414 -10.21288
 Alpha  occ. eigenvalues --  -10.20640 -10.20434 -10.20046 -10.19919 -10.19859
 Alpha  occ. eigenvalues --  -10.19381  -3.09946  -1.84881  -1.84424  -1.84354
 Alpha  occ. eigenvalues --   -1.15422  -1.11363  -1.07283  -1.06501  -1.04658
 Alpha  occ. eigenvalues --   -1.03765  -1.03359  -1.01120  -1.00349  -0.99744
 Alpha  occ. eigenvalues --   -0.97512  -0.89761  -0.87627  -0.86708  -0.86229
 Alpha  occ. eigenvalues --   -0.85302  -0.85084  -0.84873  -0.83379  -0.83185
 Alpha  occ. eigenvalues --   -0.83040  -0.82711  -0.81893  -0.81194  -0.79678
 Alpha  occ. eigenvalues --   -0.79058  -0.78607  -0.77313  -0.76694  -0.76077
 Alpha  occ. eigenvalues --   -0.76053  -0.75411  -0.74360  -0.72643  -0.72317
 Alpha  occ. eigenvalues --   -0.71991  -0.70833  -0.70741  -0.70458  -0.69636
 Alpha  occ. eigenvalues --   -0.69373  -0.69122  -0.68820  -0.66798  -0.66148
 Alpha  occ. eigenvalues --   -0.65935  -0.65190  -0.64428  -0.62374  -0.62102
 Alpha  occ. eigenvalues --   -0.61175  -0.60864  -0.60463  -0.59867  -0.58921
 Alpha  occ. eigenvalues --   -0.58417  -0.58189  -0.57405  -0.57301  -0.57048
 Alpha  occ. eigenvalues --   -0.56417  -0.55768  -0.55662  -0.55277  -0.54797
 Alpha  occ. eigenvalues --   -0.53731  -0.53476  -0.52925  -0.52520  -0.52260
 Alpha  occ. eigenvalues --   -0.52186  -0.51692  -0.51578  -0.51255  -0.51137
 Alpha  occ. eigenvalues --   -0.50328  -0.50102  -0.49702  -0.49418  -0.49365
 Alpha  occ. eigenvalues --   -0.48929  -0.48637  -0.48275  -0.48099  -0.47970
 Alpha  occ. eigenvalues --   -0.47899  -0.47427  -0.47051  -0.46913  -0.46791
 Alpha  occ. eigenvalues --   -0.46580  -0.46353  -0.45979  -0.45786  -0.45684
 Alpha  occ. eigenvalues --   -0.45607  -0.45309  -0.45195  -0.45077  -0.44763
 Alpha  occ. eigenvalues --   -0.44508  -0.44354  -0.44213  -0.44059  -0.43711
 Alpha  occ. eigenvalues --   -0.43661  -0.43425  -0.43291  -0.43119  -0.42850
 Alpha  occ. eigenvalues --   -0.42636  -0.42274  -0.42025  -0.41903  -0.41823
 Alpha  occ. eigenvalues --   -0.41640  -0.41334  -0.41081  -0.40905  -0.40885
 Alpha  occ. eigenvalues --   -0.40783  -0.40423  -0.40295  -0.40144  -0.39954
 Alpha  occ. eigenvalues --   -0.39742  -0.39494  -0.39381  -0.39328  -0.39212
 Alpha  occ. eigenvalues --   -0.39062  -0.38787  -0.38453  -0.38259  -0.38083
 Alpha  occ. eigenvalues --   -0.38058  -0.37738  -0.37589  -0.37435  -0.37022
 Alpha  occ. eigenvalues --   -0.36889  -0.36843  -0.36771  -0.36355  -0.36307
 Alpha  occ. eigenvalues --   -0.35850  -0.35445  -0.35148  -0.34957  -0.34632
 Alpha  occ. eigenvalues --   -0.34519  -0.34051  -0.33968  -0.33848  -0.33052
 Alpha  occ. eigenvalues --   -0.32979  -0.32306  -0.32094  -0.32021  -0.31870
 Alpha  occ. eigenvalues --   -0.31670  -0.31301  -0.31046  -0.30743  -0.29738
 Alpha  occ. eigenvalues --   -0.28840  -0.28411  -0.28155  -0.27965  -0.27273
 Alpha  occ. eigenvalues --   -0.27142  -0.26940  -0.23065  -0.20759
 Alpha virt. eigenvalues --   -0.07712  -0.06672  -0.02389  -0.01180  -0.00084
 Alpha virt. eigenvalues --    0.03197   0.03438   0.03552   0.04214   0.04541
 Alpha virt. eigenvalues --    0.05132   0.05532   0.07382   0.07888   0.08280

 Mulliken charges:
               1
     1  Mg   0.825757
     2  C    0.098381
     3  C   -0.207544
     4  C   -0.164556
     5  C   -0.191603
     6  N   -0.633050
     7  C    0.316043
     8  C   -0.151038
     9  C   -0.153567
    10  C    0.343588
    11  C   -0.290955
    12  C   -0.147277
    13  C   -0.276860
    14  C    0.615451
    15  O   -0.420879
    16  O   -0.474204
    17  N   -0.737747
    18  C    0.314011
    19  C    0.000228
    20  C   -0.028640
    21  C    0.359143
    22  C   -0.359492
    23  C    0.251587
    24  O   -0.438518
    25  N   -0.666768
    26  C    0.248474
    27  C   -0.044471
    28  C    0.034490
    29  C    0.302473
    30  C    0.322745
    31  C   -0.281355
    32  C   -0.303025
    33  N   -0.742342
    34  C    0.330865
    35  C    0.023261
    36  C    0.012680
    37  C    0.305671
    38  C   -0.380300
    39  C    0.352965
    40  O   -0.443634
    41  C   -0.374923
    42  C    0.622057
    43  O   -0.446428
    44  O   -0.489770
    45  C   -0.090845
    46  C   -0.013778
    47  C   -0.163793
    48  C    0.144118
    49  C   -0.361339
    50  C   -0.226740
    51  C   -0.176513
    52  C   -0.158155
    53  C   -0.050299
    54  C   -0.294689
    55  C   -0.171292
    56  C   -0.147133
    57  C   -0.179998
    58  C   -0.038165
    59  C   -0.312867
    60  C   -0.169902
    61  C   -0.167611
    62  C   -0.158463
    63  C   -0.045017
    64  C   -0.317960
    65  C   -0.252426
    66  H    0.085666
    67  H    0.145876
    68  H    0.073159
    69  H    0.126150
    70  H    0.106560
    71  H    0.113773
    72  H    0.118456
    73  H    0.101778
    74  H    0.107402
    75  H    0.108692
    76  H    0.107691
    77  H    0.132657
    78  H    0.117928
    79  H    0.156509
    80  H    0.132554
    81  H    0.094318
    82  H    0.115144
    83  H    0.119247
    84  H    0.087938
    85  H    0.117610
    86  H    0.130955
    87  H    0.114471
    88  H    0.143726
    89  H    0.142552
    90  H    0.162734
    91  H    0.107271
    92  H    0.137358
    93  H    0.092925
    94  H    0.144217
    95  H    0.097789
    96  H    0.140396
    97  H    0.085556
    98  H    0.097631
    99  H    0.107588
   100  H    0.103034
   101  H    0.095078
   102  H    0.047740
   103  H    0.066677
   104  H    0.073337
   105  H    0.096255
   106  H    0.108919
   107  H    0.075377
   108  H    0.089850
   109  H    0.061145
   110  H    0.096844
   111  H    0.073208
   112  H    0.073949
   113  H    0.098375
   114  H    0.086343
   115  H    0.073355
   116  H    0.112089
   117  H    0.084099
   118  H    0.103984
   119  H    0.103431
   120  H    0.066051
   121  H    0.087076
   122  H    0.084612
   123  H    0.074099
   124  H    0.112249
   125  H    0.065792
   126  H    0.114075
   127  H    0.065017
   128  H    0.065390
   129  H    0.100486
   130  H    0.139794
   131  H    0.133583
   132  H    0.132418
   133  O   -0.467771
   134  H    0.051703
 Sum of Mulliken charges =   0.00000

 Dipole moment (field-independent basis, Debye):
    X=              2.3846    Y=             -5.5633    Z=             -2.3318  Tot=              6.4865
 Quadrupole moment (field-independent basis, Debye-Ang):
   XX=           -395.0358   YY=           -441.2493   ZZ=           -396.5455
   XY=              8.2002   XZ=             23.6070   YZ=            -35.4442

 Normal termination of Gaussian 09 at Wed Oct  9 10:35:10 2019.
