 Gaussian 09, Revision D.01,
 Gaussian 09:  ES64L-G09RevD.01 24-Apr-2013

 ----------------------------------------------------------------------
 # td=(NStates=1) iop(3/107=0140000000,3/108=0140000000) iop(3/107=0140
 000000,3/108=0140000000) CAM-B3LYP/6-31G(d,p)
 ----------------------------------------------------------------------

 --
 TD
 --
 Symbolic Z-matrix:
 Charge =  0 Multiplicity = 1

                         Standard orientation:
 ---------------------------------------------------------------------
 Center     Atomic      Atomic             Coordinates (Angstroms)
 Number     Number       Type             X           Y           Z
 ---------------------------------------------------------------------
      1         12           0       -5.644413    1.218881    0.214982
      2          6           0       -5.025730   -2.116240   -0.340444
      3          6           0       -3.286497    1.218058    2.647918
      4          6           0       -6.101328    4.596627    0.715783
      5          6           0       -8.070794    1.275814   -2.396471
      6          7           0       -4.296145   -0.285740    0.980486
      7          6           0       -4.207081   -1.635532    0.539354
      8          6           0       -3.139208   -2.348097    1.484087
      9          6           0       -2.960157   -1.352328    2.627619
     10          6           0       -3.445012   -0.057421    2.066925
     11          6           0       -3.703017   -1.771476    3.928351
     12          6           0       -1.914580   -2.696226    0.633106
     13          6           0       -1.054113   -3.597972    1.397103
     14          6           0        0.235681   -3.897024    0.646849
     15          8           0        0.421841   -3.562824   -0.539155
     16          8           0        1.071999   -4.749983    1.303435
     17          7           0       -4.815923    2.703476    1.398112
     18          6           0       -3.841035    2.420417    2.420318
     19          6           0       -3.618137    3.706135    3.123901
     20          6           0       -4.402347    4.649117    2.544341
     21          6           0       -5.184265    4.022211    1.517879
     22          6           0       -2.565277    3.759624    4.266713
     23          6           0       -4.469392    6.037253    2.978620
     24          8           0       -3.887752    6.541103    3.925263
     25          7           0       -6.745270    2.667205   -0.716270
     26          6           0       -6.885207    3.992201   -0.326341
     27          6           0       -7.754764    4.691728   -1.180282
     28          6           0       -8.334559    3.780166   -2.084303
     29          6           0       -7.686958    2.467912   -1.751974
     30          6           0       -8.053085    6.107181   -1.084371
     31          6           0       -9.260978    3.848764   -3.141231
     32          6           0       -8.680431    3.990759   -4.585335
     33          7           0       -6.459283   -0.157567   -1.125243
     34          6           0       -7.430056    0.026202   -2.081432
     35          6           0       -7.691679   -1.298507   -2.708817
     36          6           0       -6.756085   -2.177646   -2.119329
     37          6           0       -6.062980   -1.385629   -1.193944
     38          6           0       -8.560788   -1.565790   -3.867618
     39          6           0       -6.324245   -3.547174   -2.067406
     40          8           0       -6.687841   -4.481830   -2.705197
     41          6           0       -5.173853   -3.594422   -0.873367
     42          6           0       -5.470370   -4.629607    0.146691
     43          8           0       -5.920718   -4.412567    1.237293
     44          8           0       -5.319241   -5.893649   -0.263988
     45          6           0       -5.562924   -6.826113    0.751819
     46          6           0        2.278831   -5.071396    0.714956
     47          6           0        3.315450   -4.102960    0.999184
     48          6           0        3.963639   -3.227549    0.154102
     49          6           0        3.760883   -3.181739   -1.261941
     50          6           0        5.097065   -2.354488    0.622520
     51          6           0        6.424618   -2.800684    0.057862
     52          6           0        7.542069   -1.865688    0.416269
     53          6           0        8.970174   -2.172135   -0.199717
     54          6           0        9.531872   -3.503840    0.229131
     55          6           0        9.948991   -0.998585    0.360677
     56          6           0       11.446993   -0.927289   -0.285778
     57          6           0       12.231928    0.174279    0.241527
     58          6           0       13.628422    0.384059   -0.541772
     59          6           0       14.529112   -0.706574   -0.346708
     60          6           0       14.234936    1.757594   -0.238566
     61          6           0       15.424275    2.168416   -1.069509
     62          6           0       16.030638    3.508891   -0.570699
     63          6           0       17.329875    3.836670   -1.327849
     64          6           0       17.143967    3.996988   -2.883760
     65          6           0       17.847622    5.221105   -0.710479
     66          1           0       -2.607913    1.297852    3.352030
     67          1           0       -6.359223    5.554972    1.038192
     68          1           0       -9.027453    1.301490   -3.065124
     69          1           0       -3.681577   -3.400310    1.798517
     70          1           0       -1.879328   -1.224031    2.845926
     71          1           0       -3.171854   -2.626622    4.187378
     72          1           0       -3.609607   -1.061614    4.856808
     73          1           0       -4.821809   -1.874999    3.813263
     74          1           0       -2.278367   -3.318581   -0.150809
     75          1           0       -1.558805   -1.753245    0.107496
     76          1           0       -0.694735   -3.211293    2.383055
     77          1           0       -1.472239   -4.536766    1.512200
     78          1           0       -1.685284    3.491596    3.821605
     79          1           0       -2.449568    4.912650    4.447098
     80          1           0       -2.709704    3.104813    5.133311
     81          1           0       -5.140633    6.701223    2.298427
     82          1           0       -9.946484    3.145322   -2.988825
     83          1           0       -9.935647    4.685410   -3.109030
     84          1           0       -9.495400    4.142709   -5.320896
     85          1           0       -8.061380    4.865275   -4.654809
     86          1           0       -8.030100    3.192158   -4.827120
     87          1           0       -8.274728   -0.757908   -4.649741
     88          1           0       -8.282885   -2.502343   -4.342470
     89          1           0       -9.668886   -1.716416   -3.467020
     90          1           0       -4.235363   -4.028836   -1.211799
     91          1           0        2.537551   -6.100102    1.201815
     92          1           0        2.053776   -5.073626   -0.352967
     93          1           0        3.425165   -3.872520    2.082641
     94          1           0        2.685480   -3.320649   -1.336347
     95          1           0        4.121770   -2.111572   -1.567601
     96          1           0        4.440603   -3.785721   -1.970923
     97          1           0        4.925078   -1.434222    0.400188
     98          1           0        5.112312   -2.527113    1.820675
     99          1           0        6.481924   -3.939085    0.085144
    100          1           0        6.348098   -2.895799   -1.118117
    101          1           0        7.214626   -0.818708    0.116100
    102          1           0        7.571756   -1.938471    1.598119
    103          1           0        8.958488   -2.224807   -1.430901
    104          1           0        9.061017   -4.395259   -0.341480
    105          1           0       10.683618   -3.616252    0.079072
    106          1           0        9.439817   -3.675852    1.351597
    107          1           0        9.404425   -0.082176    0.154462
    108          1           0       10.013409   -0.967272    1.403447
    109          1           0       11.847013   -1.959055   -0.088215
    110          1           0       11.101143   -0.661303   -1.318196
    111          1           0       11.947796    1.200215    0.152078
    112          1           0       12.324507    0.031986    1.238574
    113          1           0       13.188473    0.483631   -1.511355
    114          1           0       15.047035   -0.472421    0.738891
    115          1           0       14.293141   -1.673459   -0.568241
    116          1           0       15.473118   -0.455029   -0.911831
    117          1           0       13.350768    2.481124   -0.209700
    118          1           0       14.570088    1.846844    0.955364
    119          1           0       16.191160    1.509702   -0.949888
    120          1           0       15.191964    2.284947   -2.314048
    121          1           0       15.273266    4.276469   -0.790646
    122          1           0       16.099656    3.276741    0.540237
    123          1           0       18.081973    3.060988   -1.330341
    124          1           0       16.255624    4.607988   -3.335224
    125          1           0       18.188469    4.226777   -3.252617
    126          1           0       16.931584    2.993785   -3.136179
    127          1           0       17.978001    5.051845    0.432402
    128          1           0       18.698698    5.460678   -1.200973
    129          1           0       17.073672    6.099211   -0.923517
    130          1           0       -5.118102   -7.839906    0.396686
    131          1           0       -6.603643   -6.906314    0.925734
    132          1           0       -5.237667   -6.760083    1.892987
    133          8           0       -7.721553    6.948740   -0.183484
    134          1           0       -8.692891    6.633013   -1.912270
 ---------------------------------------------------------------------

 SCF Done:  E(RCAM-B3LYP) =  -3043.52466031     A.U. after   15 cycles

 Excitation energies and oscillator strengths:

 Excited State   1:      Singlet-A      2.0896 eV  593.33 nm  f=0.1695  <S**2>=0.000
     243 -> 246       -0.24209
     244 -> 245        0.65499
 This state for optimization and/or second-order correction.
 Total Energy, E(TD-HF/TD-KS) =  -3043.44786821
 Copying the excited state density for this state as the 1-particle RhoCI density.

 The electronic state is 1-A.
 Alpha  occ. eigenvalues --  -46.81931 -19.23195 -19.22586 -19.17658 -19.17580
 Alpha  occ. eigenvalues --  -19.17573 -19.16634 -19.16465 -14.38942 -14.37542
 Alpha  occ. eigenvalues --  -14.37056 -14.36222 -10.35686 -10.34511 -10.31888
 Alpha  occ. eigenvalues --  -10.30848 -10.30816 -10.28770 -10.27758 -10.27350
 Alpha  occ. eigenvalues --  -10.27053 -10.26945 -10.26762 -10.26697 -10.26629
 Alpha  occ. eigenvalues --  -10.26621 -10.26170 -10.25907 -10.25572 -10.25525
 Alpha  occ. eigenvalues --  -10.25293 -10.25287 -10.25270 -10.25078 -10.24389
 Alpha  occ. eigenvalues --  -10.24144 -10.24001 -10.23793 -10.23433 -10.23386
 Alpha  occ. eigenvalues --  -10.23228 -10.23184 -10.22959 -10.22681 -10.22327
 Alpha  occ. eigenvalues --  -10.22309 -10.22265 -10.22232 -10.22120 -10.22108
 Alpha  occ. eigenvalues --  -10.22091 -10.21956 -10.21837 -10.21736 -10.21302
 Alpha  occ. eigenvalues --  -10.21291 -10.21067 -10.21065 -10.20982 -10.20947
 Alpha  occ. eigenvalues --  -10.20838 -10.20632 -10.20557 -10.20553 -10.20012
 Alpha  occ. eigenvalues --  -10.18758  -3.10319  -1.85274  -1.84769  -1.84730
 Alpha  occ. eigenvalues --   -1.15474  -1.14130  -1.08832  -1.06918  -1.05207
 Alpha  occ. eigenvalues --   -1.04493  -1.03273  -1.01443  -0.98868  -0.98259
 Alpha  occ. eigenvalues --   -0.97523  -0.87637  -0.87178  -0.86614  -0.86590
 Alpha  occ. eigenvalues --   -0.85761  -0.85140  -0.83945  -0.83613  -0.83574
 Alpha  occ. eigenvalues --   -0.83133  -0.82942  -0.82460  -0.80725  -0.80040
 Alpha  occ. eigenvalues --   -0.79698  -0.78878  -0.78115  -0.77787  -0.77074
 Alpha  occ. eigenvalues --   -0.75865  -0.75483  -0.74362  -0.73257  -0.72473
 Alpha  occ. eigenvalues --   -0.70902  -0.70565  -0.70415  -0.70387  -0.70063
 Alpha  occ. eigenvalues --   -0.69325  -0.69156  -0.68216  -0.67154  -0.66310
 Alpha  occ. eigenvalues --   -0.65975  -0.64703  -0.64620  -0.62474  -0.62163
 Alpha  occ. eigenvalues --   -0.61323  -0.61060  -0.60191  -0.59410  -0.59230
 Alpha  occ. eigenvalues --   -0.58916  -0.58501  -0.58134  -0.57553  -0.57046
 Alpha  occ. eigenvalues --   -0.56447  -0.56328  -0.55466  -0.55110  -0.54979
 Alpha  occ. eigenvalues --   -0.54067  -0.53549  -0.53309  -0.53070  -0.52454
 Alpha  occ. eigenvalues --   -0.52037  -0.51656  -0.51333  -0.51121  -0.50798
 Alpha  occ. eigenvalues --   -0.50142  -0.50024  -0.49660  -0.49608  -0.49432
 Alpha  occ. eigenvalues --   -0.49139  -0.48819  -0.48315  -0.48093  -0.47918
 Alpha  occ. eigenvalues --   -0.47619  -0.47451  -0.47310  -0.47178  -0.46802
 Alpha  occ. eigenvalues --   -0.46649  -0.46600  -0.46258  -0.46002  -0.45787
 Alpha  occ. eigenvalues --   -0.45702  -0.45551  -0.45468  -0.45239  -0.45018
 Alpha  occ. eigenvalues --   -0.44923  -0.44664  -0.44428  -0.44106  -0.44003
 Alpha  occ. eigenvalues --   -0.43841  -0.43682  -0.43474  -0.43380  -0.43075
 Alpha  occ. eigenvalues --   -0.43036  -0.42566  -0.42391  -0.42134  -0.42080
 Alpha  occ. eigenvalues --   -0.41841  -0.41711  -0.41400  -0.41167  -0.41107
 Alpha  occ. eigenvalues --   -0.40958  -0.40835  -0.40788  -0.40270  -0.40165
 Alpha  occ. eigenvalues --   -0.39963  -0.39649  -0.39539  -0.39196  -0.39154
 Alpha  occ. eigenvalues --   -0.39097  -0.38874  -0.38701  -0.38629  -0.38167
 Alpha  occ. eigenvalues --   -0.38158  -0.37974  -0.37813  -0.37372  -0.37154
 Alpha  occ. eigenvalues --   -0.36612  -0.36458  -0.36411  -0.35761  -0.35675
 Alpha  occ. eigenvalues --   -0.35555  -0.35295  -0.35110  -0.34626  -0.34594
 Alpha  occ. eigenvalues --   -0.34111  -0.33932  -0.33910  -0.33643  -0.33236
 Alpha  occ. eigenvalues --   -0.33147  -0.32510  -0.32215  -0.31968  -0.31769
 Alpha  occ. eigenvalues --   -0.31212  -0.30817  -0.30672  -0.29967  -0.29009
 Alpha  occ. eigenvalues --   -0.28838  -0.28339  -0.28180  -0.27981  -0.27920
 Alpha  occ. eigenvalues --   -0.27262  -0.26500  -0.23527  -0.22026
 Alpha virt. eigenvalues --   -0.08720  -0.06867  -0.01536  -0.01054   0.00274
 Alpha virt. eigenvalues --    0.02365   0.02878   0.03161   0.03609   0.04492
 Alpha virt. eigenvalues --    0.04897   0.05695   0.07669   0.08359   0.09752

 Mulliken charges:
               1
     1  Mg   0.823353
     2  C    0.105676
     3  C   -0.175803
     4  C   -0.165745
     5  C   -0.158359
     6  N   -0.634486
     7  C    0.265613
     8  C   -0.163716
     9  C   -0.134869
    10  C    0.344761
    11  C   -0.298860
    12  C   -0.156667
    13  C   -0.258048
    14  C    0.586678
    15  O   -0.477486
    16  O   -0.444143
    17  N   -0.739095
    18  C    0.320098
    19  C    0.042048
    20  C   -0.013887
    21  C    0.350979
    22  C   -0.389594
    23  C    0.240862
    24  O   -0.416059
    25  N   -0.699492
    26  C    0.298540
    27  C    0.010927
    28  C    0.051460
    29  C    0.278641
    30  C    0.212848
    31  C   -0.273832
    32  C   -0.319497
    33  N   -0.700811
    34  C    0.253430
    35  C   -0.009171
    36  C    0.057658
    37  C    0.279731
    38  C   -0.384391
    39  C    0.363080
    40  O   -0.430135
    41  C   -0.348684
    42  C    0.606003
    43  O   -0.469955
    44  O   -0.416528
    45  C   -0.096404
    46  C   -0.008755
    47  C   -0.114758
    48  C    0.115515
    49  C   -0.372687
    50  C   -0.191071
    51  C   -0.177741
    52  C   -0.153592
    53  C   -0.047076
    54  C   -0.295304
    55  C   -0.198308
    56  C   -0.182878
    57  C   -0.164795
    58  C   -0.039043
    59  C   -0.294733
    60  C   -0.183634
    61  C   -0.163049
    62  C   -0.150560
    63  C   -0.069302
    64  C   -0.315779
    65  C   -0.291437
    66  H    0.053302
    67  H    0.117661
    68  H    0.120892
    69  H    0.105664
    70  H    0.103492
    71  H    0.126241
    72  H    0.098808
    73  H    0.136491
    74  H    0.123614
    75  H    0.127860
    76  H    0.127767
    77  H    0.154200
    78  H    0.137824
    79  H    0.153527
    80  H    0.131782
    81  H    0.077322
    82  H    0.124764
    83  H    0.113287
    84  H    0.112394
    85  H    0.124984
    86  H    0.119948
    87  H    0.121078
    88  H    0.152147
    89  H    0.122841
    90  H    0.148052
    91  H    0.107102
    92  H    0.119290
    93  H    0.070837
    94  H    0.148976
    95  H    0.091284
    96  H    0.117120
    97  H    0.106066
    98  H    0.067954
    99  H    0.099299
   100  H    0.067317
   101  H    0.093439
   102  H    0.083097
   103  H    0.063338
   104  H    0.091407
   105  H    0.089291
   106  H    0.096479
   107  H    0.085680
   108  H    0.095234
   109  H    0.097253
   110  H    0.093274
   111  H    0.082548
   112  H    0.091250
   113  H    0.089098
   114  H    0.071390
   115  H    0.110894
   116  H    0.090225
   117  H    0.082779
   118  H    0.052298
   119  H    0.109516
   120  H    0.057051
   121  H    0.096294
   122  H    0.083088
   123  H    0.090492
   124  H    0.093917
   125  H    0.096164
   126  H    0.112034
   127  H    0.088606
   128  H    0.104632
   129  H    0.085544
   130  H    0.107832
   131  H    0.136521
   132  H    0.112599
   133  O   -0.446439
   134  H    0.064306
 Sum of Mulliken charges =   0.00000

 Dipole moment (field-independent basis, Debye):
    X=              1.4699    Y=             -4.1682    Z=             -0.7982  Tot=              4.4913
 Quadrupole moment (field-independent basis, Debye-Ang):
   XX=           -372.2358   YY=           -450.5756   ZZ=           -392.9244
   XY=              5.6923   XZ=             20.6390   YZ=            -40.6848

 Normal termination of Gaussian 09 at Wed Oct  9 00:24:06 2019.
