 Gaussian 09, Revision D.01,
 Gaussian 09:  ES64L-G09RevD.01 24-Apr-2013

 ----------------------------------------------------------------------
 # td=(NStates=1) iop(3/107=0140000000,3/108=0140000000) iop(3/107=0140
 000000,3/108=0140000000) CAM-B3LYP/6-31G(d,p)
 ----------------------------------------------------------------------

 --
 TD
 --
 Symbolic Z-matrix:
 Charge =  0 Multiplicity = 1

                         Standard orientation:
 ---------------------------------------------------------------------
 Center     Atomic      Atomic             Coordinates (Angstroms)
 Number     Number       Type             X           Y           Z
 ---------------------------------------------------------------------
      1         12           0       -5.706529    1.221063    0.219414
      2          6           0       -5.002704   -2.196400   -0.282626
      3          6           0       -3.371218    1.169832    2.706041
      4          6           0       -6.271000    4.599837    0.634632
      5          6           0       -8.146828    1.207545   -2.314556
      6          7           0       -4.434279   -0.244273    1.088057
      7          6           0       -4.241401   -1.577822    0.742140
      8          6           0       -3.236708   -2.240439    1.553232
      9          6           0       -2.907299   -1.270790    2.585602
     10          6           0       -3.594998   -0.063149    2.149914
     11          6           0       -3.160977   -1.720083    4.023746
     12          6           0       -2.012400   -2.730966    0.596325
     13          6           0       -0.952452   -3.682411    1.328617
     14          6           0        0.259699   -3.960546    0.536590
     15          8           0        0.324423   -3.378064   -0.605527
     16          8           0        1.057616   -4.778722    1.187357
     17          7           0       -4.973628    2.631052    1.579028
     18          6           0       -3.962251    2.400063    2.389178
     19          6           0       -3.676466    3.705881    3.039449
     20          6           0       -4.465174    4.686921    2.531039
     21          6           0       -5.352367    3.932512    1.554339
     22          6           0       -2.547469    3.866340    4.091979
     23          6           0       -4.661470    6.042110    2.797716
     24          8           0       -3.853870    6.605245    3.614911
     25          7           0       -6.926442    2.653211   -0.632072
     26          6           0       -7.040576    3.990634   -0.304505
     27          6           0       -7.966824    4.658007   -1.187194
     28          6           0       -8.441132    3.680651   -1.967773
     29          6           0       -7.873847    2.376359   -1.648042
     30          6           0       -8.358658    6.064531   -1.243133
     31          6           0       -9.471035    3.796601   -3.123452
     32          6           0       -8.743113    3.813956   -4.521170
     33          7           0       -6.381698   -0.113392   -1.067873
     34          6           0       -7.360112    0.006869   -2.000982
     35          6           0       -7.558342   -1.256363   -2.658185
     36          6           0       -6.674027   -2.143795   -1.983572
     37          6           0       -6.066393   -1.410107   -0.961076
     38          6           0       -8.638074   -1.596963   -3.683383
     39          6           0       -6.200821   -3.548684   -1.891235
     40          8           0       -6.555086   -4.536226   -2.613262
     41          6           0       -5.125920   -3.608050   -0.923986
     42          6           0       -5.415973   -4.601301    0.174263
     43          8           0       -5.782518   -4.559716    1.292797
     44          8           0       -5.115253   -5.816141   -0.352323
     45          6           0       -5.162402   -7.003381    0.479388
     46          6           0        2.269176   -5.135909    0.463161
     47          6           0        3.383983   -4.209268    0.915737
     48          6           0        4.084422   -3.348162    0.121679
     49          6           0        3.745620   -3.037188   -1.341576
     50          6           0        5.330438   -2.673307    0.678283
     51          6           0        6.616414   -2.915286    0.036621
     52          6           0        7.632390   -1.988121    0.571535
     53          6           0        9.098685   -2.068552   -0.061735
     54          6           0        9.712599   -3.469810    0.184939
     55          6           0        9.995613   -0.954526    0.481659
     56          6           0       11.343101   -0.879118   -0.247479
     57          6           0       12.240543    0.384836    0.074209
     58          6           0       13.557990    0.534607   -0.637370
     59          6           0       14.475141   -0.612704   -0.303408
     60          6           0       14.180096    1.951745   -0.278289
     61          6           0       15.399779    2.270687   -0.961172
     62          6           0       15.984698    3.676129   -0.664004
     63          6           0       17.383006    3.925118   -1.281147
     64          6           0       17.191938    4.062697   -2.812270
     65          6           0       17.834012    5.263886   -0.757618
     66          1           0       -2.585210    1.256139    3.466164
     67          1           0       -6.534290    5.790572    0.914500
     68          1           0       -8.853916    1.004305   -3.139240
     69          1           0       -3.609617   -3.039697    2.032388
     70          1           0       -1.836729   -0.913311    2.577222
     71          1           0       -2.695791   -2.382806    4.428812
     72          1           0       -3.080991   -0.864479    4.639028
     73          1           0       -4.296908   -1.930376    4.154461
     74          1           0       -2.313048   -3.313870   -0.276061
     75          1           0       -1.339677   -1.963543    0.223479
     76          1           0       -0.528455   -3.413472    2.184024
     77          1           0       -1.574735   -4.464920    1.648835
     78          1           0       -1.740947    3.238055    3.642798
     79          1           0       -2.334227    4.978381    4.138596
     80          1           0       -2.932995    3.445902    5.121839
     81          1           0       -5.467690    6.661092    2.341214
     82          1           0      -10.349335    2.983057   -3.120025
     83          1           0      -10.040196    4.943792   -2.976773
     84          1           0       -9.523123    3.768488   -5.214859
     85          1           0       -7.935423    4.535965   -4.588621
     86          1           0       -8.278161    2.646434   -4.438334
     87          1           0       -8.384955   -1.184274   -4.622952
     88          1           0       -8.551933   -2.830419   -3.735442
     89          1           0       -9.648565   -1.539802   -3.196039
     90          1           0       -4.134295   -3.886909   -1.485423
     91          1           0        2.477650   -6.097375    0.851501
     92          1           0        2.296264   -5.214365   -0.586246
     93          1           0        3.719073   -4.465409    1.957923
     94          1           0        2.636867   -3.342093   -1.545562
     95          1           0        3.685592   -1.973244   -1.517232
     96          1           0        4.455056   -3.518247   -1.941363
     97          1           0        5.332805   -1.422011    0.479700
     98          1           0        5.525182   -2.843016    1.697103
     99          1           0        7.069263   -3.866373    0.118171
    100          1           0        6.605653   -2.758109   -1.082958
    101          1           0        7.032021   -1.198579    0.550283
    102          1           0        8.015663   -2.239215    1.766023
    103          1           0        8.692259   -1.756827   -1.059014
    104          1           0        9.119035   -4.327924   -0.073133
    105          1           0       10.626507   -3.361302   -0.248033
    106          1           0       10.023281   -3.515809    1.260095
    107          1           0        9.605704    0.073907    0.331679
    108          1           0       10.281562   -1.079253    1.417174
    109          1           0       11.880683   -1.705961    0.073395
    110          1           0       11.204511   -1.085267   -1.424381
    111          1           0       11.777295    1.300960    0.025706
    112          1           0       12.123462    0.461544    1.270306
    113          1           0       13.250592    0.227958   -1.828474
    114          1           0       14.827318   -0.680473    0.732248
    115          1           0       14.092193   -1.525799   -0.471131
    116          1           0       15.451046   -0.725775   -0.707095
    117          1           0       13.537209    2.716557   -0.322892
    118          1           0       14.376470    1.846357    0.812204
    119          1           0       16.249138    1.586245   -0.822075
    120          1           0       15.402438    2.344217   -2.096762
    121          1           0       15.291150    4.446791   -0.880374
    122          1           0       16.327490    3.654851    0.445915
    123          1           0       17.873719    2.924701   -1.118977
    124          1           0       16.456188    4.831431   -3.004874
    125          1           0       18.200449    4.078137   -3.420031
    126          1           0       16.585302    3.300054   -3.321035
    127          1           0       17.854602    5.114797    0.361705
    128          1           0       18.847225    5.541200   -1.054402
    129          1           0       17.312395    6.115948   -0.926757
    130          1           0       -4.809750   -7.915263   -0.219673
    131          1           0       -6.218656   -7.039204    0.735878
    132          1           0       -4.726129   -6.852731    1.512197
    133          8           0       -8.017739    6.951056   -0.438788
    134          1           0       -9.117972    6.390345   -1.937032
 ---------------------------------------------------------------------

 SCF Done:  E(RCAM-B3LYP) =  -3043.40107488     A.U. after   16 cycles

 Excitation energies and oscillator strengths:

 Excited State   1:      Singlet-A      1.9499 eV  635.84 nm  f=0.2425  <S**2>=0.000
     243 -> 246       -0.21516
     244 -> 245        0.66786
 This state for optimization and/or second-order correction.
 Total Energy, E(TD-HF/TD-KS) =  -3043.32941628
 Copying the excited state density for this state as the 1-particle RhoCI density.

 The electronic state is 1-A.
 Alpha  occ. eigenvalues --  -46.81287 -19.25212 -19.20772 -19.17897 -19.17342
 Alpha  occ. eigenvalues --  -19.17195 -19.16022 -19.15961 -14.39457 -14.37219
 Alpha  occ. eigenvalues --  -14.37123 -14.36313 -10.35821 -10.35112 -10.30786
 Alpha  occ. eigenvalues --  -10.30640 -10.29804 -10.28136 -10.28029 -10.27586
 Alpha  occ. eigenvalues --  -10.27468 -10.27316 -10.26895 -10.26551 -10.26549
 Alpha  occ. eigenvalues --  -10.26389 -10.26256 -10.25891 -10.25479 -10.25389
 Alpha  occ. eigenvalues --  -10.24915 -10.24785 -10.24701 -10.24630 -10.24423
 Alpha  occ. eigenvalues --  -10.24187 -10.24059 -10.23634 -10.23468 -10.23399
 Alpha  occ. eigenvalues --  -10.23330 -10.23092 -10.23018 -10.22979 -10.22813
 Alpha  occ. eigenvalues --  -10.22787 -10.22741 -10.22634 -10.22630 -10.22046
 Alpha  occ. eigenvalues --  -10.21826 -10.21532 -10.21389 -10.21211 -10.21100
 Alpha  occ. eigenvalues --  -10.21093 -10.20727 -10.20564 -10.20513 -10.20426
 Alpha  occ. eigenvalues --  -10.20312 -10.20217 -10.20207 -10.19989 -10.19603
 Alpha  occ. eigenvalues --  -10.18382  -3.09922  -1.84866  -1.84384  -1.84335
 Alpha  occ. eigenvalues --   -1.15093  -1.14293  -1.05674  -1.05005  -1.03366
 Alpha  occ. eigenvalues --   -1.03113  -1.03109  -1.01565  -1.00587  -1.00259
 Alpha  occ. eigenvalues --   -0.98805  -0.88766  -0.87275  -0.86736  -0.85869
 Alpha  occ. eigenvalues --   -0.85310  -0.84995  -0.84444  -0.84013  -0.83870
 Alpha  occ. eigenvalues --   -0.83050  -0.82863  -0.82187  -0.81487  -0.80361
 Alpha  occ. eigenvalues --   -0.79223  -0.78870  -0.78079  -0.77269  -0.77065
 Alpha  occ. eigenvalues --   -0.76105  -0.75530  -0.74412  -0.72773  -0.72202
 Alpha  occ. eigenvalues --   -0.71997  -0.71852  -0.71400  -0.70807  -0.70195
 Alpha  occ. eigenvalues --   -0.69520  -0.69140  -0.68218  -0.67241  -0.66761
 Alpha  occ. eigenvalues --   -0.65395  -0.64985  -0.64301  -0.63112  -0.62587
 Alpha  occ. eigenvalues --   -0.61776  -0.61234  -0.60936  -0.60788  -0.59800
 Alpha  occ. eigenvalues --   -0.59470  -0.58828  -0.58569  -0.57784  -0.57498
 Alpha  occ. eigenvalues --   -0.56709  -0.56410  -0.55775  -0.55588  -0.54641
 Alpha  occ. eigenvalues --   -0.54466  -0.54310  -0.53532  -0.52973  -0.52764
 Alpha  occ. eigenvalues --   -0.52398  -0.52119  -0.51398  -0.51295  -0.51223
 Alpha  occ. eigenvalues --   -0.50704  -0.50409  -0.50134  -0.50051  -0.49238
 Alpha  occ. eigenvalues --   -0.49014  -0.48857  -0.48644  -0.48388  -0.48112
 Alpha  occ. eigenvalues --   -0.47717  -0.47612  -0.47519  -0.47228  -0.47187
 Alpha  occ. eigenvalues --   -0.46921  -0.46861  -0.46397  -0.46250  -0.45930
 Alpha  occ. eigenvalues --   -0.45497  -0.45441  -0.45156  -0.44954  -0.44753
 Alpha  occ. eigenvalues --   -0.44391  -0.44271  -0.44223  -0.44097  -0.43714
 Alpha  occ. eigenvalues --   -0.43567  -0.43498  -0.43300  -0.42969  -0.42873
 Alpha  occ. eigenvalues --   -0.42575  -0.42434  -0.42103  -0.41761  -0.41624
 Alpha  occ. eigenvalues --   -0.41393  -0.41319  -0.41218  -0.41063  -0.41032
 Alpha  occ. eigenvalues --   -0.40799  -0.40739  -0.40502  -0.40400  -0.40214
 Alpha  occ. eigenvalues --   -0.40112  -0.39934  -0.39567  -0.39325  -0.39037
 Alpha  occ. eigenvalues --   -0.38984  -0.38916  -0.38843  -0.38526  -0.38387
 Alpha  occ. eigenvalues --   -0.37854  -0.37799  -0.37622  -0.37351  -0.37235
 Alpha  occ. eigenvalues --   -0.37086  -0.36614  -0.36432  -0.36006  -0.35799
 Alpha  occ. eigenvalues --   -0.35571  -0.35185  -0.35019  -0.34917  -0.34387
 Alpha  occ. eigenvalues --   -0.34377  -0.34159  -0.33679  -0.33616  -0.33346
 Alpha  occ. eigenvalues --   -0.32270  -0.32248  -0.31981  -0.31733  -0.31310
 Alpha  occ. eigenvalues --   -0.31168  -0.30985  -0.30385  -0.29843  -0.29682
 Alpha  occ. eigenvalues --   -0.28944  -0.28128  -0.28077  -0.27867  -0.27597
 Alpha  occ. eigenvalues --   -0.27236  -0.27150  -0.22957  -0.21543
 Alpha virt. eigenvalues --   -0.09112  -0.06135  -0.01970  -0.01367  -0.00187
 Alpha virt. eigenvalues --    0.02375   0.02850   0.03091   0.03868   0.04257
 Alpha virt. eigenvalues --    0.04814   0.05321   0.07586   0.08503   0.09055

 Mulliken charges:
               1
     1  Mg   0.825554
     2  C    0.010861
     3  C   -0.200726
     4  C   -0.196110
     5  C   -0.152141
     6  N   -0.634061
     7  C    0.299303
     8  C   -0.135575
     9  C   -0.160195
    10  C    0.383207
    11  C   -0.300143
    12  C   -0.186430
    13  C   -0.281855
    14  C    0.619547
    15  O   -0.507676
    16  O   -0.432770
    17  N   -0.704816
    18  C    0.357193
    19  C   -0.005909
    20  C    0.048290
    21  C    0.270655
    22  C   -0.368566
    23  C    0.197220
    24  O   -0.451739
    25  N   -0.713362
    26  C    0.321171
    27  C    0.028175
    28  C    0.012183
    29  C    0.328938
    30  C    0.239359
    31  C   -0.250188
    32  C   -0.281381
    33  N   -0.728730
    34  C    0.276629
    35  C   -0.024592
    36  C    0.012956
    37  C    0.292568
    38  C   -0.392430
    39  C    0.375667
    40  O   -0.493965
    41  C   -0.290910
    42  C    0.615332
    43  O   -0.452343
    44  O   -0.450112
    45  C   -0.088796
    46  C   -0.014058
    47  C   -0.152842
    48  C    0.147474
    49  C   -0.392892
    50  C   -0.212966
    51  C   -0.175974
    52  C   -0.135528
    53  C   -0.065508
    54  C   -0.324044
    55  C   -0.167708
    56  C   -0.193753
    57  C   -0.164140
    58  C   -0.039687
    59  C   -0.317160
    60  C   -0.165414
    61  C   -0.177470
    62  C   -0.175213
    63  C   -0.053499
    64  C   -0.312746
    65  C   -0.300968
    66  H    0.083575
    67  H    0.137304
    68  H    0.115362
    69  H    0.128591
    70  H    0.116806
    71  H    0.122658
    72  H    0.114401
    73  H    0.105351
    74  H    0.117385
    75  H    0.133210
    76  H    0.132368
    77  H    0.134416
    78  H    0.112504
    79  H    0.162534
    80  H    0.117530
    81  H    0.102802
    82  H    0.106466
    83  H    0.063595
    84  H    0.128272
    85  H    0.130820
    86  H    0.072167
    87  H    0.138542
    88  H    0.132014
    89  H    0.135555
    90  H    0.184080
    91  H    0.121927
    92  H    0.144382
    93  H    0.085727
    94  H    0.136939
    95  H    0.126142
    96  H    0.130872
    97  H    0.060863
    98  H    0.111120
    99  H    0.097091
   100  H    0.082609
   101  H    0.080768
   102  H    0.029250
   103  H    0.083024
   104  H    0.114466
   105  H    0.122629
   106  H    0.100468
   107  H    0.092636
   108  H    0.103247
   109  H    0.109371
   110  H    0.062986
   111  H    0.095424
   112  H    0.052448
   113  H    0.057872
   114  H    0.089391
   115  H    0.109585
   116  H    0.099034
   117  H    0.099627
   118  H    0.097080
   119  H    0.088528
   120  H    0.084124
   121  H    0.091288
   122  H    0.068377
   123  H    0.088966
   124  H    0.099273
   125  H    0.085997
   126  H    0.093932
   127  H    0.087958
   128  H    0.097155
   129  H    0.120558
   130  H    0.126006
   131  H    0.136012
   132  H    0.121695
   133  O   -0.431492
   134  H    0.081148
 Sum of Mulliken charges =   0.00000

 Dipole moment (field-independent basis, Debye):
    X=              3.4944    Y=             -5.4221    Z=             -0.0175  Tot=              6.4506
 Quadrupole moment (field-independent basis, Debye-Ang):
   XX=           -379.5688   YY=           -435.2336   ZZ=           -398.3797
   XY=             -3.5124   XZ=             19.1013   YZ=            -40.6747

 Normal termination of Gaussian 09 at Tue Oct  8 14:49:48 2019.
