 Gaussian 09, Revision D.01,
 Gaussian 09:  ES64L-G09RevD.01 24-Apr-2013

 ----------------------------------------------------------------------
 # td=(NStates=1) iop(3/107=0140000000,3/108=0140000000) iop(3/107=0140
 000000,3/108=0140000000) CAM-B3LYP/6-31G(d,p)
 ----------------------------------------------------------------------

 --
 TD
 --
 Symbolic Z-matrix:
 Charge =  0 Multiplicity = 1

                         Standard orientation:
 ---------------------------------------------------------------------
 Center     Atomic      Atomic             Coordinates (Angstroms)
 Number     Number       Type             X           Y           Z
 ---------------------------------------------------------------------
      1         12           0       -5.682284    1.252347    0.247230
      2          6           0       -5.101424   -2.071325   -0.461330
      3          6           0       -3.516860    1.160926    2.876843
      4          6           0       -6.049591    4.616228    0.640879
      5          6           0       -7.912124    1.295966   -2.384125
      6          7           0       -4.450139   -0.245065    1.068082
      7          6           0       -4.240189   -1.626481    0.610149
      8          6           0       -3.269456   -2.412743    1.455429
      9          6           0       -3.067263   -1.452210    2.649339
     10          6           0       -3.693795   -0.063622    2.130385
     11          6           0       -3.610380   -1.821850    4.014321
     12          6           0       -2.055085   -2.698832    0.715327
     13          6           0       -1.067389   -3.623548    1.370440
     14          6           0        0.248373   -3.923069    0.606720
     15          8           0        0.536301   -3.462845   -0.380714
     16          8           0        0.994418   -4.808512    1.343925
     17          7           0       -4.925265    2.628801    1.503278
     18          6           0       -4.014528    2.439942    2.514595
     19          6           0       -3.663555    3.614366    3.270438
     20          6           0       -4.386185    4.644016    2.561009
     21          6           0       -5.138016    4.001222    1.465095
     22          6           0       -2.771237    3.896698    4.414988
     23          6           0       -4.421044    6.110154    2.788050
     24          8           0       -3.879469    6.647079    3.745785
     25          7           0       -6.802790    2.715656   -0.728802
     26          6           0       -6.883008    4.015143   -0.380057
     27          6           0       -7.864437    4.571847   -1.101418
     28          6           0       -8.417404    3.581890   -1.963040
     29          6           0       -7.749430    2.498160   -1.680584
     30          6           0       -8.251062    5.973398   -1.187852
     31          6           0       -9.427029    3.770057   -3.092689
     32          6           0       -8.842332    3.984535   -4.491540
     33          7           0       -6.369972   -0.077528   -1.174520
     34          6           0       -7.281195    0.040870   -2.108427
     35          6           0       -7.536392   -1.330579   -2.731361
     36          6           0       -6.674984   -2.188274   -2.111565
     37          6           0       -6.008299   -1.382134   -1.129477
     38          6           0       -8.522828   -1.596911   -3.833855
     39          6           0       -6.265477   -3.520814   -2.082887
     40          8           0       -6.594314   -4.532689   -2.716214
     41          6           0       -5.065657   -3.495918   -0.873198
     42          6           0       -5.420473   -4.590528    0.089448
     43          8           0       -5.797768   -4.548280    1.264758
     44          8           0       -5.055825   -5.805506   -0.418591
     45          6           0       -5.302959   -6.952486    0.444649
     46          6           0        2.316231   -5.129860    0.701077
     47          6           0        3.455616   -4.198017    1.161346
     48          6           0        4.086935   -3.336157    0.264676
     49          6           0        3.707357   -3.086877   -1.183479
     50          6           0        5.140507   -2.422704    0.753512
     51          6           0        6.471888   -2.656678    0.059122
     52          6           0        7.593717   -1.829328    0.664323
     53          6           0        8.980232   -1.971821   -0.012254
     54          6           0        9.634506   -3.354252    0.071701
     55          6           0        9.892153   -0.834281    0.436328
     56          6           0       11.331663   -0.862764   -0.275836
     57          6           0       12.336045    0.236397    0.109836
     58          6           0       13.565135    0.432179   -0.668620
     59          6           0       14.522351   -0.843103   -0.621654
     60          6           0       14.261708    1.694401   -0.290003
     61          6           0       15.559315    2.077737   -0.870773
     62          6           0       15.966392    3.492689   -0.597998
     63          6           0       17.241424    3.939700   -1.351975
     64          6           0       17.192212    4.008943   -2.806953
     65          6           0       17.805834    5.261843   -0.754662
     66          1           0       -2.744896    1.202732    3.605451
     67          1           0       -6.094237    5.666808    0.613732
     68          1           0       -8.678803    1.173162   -3.282564
     69          1           0       -3.623779   -3.455924    1.637577
     70          1           0       -2.005673   -1.258814    2.772554
     71          1           0       -3.152174   -2.675755    4.459861
     72          1           0       -3.512881   -1.024111    4.728968
     73          1           0       -4.892785   -2.078038    3.789788
     74          1           0       -2.311542   -3.091784   -0.156362
     75          1           0       -1.563833   -1.612442    0.573024
     76          1           0       -0.785464   -3.293263    2.401705
     77          1           0       -1.496918   -4.578119    1.590598
     78          1           0       -1.774615    3.563785    4.259101
     79          1           0       -2.586088    5.007564    4.750249
     80          1           0       -2.839697    3.346631    5.315643
     81          1           0       -5.090316    6.782067    1.988864
     82          1           0      -10.236866    2.812554   -3.417857
     83          1           0      -10.099309    4.661888   -2.763780
     84          1           0       -9.550523    4.212408   -5.274665
     85          1           0       -8.148288    4.648990   -4.521098
     86          1           0       -8.353414    2.859574   -4.826448
     87          1           0       -8.450980   -0.998355   -4.736704
     88          1           0       -8.382123   -2.714721   -4.345091
     89          1           0       -9.650281   -1.407782   -3.764991
     90          1           0       -4.089165   -3.626349   -1.514409
     91          1           0        2.556489   -6.185310    0.936838
     92          1           0        2.132856   -4.891028   -0.411278
     93          1           0        3.974827   -4.394118    2.020583
     94          1           0        2.751940   -3.275635   -1.470855
     95          1           0        3.772538   -1.993156   -1.495574
     96          1           0        4.280368   -3.783012   -1.755098
     97          1           0        4.693071   -1.484374    0.747091
     98          1           0        5.257463   -2.693581    1.906619
     99          1           0        6.690806   -3.619645    0.125990
    100          1           0        6.404601   -2.493700   -1.074234
    101          1           0        7.253977   -0.723616    0.378536
    102          1           0        7.892631   -1.990005    1.783819
    103          1           0        8.694720   -1.788717   -1.102844
    104          1           0        8.943706   -4.080631   -0.280604
    105          1           0       10.496839   -3.443028   -0.449738
    106          1           0        9.720769   -3.475139    1.103385
    107          1           0        9.415870    0.196277    0.199770
    108          1           0       10.172466   -0.884027    1.541304
    109          1           0       11.678955   -1.973736   -0.387132
    110          1           0       11.223317   -0.812172   -1.433356
    111          1           0       11.844251    1.277891    0.183707
    112          1           0       12.596626    0.059889    1.144557
    113          1           0       13.262963    0.505776   -1.695516
    114          1           0       14.726739   -0.884657    0.436099
    115          1           0       13.897282   -1.666600   -1.020678
    116          1           0       15.558791   -0.676319   -1.145633
    117          1           0       13.563218    2.600770   -0.157078
    118          1           0       14.422039    1.387700    0.743514
    119          1           0       16.425195    1.360908   -0.625136
    120          1           0       15.477963    2.131755   -1.963189
    121          1           0       15.221077    4.135505   -1.000751
    122          1           0       15.893882    3.678292    0.414173
    123          1           0       17.990852    3.083425   -1.090303
    124          1           0       16.330862    4.750848   -3.275862
    125          1           0       18.030224    4.228662   -3.469689
    126          1           0       17.063679    3.053686   -3.148675
    127          1           0       17.980853    5.019555    0.336793
    128          1           0       18.688746    5.720788   -1.224690
    129          1           0       17.038346    6.026492   -1.024469
    130          1           0       -5.088338   -7.745012   -0.272806
    131          1           0       -6.446973   -6.914001    0.884412
    132          1           0       -4.613658   -6.958753    1.328404
    133          8           0       -7.677447    6.851479   -0.537508
    134          1           0       -8.851822    6.089182   -1.932553
 ---------------------------------------------------------------------

 SCF Done:  E(RCAM-B3LYP) =  -3043.47456812     A.U. after   16 cycles

 Excitation energies and oscillator strengths:

 Excited State   1:      Singlet-A      2.0928 eV  592.44 nm  f=0.0712  <S**2>=0.000
     243 -> 246       -0.38413
     244 -> 245        0.57918
 This state for optimization and/or second-order correction.
 Total Energy, E(TD-HF/TD-KS) =  -3043.39766080
 Copying the excited state density for this state as the 1-particle RhoCI density.

 The electronic state is 1-A.
 Alpha  occ. eigenvalues --  -46.81872 -19.21995 -19.21041 -19.18406 -19.18018
 Alpha  occ. eigenvalues --  -19.17379 -19.17234 -19.16306 -14.39911 -14.37376
 Alpha  occ. eigenvalues --  -14.37025 -14.35592 -10.35531 -10.34405 -10.32530
 Alpha  occ. eigenvalues --  -10.31398 -10.28992 -10.28583 -10.28321 -10.28295
 Alpha  occ. eigenvalues --  -10.27942 -10.27432 -10.27052 -10.27026 -10.26514
 Alpha  occ. eigenvalues --  -10.26192 -10.26043 -10.26041 -10.25933 -10.25886
 Alpha  occ. eigenvalues --  -10.25072 -10.24850 -10.24668 -10.24433 -10.24390
 Alpha  occ. eigenvalues --  -10.24228 -10.24096 -10.23619 -10.23594 -10.23357
 Alpha  occ. eigenvalues --  -10.23132 -10.23110 -10.23013 -10.22885 -10.22644
 Alpha  occ. eigenvalues --  -10.22593 -10.22445 -10.22327 -10.22166 -10.22121
 Alpha  occ. eigenvalues --  -10.22039 -10.21930 -10.21752 -10.21248 -10.21156
 Alpha  occ. eigenvalues --  -10.21054 -10.20949 -10.20932 -10.20574 -10.20562
 Alpha  occ. eigenvalues --  -10.20486 -10.20311 -10.20287 -10.20131 -10.19413
 Alpha  occ. eigenvalues --  -10.18944  -3.10415  -1.85355  -1.84866  -1.84843
 Alpha  occ. eigenvalues --   -1.15495  -1.12587  -1.06632  -1.06417  -1.05737
 Alpha  occ. eigenvalues --   -1.05286  -1.03240  -1.02380  -1.01186  -0.99734
 Alpha  occ. eigenvalues --   -0.98757  -0.90510  -0.87921  -0.86567  -0.86335
 Alpha  occ. eigenvalues --   -0.85504  -0.84567  -0.84394  -0.83877  -0.83709
 Alpha  occ. eigenvalues --   -0.83148  -0.82512  -0.81532  -0.80134  -0.79585
 Alpha  occ. eigenvalues --   -0.79151  -0.78769  -0.78103  -0.77006  -0.76493
 Alpha  occ. eigenvalues --   -0.75437  -0.75334  -0.74748  -0.73760  -0.72612
 Alpha  occ. eigenvalues --   -0.72054  -0.71464  -0.70890  -0.70375  -0.70342
 Alpha  occ. eigenvalues --   -0.69656  -0.68909  -0.68245  -0.67203  -0.66856
 Alpha  occ. eigenvalues --   -0.66190  -0.65269  -0.64773  -0.62940  -0.62293
 Alpha  occ. eigenvalues --   -0.61423  -0.61040  -0.60144  -0.59148  -0.58959
 Alpha  occ. eigenvalues --   -0.58406  -0.58173  -0.57821  -0.57580  -0.57204
 Alpha  occ. eigenvalues --   -0.56664  -0.55983  -0.55687  -0.55562  -0.54805
 Alpha  occ. eigenvalues --   -0.54364  -0.54042  -0.53208  -0.53032  -0.52522
 Alpha  occ. eigenvalues --   -0.51867  -0.51720  -0.51206  -0.51087  -0.50559
 Alpha  occ. eigenvalues --   -0.50328  -0.50034  -0.49759  -0.49553  -0.49336
 Alpha  occ. eigenvalues --   -0.48847  -0.48644  -0.48551  -0.48321  -0.48295
 Alpha  occ. eigenvalues --   -0.47963  -0.47678  -0.47407  -0.47067  -0.46963
 Alpha  occ. eigenvalues --   -0.46895  -0.46696  -0.46367  -0.46059  -0.45874
 Alpha  occ. eigenvalues --   -0.45707  -0.45505  -0.45230  -0.45101  -0.44863
 Alpha  occ. eigenvalues --   -0.44787  -0.44540  -0.44308  -0.44030  -0.43873
 Alpha  occ. eigenvalues --   -0.43568  -0.43494  -0.43297  -0.43193  -0.42865
 Alpha  occ. eigenvalues --   -0.42680  -0.42601  -0.42428  -0.42278  -0.42169
 Alpha  occ. eigenvalues --   -0.41670  -0.41568  -0.41391  -0.41356  -0.41313
 Alpha  occ. eigenvalues --   -0.41153  -0.40974  -0.40807  -0.40490  -0.40202
 Alpha  occ. eigenvalues --   -0.40197  -0.40033  -0.39940  -0.39847  -0.39717
 Alpha  occ. eigenvalues --   -0.39310  -0.39110  -0.38859  -0.38656  -0.38337
 Alpha  occ. eigenvalues --   -0.38217  -0.37883  -0.37772  -0.37359  -0.37164
 Alpha  occ. eigenvalues --   -0.36559  -0.36490  -0.36474  -0.36180  -0.36034
 Alpha  occ. eigenvalues --   -0.35668  -0.35416  -0.35394  -0.35294  -0.34471
 Alpha  occ. eigenvalues --   -0.34348  -0.34254  -0.34045  -0.32903  -0.32839
 Alpha  occ. eigenvalues --   -0.32798  -0.32415  -0.32295  -0.32031  -0.31981
 Alpha  occ. eigenvalues --   -0.31483  -0.31355  -0.31166  -0.30838  -0.30254
 Alpha  occ. eigenvalues --   -0.29665  -0.28240  -0.28111  -0.27655  -0.27477
 Alpha  occ. eigenvalues --   -0.26964  -0.26863  -0.22827  -0.22246
 Alpha virt. eigenvalues --   -0.08420  -0.07647  -0.03520  -0.00588   0.00636
 Alpha virt. eigenvalues --    0.01749   0.02888   0.03089   0.04174   0.04761
 Alpha virt. eigenvalues --    0.05265   0.06090   0.06299   0.08434   0.08989

 Mulliken charges:
               1
     1  Mg   0.826288
     2  C    0.046548
     3  C   -0.191702
     4  C   -0.160075
     5  C   -0.163081
     6  N   -0.615514
     7  C    0.278412
     8  C   -0.129117
     9  C   -0.139959
    10  C    0.340285
    11  C   -0.286452
    12  C   -0.141026
    13  C   -0.289384
    14  C    0.600874
    15  O   -0.399111
    16  O   -0.494867
    17  N   -0.715819
    18  C    0.296970
    19  C    0.103409
    20  C   -0.043556
    21  C    0.330015
    22  C   -0.423593
    23  C    0.238445
    24  O   -0.411513
    25  N   -0.723203
    26  C    0.316781
    27  C   -0.083999
    28  C    0.072702
    29  C    0.310530
    30  C    0.288259
    31  C   -0.244870
    32  C   -0.278883
    33  N   -0.708042
    34  C    0.282059
    35  C    0.022456
    36  C    0.139042
    37  C    0.310527
    38  C   -0.421235
    39  C    0.309679
    40  O   -0.452844
    41  C   -0.362023
    42  C    0.625471
    43  O   -0.488563
    44  O   -0.447573
    45  C   -0.076066
    46  C   -0.017678
    47  C   -0.125203
    48  C    0.109919
    49  C   -0.377405
    50  C   -0.218152
    51  C   -0.169485
    52  C   -0.156665
    53  C   -0.072092
    54  C   -0.306461
    55  C   -0.156759
    56  C   -0.194280
    57  C   -0.158648
    58  C   -0.069271
    59  C   -0.311121
    60  C   -0.166750
    61  C   -0.169582
    62  C   -0.172212
    63  C   -0.058440
    64  C   -0.301354
    65  C   -0.300643
    66  H    0.077530
    67  H    0.121920
    68  H    0.092683
    69  H    0.127636
    70  H    0.107342
    71  H    0.120765
    72  H    0.120999
    73  H    0.083221
    74  H    0.112465
    75  H    0.086337
    76  H    0.128021
    77  H    0.132504
    78  H    0.129238
    79  H    0.166778
    80  H    0.132268
    81  H    0.075777
    82  H    0.075942
    83  H    0.099023
    84  H    0.117652
    85  H    0.128436
    86  H    0.064917
    87  H    0.136270
    88  H    0.128532
    89  H    0.132817
    90  H    0.167665
    91  H    0.116205
    92  H    0.122891
    93  H    0.081136
    94  H    0.150997
    95  H    0.103592
    96  H    0.127886
    97  H    0.120112
    98  H    0.075764
    99  H    0.109884
   100  H    0.092035
   101  H    0.077741
   102  H    0.077329
   103  H    0.069047
   104  H    0.100139
   105  H    0.116480
   106  H    0.105779
   107  H    0.087336
   108  H    0.083368
   109  H    0.080212
   110  H    0.070596
   111  H    0.081971
   112  H    0.087290
   113  H    0.081459
   114  H    0.102833
   115  H    0.106359
   116  H    0.095031
   117  H    0.077530
   118  H    0.083788
   119  H    0.080097
   120  H    0.094846
   121  H    0.093881
   122  H    0.096706
   123  H    0.065529
   124  H    0.066277
   125  H    0.107687
   126  H    0.112885
   127  H    0.094797
   128  H    0.099658
   129  H    0.093608
   130  H    0.132861
   131  H    0.122084
   132  H    0.123389
   133  O   -0.451831
   134  H    0.061600
 Sum of Mulliken charges =   0.00000

 Dipole moment (field-independent basis, Debye):
    X=              2.4804    Y=             -5.0722    Z=             -1.6747  Tot=              5.8893
 Quadrupole moment (field-independent basis, Debye-Ang):
   XX=           -388.9314   YY=           -446.4791   ZZ=           -389.9097
   XY=              3.8126   XZ=             22.8113   YZ=            -28.5345

 Normal termination of Gaussian 09 at Tue Oct  8 05:49:16 2019.
