 Gaussian 09, Revision D.01,
 Gaussian 09:  ES64L-G09RevD.01 24-Apr-2013

 ----------------------------------------------------------------------
 # td=(NStates=1) iop(3/107=0140000000,3/108=0140000000) iop(3/107=0140
 000000,3/108=0140000000) CAM-B3LYP/6-31G(d,p)
 ----------------------------------------------------------------------

 --
 TD
 --
 Symbolic Z-matrix:
 Charge =  0 Multiplicity = 1

                         Standard orientation:
 ---------------------------------------------------------------------
 Center     Atomic      Atomic             Coordinates (Angstroms)
 Number     Number       Type             X           Y           Z
 ---------------------------------------------------------------------
      1         12           0       -5.595622    1.218715    0.108321
      2          6           0       -5.044625   -2.113115   -0.319373
      3          6           0       -3.291070    1.146171    2.748288
      4          6           0       -6.160878    4.601611    0.625944
      5          6           0       -7.995071    1.254529   -2.396352
      6          7           0       -4.388581   -0.275845    1.089701
      7          6           0       -4.274546   -1.564085    0.689680
      8          6           0       -3.280223   -2.386029    1.439610
      9          6           0       -2.942790   -1.380170    2.607092
     10          6           0       -3.553640   -0.079698    2.205584
     11          6           0       -3.544806   -1.736553    3.982577
     12          6           0       -2.073592   -2.802297    0.666008
     13          6           0       -1.046029   -3.486228    1.463998
     14          6           0        0.153145   -3.837601    0.639937
     15          8           0        0.449121   -3.300795   -0.416097
     16          8           0        1.019097   -4.734083    1.182128
     17          7           0       -4.911416    2.731289    1.366420
     18          6           0       -3.932051    2.360456    2.409710
     19          6           0       -3.727119    3.613970    3.096683
     20          6           0       -4.445782    4.603806    2.518391
     21          6           0       -5.127038    4.027694    1.455385
     22          6           0       -2.715305    3.741921    4.184512
     23          6           0       -4.542218    5.964547    2.924688
     24          8           0       -3.915612    6.490709    3.841954
     25          7           0       -6.721813    2.597199   -0.769831
     26          6           0       -6.967254    3.986315   -0.290962
     27          6           0       -7.957485    4.612663   -1.184129
     28          6           0       -8.482684    3.614302   -1.979868
     29          6           0       -7.752340    2.437517   -1.701718
     30          6           0       -8.292124    6.050377   -1.105222
     31          6           0       -9.480558    3.758067   -3.159508
     32          6           0       -8.898071    3.957499   -4.508193
     33          7           0       -6.416421   -0.173570   -1.067067
     34          6           0       -7.412409    0.019503   -2.057645
     35          6           0       -7.573863   -1.272258   -2.762253
     36          6           0       -6.628061   -2.205643   -2.119505
     37          6           0       -5.944660   -1.362004   -1.149427
     38          6           0       -8.593326   -1.754140   -3.706544
     39          6           0       -6.162505   -3.520973   -2.025393
     40          8           0       -6.644700   -4.513160   -2.599548
     41          6           0       -5.115644   -3.611458   -0.923764
     42          6           0       -5.343546   -4.714392    0.103830
     43          8           0       -5.632123   -4.467877    1.276618
     44          8           0       -5.026251   -5.857529   -0.362499
     45          6           0       -5.392466   -6.956645    0.467963
     46          6           0        2.313918   -4.980391    0.540903
     47          6           0        3.349689   -3.899770    0.974172
     48          6           0        4.021738   -3.157034    0.081969
     49          6           0        3.706269   -3.033254   -1.381612
     50          6           0        5.055960   -2.215502    0.614559
     51          6           0        6.504840   -2.563426    0.157814
     52          6           0        7.635336   -1.678847    0.612026
     53          6           0        9.015399   -1.846226   -0.021261
     54          6           0        9.496687   -3.312549    0.125160
     55          6           0       10.013577   -0.864395    0.592803
     56          6           0       11.309366   -0.770758   -0.206506
     57          6           0       12.216317    0.281639    0.319141
     58          6           0       13.515859    0.465813   -0.436819
     59          6           0       14.411859   -0.751681   -0.229490
     60          6           0       14.263233    1.764487    0.013986
     61          6           0       15.533595    1.977104   -0.863577
     62          6           0       16.114998    3.469678   -0.660611
     63          6           0       17.407674    3.728581   -1.540710
     64          6           0       17.218201    3.673269   -3.110131
     65          6           0       17.994297    5.136899   -1.010481
     66          1           0       -2.634240    1.121915    3.460857
     67          1           0       -6.481139    5.659793    0.547274
     68          1           0       -8.867480    1.382174   -3.138148
     69          1           0       -3.757649   -3.399476    1.730767
     70          1           0       -1.814286   -1.064017    2.637361
     71          1           0       -2.989807   -2.585527    4.468510
     72          1           0       -3.378000   -0.953662    4.774102
     73          1           0       -4.642447   -2.059891    3.971891
     74          1           0       -2.331524   -3.478936   -0.060813
     75          1           0       -1.482401   -2.071988    0.060960
     76          1           0       -0.709128   -2.846909    2.275619
     77          1           0       -1.216332   -4.506857    2.109141
     78          1           0       -1.572002    3.590531    3.832417
     79          1           0       -2.704171    4.900615    4.394481
     80          1           0       -2.948670    3.167887    5.035804
     81          1           0       -5.349625    6.485702    2.344430
     82          1           0      -10.104699    2.884546   -3.234665
     83          1           0      -10.015323    4.609394   -2.898501
     84          1           0       -9.653074    4.370552   -5.229164
     85          1           0       -7.994105    4.623858   -4.417900
     86          1           0       -8.539730    2.855156   -4.920248
     87          1           0       -8.503064   -1.244713   -4.626541
     88          1           0       -8.139656   -2.838094   -3.939014
     89          1           0       -9.528968   -1.729492   -3.367196
     90          1           0       -4.217526   -4.035437   -1.434227
     91          1           0        2.786102   -6.029661    0.876231
     92          1           0        2.137573   -5.081535   -0.557870
     93          1           0        3.588480   -3.891231    1.946046
     94          1           0        2.646806   -3.154088   -1.375226
     95          1           0        3.746431   -2.027075   -1.612510
     96          1           0        4.202860   -3.882149   -2.007983
     97          1           0        5.060084   -1.004987    0.132570
     98          1           0        4.980326   -2.238357    1.833943
     99          1           0        6.638949   -3.651402    0.458522
    100          1           0        6.518920   -2.494932   -0.903350
    101          1           0        7.203019   -0.779680    0.471462
    102          1           0        7.583336   -1.678775    1.826851
    103          1           0        8.850736   -1.568929   -1.043513
    104          1           0        8.985808   -3.969722   -0.485988
    105          1           0       10.480492   -3.371757   -0.409747
    106          1           0        9.435660   -3.564352    1.188072
    107          1           0        9.745608    0.275872    0.689538
    108          1           0       10.393684   -1.155766    1.621012
    109          1           0       11.910271   -1.678437   -0.200404
    110          1           0       11.155432   -0.382320   -1.267258
    111          1           0       11.759316    1.304776    0.313214
    112          1           0       12.535264    0.031352    1.304206
    113          1           0       13.401935    0.735555   -1.509594
    114          1           0       14.684981   -0.858041    0.780175
    115          1           0       13.774952   -1.842444   -0.378794
    116          1           0       15.378226   -1.054998   -0.741218
    117          1           0       13.582261    2.614708    0.019715
    118          1           0       14.459052    1.926482    1.137940
    119          1           0       16.235447    1.218115   -0.571120
    120          1           0       15.336397    1.632743   -2.106837
    121          1           0       15.428567    4.113691   -1.095428
    122          1           0       16.369950    3.425692    0.362863
    123          1           0       18.157144    2.869989   -1.280719
    124          1           0       16.433580    4.437412   -3.598471
    125          1           0       17.995126    3.908990   -3.601835
    126          1           0       16.872820    2.718143   -3.444071
    127          1           0       18.423706    5.097018    0.020572
    128          1           0       18.831277    5.441012   -1.760881
    129          1           0       17.236115    5.778656   -1.016807
    130          1           0       -5.095663   -7.835609   -0.031403
    131          1           0       -6.537092   -6.970457    0.785274
    132          1           0       -5.142209   -6.897974    1.574560
    133          8           0       -7.839370    6.788370   -0.315112
    134          1           0       -9.011960    6.326414   -1.681018
 ---------------------------------------------------------------------

 SCF Done:  E(RCAM-B3LYP) =  -3043.48231183     A.U. after   16 cycles

 Excitation energies and oscillator strengths:

 Excited State   1:      Singlet-A      1.9092 eV  649.42 nm  f=0.2314  <S**2>=0.000
     243 -> 246       -0.21361
     244 -> 245        0.66639
 This state for optimization and/or second-order correction.
 Total Energy, E(TD-HF/TD-KS) =  -3043.41215122
 Copying the excited state density for this state as the 1-particle RhoCI density.

 The electronic state is 1-A.
 Alpha  occ. eigenvalues --  -46.80731 -19.25311 -19.21894 -19.18313 -19.17129
 Alpha  occ. eigenvalues --  -19.16721 -19.16238 -19.15942 -14.38950 -14.36798
 Alpha  occ. eigenvalues --  -14.36760 -14.36381 -10.35665 -10.34997 -10.30476
 Alpha  occ. eigenvalues --  -10.29897 -10.29184 -10.29166 -10.28890 -10.27382
 Alpha  occ. eigenvalues --  -10.27284 -10.27095 -10.26381 -10.26358 -10.26259
 Alpha  occ. eigenvalues --  -10.25917 -10.25783 -10.25698 -10.25603 -10.25318
 Alpha  occ. eigenvalues --  -10.25229 -10.24754 -10.24675 -10.24341 -10.24332
 Alpha  occ. eigenvalues --  -10.24104 -10.23935 -10.23554 -10.23440 -10.23319
 Alpha  occ. eigenvalues --  -10.23059 -10.22981 -10.22980 -10.22729 -10.22322
 Alpha  occ. eigenvalues --  -10.22303 -10.22205 -10.22183 -10.21810 -10.21776
 Alpha  occ. eigenvalues --  -10.21644 -10.21529 -10.21299 -10.21252 -10.21011
 Alpha  occ. eigenvalues --  -10.20890 -10.20886 -10.20628 -10.20437 -10.20179
 Alpha  occ. eigenvalues --  -10.20152 -10.20121 -10.19974 -10.19923 -10.19769
 Alpha  occ. eigenvalues --  -10.19593  -3.09406  -1.84341  -1.83876  -1.83820
 Alpha  occ. eigenvalues --   -1.17714  -1.12671  -1.10929  -1.05345  -1.05169
 Alpha  occ. eigenvalues --   -1.05008  -1.03654  -1.00725  -0.99502  -0.98820
 Alpha  occ. eigenvalues --   -0.96827  -0.87860  -0.86923  -0.86066  -0.85652
 Alpha  occ. eigenvalues --   -0.85438  -0.84984  -0.84030  -0.83948  -0.83503
 Alpha  occ. eigenvalues --   -0.82624  -0.82017  -0.81713  -0.80562  -0.79924
 Alpha  occ. eigenvalues --   -0.79587  -0.78709  -0.78110  -0.77631  -0.76241
 Alpha  occ. eigenvalues --   -0.75432  -0.74846  -0.74230  -0.73603  -0.72330
 Alpha  occ. eigenvalues --   -0.71698  -0.71653  -0.70347  -0.70158  -0.69816
 Alpha  occ. eigenvalues --   -0.69497  -0.69011  -0.67862  -0.66757  -0.66053
 Alpha  occ. eigenvalues --   -0.65577  -0.64927  -0.64450  -0.62292  -0.62112
 Alpha  occ. eigenvalues --   -0.61558  -0.61210  -0.60148  -0.59576  -0.59422
 Alpha  occ. eigenvalues --   -0.59144  -0.58626  -0.58119  -0.57816  -0.56859
 Alpha  occ. eigenvalues --   -0.56370  -0.56128  -0.55747  -0.55403  -0.54671
 Alpha  occ. eigenvalues --   -0.54099  -0.53951  -0.53208  -0.52861  -0.52594
 Alpha  occ. eigenvalues --   -0.51987  -0.51940  -0.51702  -0.51276  -0.50725
 Alpha  occ. eigenvalues --   -0.50512  -0.50260  -0.50137  -0.49350  -0.49252
 Alpha  occ. eigenvalues --   -0.48950  -0.48509  -0.48396  -0.48136  -0.47730
 Alpha  occ. eigenvalues --   -0.47411  -0.47384  -0.47147  -0.46988  -0.46650
 Alpha  occ. eigenvalues --   -0.46477  -0.46330  -0.46062  -0.45923  -0.45810
 Alpha  occ. eigenvalues --   -0.45736  -0.45684  -0.45383  -0.45253  -0.44940
 Alpha  occ. eigenvalues --   -0.44721  -0.44347  -0.44221  -0.44168  -0.43983
 Alpha  occ. eigenvalues --   -0.43694  -0.43233  -0.43121  -0.42853  -0.42768
 Alpha  occ. eigenvalues --   -0.42493  -0.42379  -0.42089  -0.41668  -0.41582
 Alpha  occ. eigenvalues --   -0.41384  -0.41251  -0.40979  -0.40777  -0.40628
 Alpha  occ. eigenvalues --   -0.40555  -0.40264  -0.40199  -0.40103  -0.39865
 Alpha  occ. eigenvalues --   -0.39756  -0.39567  -0.39340  -0.39176  -0.38891
 Alpha  occ. eigenvalues --   -0.38788  -0.38708  -0.38495  -0.38280  -0.38081
 Alpha  occ. eigenvalues --   -0.37988  -0.37656  -0.37243  -0.37108  -0.36750
 Alpha  occ. eigenvalues --   -0.36575  -0.36407  -0.35968  -0.35606  -0.35500
 Alpha  occ. eigenvalues --   -0.35241  -0.35191  -0.34810  -0.34770  -0.33979
 Alpha  occ. eigenvalues --   -0.33821  -0.33664  -0.33599  -0.33225  -0.33146
 Alpha  occ. eigenvalues --   -0.33087  -0.32978  -0.32681  -0.32117  -0.31645
 Alpha  occ. eigenvalues --   -0.31449  -0.30870  -0.30274  -0.30117  -0.29915
 Alpha  occ. eigenvalues --   -0.29145  -0.28568  -0.27767  -0.27426  -0.27381
 Alpha  occ. eigenvalues --   -0.27071  -0.26719  -0.23082  -0.21470
 Alpha virt. eigenvalues --   -0.09318  -0.06439  -0.01463  -0.00345   0.00543
 Alpha virt. eigenvalues --    0.02654   0.02932   0.03662   0.03882   0.04575
 Alpha virt. eigenvalues --    0.05037   0.06041   0.07531   0.08947   0.09134

 Mulliken charges:
               1
     1  Mg   0.816119
     2  C    0.062874
     3  C   -0.133013
     4  C   -0.203150
     5  C   -0.159318
     6  N   -0.640994
     7  C    0.330423
     8  C   -0.154233
     9  C   -0.166454
    10  C    0.330160
    11  C   -0.314583
    12  C   -0.182134
    13  C   -0.262033
    14  C    0.606359
    15  O   -0.471968
    16  O   -0.479821
    17  N   -0.704692
    18  C    0.282179
    19  C    0.031551
    20  C    0.019964
    21  C    0.320996
    22  C   -0.405205
    23  C    0.240893
    24  O   -0.436971
    25  N   -0.673953
    26  C    0.245568
    27  C   -0.055468
    28  C    0.002718
    29  C    0.325695
    30  C    0.307395
    31  C   -0.230091
    32  C   -0.287525
    33  N   -0.724400
    34  C    0.269613
    35  C   -0.010228
    36  C    0.057566
    37  C    0.302717
    38  C   -0.383418
    39  C    0.326818
    40  O   -0.488930
    41  C   -0.315280
    42  C    0.636005
    43  O   -0.494704
    44  O   -0.382259
    45  C   -0.109472
    46  C   -0.000664
    47  C   -0.126163
    48  C    0.161240
    49  C   -0.381682
    50  C   -0.218976
    51  C   -0.175622
    52  C   -0.154021
    53  C   -0.054327
    54  C   -0.312148
    55  C   -0.156097
    56  C   -0.166769
    57  C   -0.178990
    58  C   -0.040404
    59  C   -0.313214
    60  C   -0.184164
    61  C   -0.181331
    62  C   -0.160621
    63  C   -0.064039
    64  C   -0.309702
    65  C   -0.312879
    66  H    0.066959
    67  H    0.144459
    68  H    0.089181
    69  H    0.141735
    70  H    0.105901
    71  H    0.105257
    72  H    0.110444
    73  H    0.133642
    74  H    0.118671
    75  H    0.137977
    76  H    0.146411
    77  H    0.112237
    78  H    0.101665
    79  H    0.156370
    80  H    0.124895
    81  H    0.076137
    82  H    0.118658
    83  H    0.114565
    84  H    0.116532
    85  H    0.114803
    86  H    0.082429
    87  H    0.126994
    88  H    0.144419
    89  H    0.144773
    90  H    0.159751
    91  H    0.107017
    92  H    0.126965
    93  H    0.083644
    94  H    0.157230
    95  H    0.121110
    96  H    0.112533
    97  H    0.051995
    98  H    0.071081
    99  H    0.080937
   100  H    0.097770
   101  H    0.094683
   102  H    0.051036
   103  H    0.088225
   104  H    0.114178
   105  H    0.096639
   106  H    0.111076
   107  H    0.078021
   108  H    0.084404
   109  H    0.098183
   110  H    0.077102
   111  H    0.079562
   112  H    0.090577
   113  H    0.087737
   114  H    0.115564
   115  H    0.052525
   116  H    0.103727
   117  H    0.087457
   118  H    0.072068
   119  H    0.106205
   120  H    0.043718
   121  H    0.108978
   122  H    0.105768
   123  H    0.068738
   124  H    0.067896
   125  H    0.119822
   126  H    0.110271
   127  H    0.099152
   128  H    0.083668
   129  H    0.119214
   130  H    0.136050
   131  H    0.121862
   132  H    0.140178
   133  O   -0.394924
   134  H    0.060754
 Sum of Mulliken charges =   0.00000

 Dipole moment (field-independent basis, Debye):
    X=              0.3708    Y=             -4.6685    Z=             -1.9979  Tot=              5.0916
 Quadrupole moment (field-independent basis, Debye-Ang):
   XX=           -361.4195   YY=           -425.5740   ZZ=           -397.1713
   XY=             -1.3562   XZ=             27.2485   YZ=            -42.2016

 Normal termination of Gaussian 09 at Sat Oct  5 01:28:33 2019.
