 Gaussian 09, Revision D.01,
 Gaussian 09:  ES64L-G09RevD.01 24-Apr-2013

 ----------------------------------------------------------------------
 # td=(NStates=1) iop(3/107=0140000000,3/108=0140000000) iop(3/107=0140
 000000,3/108=0140000000) CAM-B3LYP/6-31G(d,p)
 ----------------------------------------------------------------------

 --
 TD
 --
 Symbolic Z-matrix:
 Charge =  0 Multiplicity = 1

                         Standard orientation:
 ---------------------------------------------------------------------
 Center     Atomic      Atomic             Coordinates (Angstroms)
 Number     Number       Type             X           Y           Z
 ---------------------------------------------------------------------
      1         12           0       -5.567531    1.253234    0.169010
      2          6           0       -5.095039   -2.074783   -0.364737
      3          6           0       -3.318731    1.151136    2.769061
      4          6           0       -6.110167    4.633895    0.769410
      5          6           0       -7.909070    1.225563   -2.449233
      6          7           0       -4.514990   -0.323529    1.128571
      7          6           0       -4.325137   -1.633543    0.657355
      8          6           0       -3.263189   -2.329037    1.400679
      9          6           0       -2.889693   -1.405731    2.615498
     10          6           0       -3.495924   -0.060189    2.056698
     11          6           0       -3.473524   -1.867959    3.984587
     12          6           0       -1.980656   -2.702418    0.634291
     13          6           0       -0.996371   -3.597162    1.371369
     14          6           0        0.203065   -3.845730    0.535698
     15          8           0        0.470411   -3.305870   -0.429883
     16          8           0        1.028687   -4.788667    1.208715
     17          7           0       -4.790661    2.673775    1.431673
     18          6           0       -3.886930    2.409427    2.462504
     19          6           0       -3.581427    3.597856    3.196294
     20          6           0       -4.456409    4.584485    2.679422
     21          6           0       -5.116512    4.007225    1.444155
     22          6           0       -2.668176    3.767952    4.460022
     23          6           0       -4.508806    5.978825    3.017607
     24          8           0       -3.871023    6.617309    3.805314
     25          7           0       -6.760177    2.728031   -0.708699
     26          6           0       -6.863312    3.959284   -0.297217
     27          6           0       -7.957530    4.665682   -1.175042
     28          6           0       -8.274302    3.678179   -1.982840
     29          6           0       -7.624284    2.463877   -1.724625
     30          6           0       -8.232592    5.973319   -1.169389
     31          6           0       -9.368522    3.786547   -3.190224
     32          6           0       -8.692115    4.127287   -4.477480
     33          7           0       -6.341378   -0.072765   -1.161457
     34          6           0       -7.370272    0.027818   -2.106398
     35          6           0       -7.542462   -1.332398   -2.663424
     36          6           0       -6.752236   -2.141853   -1.998443
     37          6           0       -6.035399   -1.369063   -1.109030
     38          6           0       -8.633946   -1.681139   -3.788611
     39          6           0       -6.245164   -3.446074   -2.035341
     40          8           0       -6.608334   -4.421654   -2.594078
     41          6           0       -5.097731   -3.564608   -0.913955
     42          6           0       -5.320504   -4.747380    0.139357
     43          8           0       -5.615728   -4.426730    1.256906
     44          8           0       -5.002483   -5.870898   -0.429397
     45          6           0       -5.363100   -6.989201    0.415404
     46          6           0        2.247172   -5.127039    0.500492
     47          6           0        3.299746   -4.148833    0.958589
     48          6           0        4.052568   -3.340491    0.149065
     49          6           0        3.800660   -3.108879   -1.327307
     50          6           0        5.244590   -2.671223    0.685521
     51          6           0        6.602754   -2.853003    0.015024
     52          6           0        7.618789   -1.969209    0.560227
     53          6           0        8.952845   -2.098211   -0.068876
     54          6           0        9.541940   -3.489968    0.138451
     55          6           0        9.978379   -1.036064    0.541435
     56          6           0       11.195774   -0.764960   -0.319025
     57          6           0       12.090040    0.367134    0.176382
     58          6           0       13.455128    0.465324   -0.480110
     59          6           0       14.491170   -0.699651   -0.151549
     60          6           0       14.105982    1.896416   -0.187807
     61          6           0       15.278791    2.235615   -0.974578
     62          6           0       15.919198    3.576344   -0.639212
     63          6           0       17.216021    3.850496   -1.433930
     64          6           0       16.898048    4.009092   -2.982796
     65          6           0       17.770804    5.223819   -0.871800
     66          1           0       -2.710372    1.111347    3.625172
     67          1           0       -6.395559    5.675941    0.839416
     68          1           0       -8.861051    1.242678   -3.129114
     69          1           0       -3.713402   -3.351057    1.879168
     70          1           0       -1.920548   -1.043287    2.551764
     71          1           0       -3.075046   -2.803644    4.199512
     72          1           0       -3.240532   -1.108711    4.785691
     73          1           0       -4.540085   -1.833490    4.067333
     74          1           0       -2.331200   -2.989416   -0.450953
     75          1           0       -1.455139   -1.624182    0.343611
     76          1           0       -0.695241   -3.217878    2.254246
     77          1           0       -1.517039   -4.531509    1.493419
     78          1           0       -1.523510    3.557093    4.225935
     79          1           0       -2.666139    4.812814    4.740274
     80          1           0       -3.067958    2.725191    5.034924
     81          1           0       -5.209536    6.758279    2.473276
     82          1           0      -10.008319    2.780002   -3.213842
     83          1           0       -9.942404    4.811727   -2.924189
     84          1           0       -9.486141    4.376957   -5.231926
     85          1           0       -8.013891    5.011138   -4.311150
     86          1           0       -7.847819    3.163051   -4.589001
     87          1           0       -8.463742   -0.772280   -4.512020
     88          1           0       -8.234304   -2.590805   -4.108794
     89          1           0       -9.631352   -1.634852   -3.323708
     90          1           0       -4.148535   -4.005481   -1.447420
     91          1           0        2.436493   -6.244852    0.766299
     92          1           0        2.067548   -5.136418   -0.618584
     93          1           0        3.572252   -4.333945    2.122488
     94          1           0        2.818042   -3.245457   -1.477884
     95          1           0        4.030656   -2.097747   -1.559778
     96          1           0        4.225873   -3.935536   -1.981854
     97          1           0        5.042235   -1.662236    0.402951
     98          1           0        5.378488   -2.795765    1.786377
     99          1           0        6.859817   -3.873546    0.190828
    100          1           0        6.420500   -2.451694   -0.970652
    101          1           0        7.341389   -0.840533    0.661685
    102          1           0        7.616199   -2.031086    1.590708
    103          1           0        9.197029   -1.805956   -1.135498
    104          1           0        8.877191   -4.169843   -0.245135
    105          1           0       10.396242   -3.488846   -0.389706
    106          1           0        9.669800   -3.804121    1.199152
    107          1           0        9.556295    0.019078    0.750788
    108          1           0       10.138405   -1.427382    1.558527
    109          1           0       11.883272   -1.569414   -0.202536
    110          1           0       10.960306   -0.722263   -1.497611
    111          1           0       11.603935    1.298038    0.027167
    112          1           0       12.238234    0.223280    1.142377
    113          1           0       13.461308    0.540669   -1.577467
    114          1           0       14.556404   -0.430320    0.981593
    115          1           0       13.989730   -1.702046   -0.171689
    116          1           0       15.421123   -0.451453   -0.883959
    117          1           0       13.267843    2.586623   -0.310763
    118          1           0       14.372057    1.930830    0.656471
    119          1           0       16.066776    1.604240   -0.757360
    120          1           0       15.152428    2.208714   -2.149356
    121          1           0       15.099859    4.432062   -0.919253
    122          1           0       15.938402    3.762198    0.603083
    123          1           0       17.896133    3.060520   -1.193169
    124          1           0       16.499988    4.955216   -3.006589
    125          1           0       17.882568    4.112766   -3.438502
    126          1           0       16.233030    3.089623   -3.295777
    127          1           0       18.021005    5.079036    0.082989
    128          1           0       18.711938    5.477623   -1.480701
    129          1           0       17.110353    6.172866   -1.174857
    130          1           0       -5.263474   -7.860714   -0.026125
    131          1           0       -6.434091   -6.829064    0.817883
    132          1           0       -4.538362   -6.947027    1.273929
    133          8           0       -7.830775    6.828392   -0.447795
    134          1           0       -9.066998    6.251021   -1.948828
 ---------------------------------------------------------------------

 SCF Done:  E(RCAM-B3LYP) =  -3043.38873056     A.U. after   16 cycles

 Excitation energies and oscillator strengths:

 Excited State   1:      Singlet-A      2.0732 eV  598.02 nm  f=0.1309  <S**2>=0.000
     243 -> 246        0.29606
     244 -> 245        0.63272
 This state for optimization and/or second-order correction.
 Total Energy, E(TD-HF/TD-KS) =  -3043.31254006
 Copying the excited state density for this state as the 1-particle RhoCI density.

 The electronic state is 1-A.
 Alpha  occ. eigenvalues --  -46.81785 -19.25322 -19.20518 -19.18597 -19.18079
 Alpha  occ. eigenvalues --  -19.17114 -19.16148 -19.15985 -14.39002 -14.37474
 Alpha  occ. eigenvalues --  -14.37232 -14.36882 -10.36009 -10.34529 -10.30823
 Alpha  occ. eigenvalues --  -10.29554 -10.29222 -10.28628 -10.28053 -10.27951
 Alpha  occ. eigenvalues --  -10.27297 -10.27241 -10.26729 -10.26573 -10.26184
 Alpha  occ. eigenvalues --  -10.25996 -10.25958 -10.25809 -10.25356 -10.25267
 Alpha  occ. eigenvalues --  -10.25002 -10.24996 -10.24965 -10.24943 -10.24643
 Alpha  occ. eigenvalues --  -10.24063 -10.23805 -10.23628 -10.23542 -10.23536
 Alpha  occ. eigenvalues --  -10.23526 -10.23495 -10.23104 -10.23028 -10.22994
 Alpha  occ. eigenvalues --  -10.22544 -10.22378 -10.22317 -10.22201 -10.21969
 Alpha  occ. eigenvalues --  -10.21607 -10.21253 -10.21130 -10.21122 -10.21109
 Alpha  occ. eigenvalues --  -10.20971 -10.20748 -10.20598 -10.20580 -10.20293
 Alpha  occ. eigenvalues --  -10.20251 -10.20083 -10.20047 -10.19131 -10.18479
 Alpha  occ. eigenvalues --  -10.17892  -3.10301  -1.85253  -1.84755  -1.84716
 Alpha  occ. eigenvalues --   -1.16751  -1.14901  -1.09236  -1.07650  -1.07499
 Alpha  occ. eigenvalues --   -1.07186  -1.05643  -1.01705  -1.00988  -0.98960
 Alpha  occ. eigenvalues --   -0.98032  -0.88409  -0.87121  -0.85891  -0.85753
 Alpha  occ. eigenvalues --   -0.85393  -0.84680  -0.84586  -0.83817  -0.83147
 Alpha  occ. eigenvalues --   -0.83097  -0.82234  -0.81908  -0.80796  -0.80103
 Alpha  occ. eigenvalues --   -0.79254  -0.78905  -0.78412  -0.77698  -0.76207
 Alpha  occ. eigenvalues --   -0.75386  -0.74580  -0.74319  -0.73168  -0.72401
 Alpha  occ. eigenvalues --   -0.72244  -0.70745  -0.70655  -0.70199  -0.69970
 Alpha  occ. eigenvalues --   -0.69600  -0.68788  -0.67775  -0.66693  -0.65789
 Alpha  occ. eigenvalues --   -0.64617  -0.64273  -0.63259  -0.62462  -0.62134
 Alpha  occ. eigenvalues --   -0.61702  -0.61496  -0.60724  -0.59710  -0.59429
 Alpha  occ. eigenvalues --   -0.58881  -0.57937  -0.57720  -0.56957  -0.56420
 Alpha  occ. eigenvalues --   -0.56152  -0.55684  -0.55350  -0.55182  -0.54540
 Alpha  occ. eigenvalues --   -0.54134  -0.53801  -0.53405  -0.53248  -0.52595
 Alpha  occ. eigenvalues --   -0.52318  -0.52076  -0.51794  -0.50889  -0.50879
 Alpha  occ. eigenvalues --   -0.50758  -0.50255  -0.49753  -0.49624  -0.49363
 Alpha  occ. eigenvalues --   -0.48929  -0.48739  -0.48398  -0.48018  -0.47920
 Alpha  occ. eigenvalues --   -0.47741  -0.47524  -0.47272  -0.47079  -0.46834
 Alpha  occ. eigenvalues --   -0.46753  -0.46596  -0.46484  -0.46275  -0.46181
 Alpha  occ. eigenvalues --   -0.45991  -0.45875  -0.45729  -0.45625  -0.45347
 Alpha  occ. eigenvalues --   -0.45118  -0.44699  -0.44551  -0.44450  -0.44229
 Alpha  occ. eigenvalues --   -0.44043  -0.43931  -0.43772  -0.43531  -0.43296
 Alpha  occ. eigenvalues --   -0.43143  -0.42992  -0.42808  -0.42660  -0.42243
 Alpha  occ. eigenvalues --   -0.42094  -0.41933  -0.41611  -0.41376  -0.41248
 Alpha  occ. eigenvalues --   -0.41032  -0.40878  -0.40587  -0.40515  -0.40439
 Alpha  occ. eigenvalues --   -0.40183  -0.39871  -0.39651  -0.39613  -0.39085
 Alpha  occ. eigenvalues --   -0.39034  -0.38836  -0.38675  -0.38558  -0.38336
 Alpha  occ. eigenvalues --   -0.37877  -0.37730  -0.37313  -0.36945  -0.36740
 Alpha  occ. eigenvalues --   -0.36558  -0.36471  -0.35798  -0.35742  -0.35363
 Alpha  occ. eigenvalues --   -0.35317  -0.35283  -0.35091  -0.34881  -0.34701
 Alpha  occ. eigenvalues --   -0.34264  -0.34043  -0.33590  -0.33163  -0.32999
 Alpha  occ. eigenvalues --   -0.32619  -0.32575  -0.32089  -0.32074  -0.31806
 Alpha  occ. eigenvalues --   -0.31620  -0.31415  -0.30979  -0.30327  -0.30006
 Alpha  occ. eigenvalues --   -0.29844  -0.28615  -0.27905  -0.27575  -0.26993
 Alpha  occ. eigenvalues --   -0.26306  -0.26057  -0.23258  -0.21856
 Alpha virt. eigenvalues --   -0.08312  -0.06908  -0.01410  -0.00096   0.00702
 Alpha virt. eigenvalues --    0.03086   0.03613   0.03672   0.03954   0.04612
 Alpha virt. eigenvalues --    0.05083   0.06268   0.07595   0.08308   0.08950

 Mulliken charges:
               1
     1  Mg   0.822185
     2  C    0.048219
     3  C   -0.185825
     4  C   -0.128117
     5  C   -0.178022
     6  N   -0.618647
     7  C    0.343727
     8  C   -0.182576
     9  C   -0.109677
    10  C    0.260595
    11  C   -0.310041
    12  C   -0.178003
    13  C   -0.245846
    14  C    0.595472
    15  O   -0.391539
    16  O   -0.503079
    17  N   -0.712786
    18  C    0.344678
    19  C    0.033414
    20  C   -0.040378
    21  C    0.310368
    22  C   -0.356770
    23  C    0.221274
    24  O   -0.412507
    25  N   -0.687592
    26  C    0.255434
    27  C    0.063858
    28  C   -0.006857
    29  C    0.296110
    30  C    0.193234
    31  C   -0.222474
    32  C   -0.275349
    33  N   -0.743395
    34  C    0.291463
    35  C   -0.061027
    36  C    0.109500
    37  C    0.321606
    38  C   -0.343850
    39  C    0.334733
    40  O   -0.436856
    41  C   -0.331316
    42  C    0.625564
    43  O   -0.456082
    44  O   -0.408568
    45  C   -0.088571
    46  C   -0.013236
    47  C   -0.126624
    48  C    0.136540
    49  C   -0.375180
    50  C   -0.240832
    51  C   -0.162966
    52  C   -0.163797
    53  C   -0.066177
    54  C   -0.305205
    55  C   -0.177292
    56  C   -0.182102
    57  C   -0.166595
    58  C   -0.092370
    59  C   -0.307468
    60  C   -0.131696
    61  C   -0.179651
    62  C   -0.146827
    63  C   -0.073116
    64  C   -0.301775
    65  C   -0.304349
    66  H    0.079562
    67  H    0.144131
    68  H    0.102254
    69  H    0.114745
    70  H    0.115276
    71  H    0.124895
    72  H    0.100569
    73  H    0.137964
    74  H    0.103596
    75  H    0.084203
    76  H    0.151495
    77  H    0.138968
    78  H    0.114008
    79  H    0.169839
    80  H    0.106517
    81  H    0.057692
    82  H    0.093338
    83  H    0.092161
    84  H    0.115506
    85  H    0.118222
    86  H    0.071377
    87  H    0.113451
    88  H    0.154006
    89  H    0.142220
    90  H    0.133530
    91  H    0.107196
    92  H    0.109843
    93  H    0.071757
    94  H    0.148447
    95  H    0.112716
    96  H    0.115614
    97  H    0.098920
    98  H    0.084751
    99  H    0.106519
   100  H    0.104274
   101  H    0.068596
   102  H    0.095104
   103  H    0.080852
   104  H    0.108604
   105  H    0.108791
   106  H    0.091270
   107  H    0.069784
   108  H    0.087571
   109  H    0.097168
   110  H    0.073277
   111  H    0.092957
   112  H    0.099335
   113  H    0.077726
   114  H    0.088894
   115  H    0.106716
   116  H    0.101589
   117  H    0.082865
   118  H    0.087646
   119  H    0.100793
   120  H    0.068077
   121  H    0.056278
   122  H    0.052562
   123  H    0.091694
   124  H    0.119660
   125  H    0.105615
   126  H    0.095763
   127  H    0.117351
   128  H    0.080311
   129  H    0.090466
   130  H    0.141573
   131  H    0.139698
   132  H    0.114057
   133  O   -0.424338
   134  H    0.017163
 Sum of Mulliken charges =   0.00000

 Dipole moment (field-independent basis, Debye):
    X=              2.2615    Y=             -7.9950    Z=             -0.6210  Tot=              8.3319
 Quadrupole moment (field-independent basis, Debye-Ang):
   XX=           -380.4423   YY=           -435.5048   ZZ=           -399.2239
   XY=             33.2151   XZ=             16.0018   YZ=            -29.4905

 Normal termination of Gaussian 09 at Fri Oct  4 23:34:18 2019.
