 Gaussian 09, Revision D.01,
 Gaussian 09:  ES64L-G09RevD.01 24-Apr-2013

 ----------------------------------------------------------------------
 # td=(NStates=1) iop(3/107=0140000000,3/108=0140000000) iop(3/107=0140
 000000,3/108=0140000000) CAM-B3LYP/6-31G(d,p)
 ----------------------------------------------------------------------

 --
 TD
 --
 Symbolic Z-matrix:
 Charge =  0 Multiplicity = 1

                         Standard orientation:
 ---------------------------------------------------------------------
 Center     Atomic      Atomic             Coordinates (Angstroms)
 Number     Number       Type             X           Y           Z
 ---------------------------------------------------------------------
      1         12           0       -5.644346    1.208636    0.127869
      2          6           0       -5.056793   -2.106031   -0.333057
      3          6           0       -3.328162    1.142394    2.774386
      4          6           0       -6.099633    4.619913    0.645011
      5          6           0       -8.035575    1.146888   -2.302408
      6          7           0       -4.452503   -0.326318    1.071686
      7          6           0       -4.224990   -1.504885    0.638240
      8          6           0       -3.259653   -2.292523    1.376173
      9          6           0       -2.755831   -1.310451    2.452962
     10          6           0       -3.515503   -0.033582    2.090486
     11          6           0       -3.231005   -1.643733    3.916573
     12          6           0       -2.018722   -2.680391    0.544749
     13          6           0       -0.988512   -3.550413    1.304773
     14          6           0        0.270254   -3.878998    0.564905
     15          8           0        0.487572   -3.353946   -0.496812
     16          8           0        1.042175   -4.810262    1.262209
     17          7           0       -4.948581    2.575359    1.522906
     18          6           0       -4.009058    2.404052    2.456657
     19          6           0       -3.606015    3.671747    3.108129
     20          6           0       -4.345145    4.626889    2.461575
     21          6           0       -5.224720    4.019668    1.528802
     22          6           0       -2.617072    3.748705    4.248595
     23          6           0       -4.624021    5.964278    2.855696
     24          8           0       -4.079105    6.564767    3.739138
     25          7           0       -6.829890    2.612377   -0.670726
     26          6           0       -7.062111    3.934767   -0.229638
     27          6           0       -7.999309    4.646920   -1.196868
     28          6           0       -8.470121    3.558459   -2.008050
     29          6           0       -7.776337    2.418915   -1.656066
     30          6           0       -8.252087    6.139680   -1.167815
     31          6           0       -9.472528    3.756876   -3.085247
     32          6           0       -8.692889    3.632692   -4.476999
     33          7           0       -6.423244   -0.089351   -1.028327
     34          6           0       -7.441561   -0.028111   -2.001148
     35          6           0       -7.592695   -1.261303   -2.695943
     36          6           0       -6.688165   -2.128203   -2.059349
     37          6           0       -5.886177   -1.316105   -1.145294
     38          6           0       -8.720127   -1.598884   -3.682941
     39          6           0       -6.214139   -3.552019   -1.958454
     40          8           0       -6.682075   -4.579971   -2.545817
     41          6           0       -5.110411   -3.561227   -0.977266
     42          6           0       -5.227154   -4.607982    0.161635
     43          8           0       -5.669945   -4.415800    1.303454
     44          8           0       -4.996110   -5.815029   -0.318120
     45          6           0       -5.229027   -6.960018    0.466985
     46          6           0        2.300205   -5.117689    0.571517
     47          6           0        3.422543   -4.143527    0.951976
     48          6           0        3.937392   -3.343277    0.113085
     49          6           0        3.622712   -3.108599   -1.317513
     50          6           0        4.977656   -2.397146    0.613339
     51          6           0        6.456916   -2.795369    0.023752
     52          6           0        7.536834   -1.828851    0.641209
     53          6           0        9.026068   -2.021882   -0.024373
     54          6           0        9.653769   -3.382100    0.441521
     55          6           0        9.946913   -0.843250    0.416887
     56          6           0       11.461273   -0.880371   -0.194863
     57          6           0       12.328355    0.241816    0.276451
     58          6           0       13.507152    0.410330   -0.527349
     59          6           0       14.508060   -0.810580   -0.171874
     60          6           0       14.260628    1.667812   -0.180916
     61          6           0       15.453411    2.155044   -1.085892
     62          6           0       15.885850    3.589976   -0.817636
     63          6           0       17.229887    3.993278   -1.503885
     64          6           0       16.995876    4.154863   -3.086493
     65          6           0       17.753317    5.196459   -0.813053
     66          1           0       -2.696011    1.032429    3.675482
     67          1           0       -6.387518    5.688169    0.861836
     68          1           0       -8.734196    1.391526   -3.171445
     69          1           0       -3.769344   -3.244036    1.788185
     70          1           0       -1.728698   -1.166736    2.325694
     71          1           0       -2.949793   -2.712816    4.205099
     72          1           0       -2.719107   -0.751147    4.542563
     73          1           0       -4.349008   -1.596927    4.097276
     74          1           0       -2.307902   -3.066987   -0.291573
     75          1           0       -1.236614   -1.762672    0.129987
     76          1           0       -0.887360   -3.152866    2.337287
     77          1           0       -1.588662   -4.574955    1.529360
     78          1           0       -1.684214    3.416001    3.915634
     79          1           0       -2.539858    4.825184    4.629763
     80          1           0       -2.946931    3.173764    5.154958
     81          1           0       -5.274284    6.566374    2.439816
     82          1           0      -10.308021    3.093988   -3.019793
     83          1           0       -9.999604    4.827440   -3.041957
     84          1           0       -9.385405    3.743544   -5.370012
     85          1           0       -7.966811    4.466362   -4.600758
     86          1           0       -8.373449    2.697536   -4.506564
     87          1           0       -8.855956   -0.711060   -4.593935
     88          1           0       -8.576755   -2.604251   -4.241056
     89          1           0       -9.607301   -1.448474   -3.323392
     90          1           0       -4.143934   -3.670052   -1.498791
     91          1           0        2.505350   -6.141339    0.832977
     92          1           0        2.351957   -5.036927   -0.498467
     93          1           0        3.669810   -4.098517    1.979863
     94          1           0        2.763279   -3.227781   -1.678404
     95          1           0        3.808958   -2.115007   -1.639856
     96          1           0        4.314839   -3.669756   -2.044906
     97          1           0        4.722897   -1.416257    0.353217
     98          1           0        5.194196   -2.050459    1.579941
     99          1           0        6.625758   -3.843949    0.255229
    100          1           0        6.495279   -2.568737   -1.090098
    101          1           0        7.220745   -0.841173    0.378677
    102          1           0        7.590389   -1.909873    1.729966
    103          1           0        8.979727   -1.973361   -1.178019
    104          1           0        8.957591   -4.295599    0.426895
    105          1           0       10.527560   -3.737739    0.023879
    106          1           0        9.803065   -3.515011    1.539910
    107          1           0        9.624877    0.023028    0.146363
    108          1           0       10.182991   -0.733142    1.685035
    109          1           0       11.940186   -1.886708   -0.015975
    110          1           0       11.537678   -0.948483   -1.213824
    111          1           0       11.854524    1.216951    0.120993
    112          1           0       12.360891    0.063689    1.477444
    113          1           0       13.412015    0.424867   -1.587264
    114          1           0       14.745983   -0.845486    0.925409
    115          1           0       14.271975   -1.873560   -0.548647
    116          1           0       15.278341   -0.687036   -0.730220
    117          1           0       13.521815    2.563034    0.054354
    118          1           0       14.648551    1.580780    0.819476
    119          1           0       16.069379    1.279778   -0.820175
    120          1           0       15.174389    2.040389   -2.221090
    121          1           0       15.071386    4.230524   -1.158183
    122          1           0       15.956720    3.951445    0.466377
    123          1           0       17.800870    3.370736   -1.191683
    124          1           0       16.618193    5.397525   -3.373032
    125          1           0       18.150710    4.085040   -3.166682
    126          1           0       16.311423    3.275495   -3.421343
    127          1           0       18.091851    5.011204    0.239254
    128          1           0       18.870949    5.436658   -1.234381
    129          1           0       16.994313    6.093615   -1.014963
    130          1           0       -4.937410   -7.712848   -0.147460
    131          1           0       -6.394005   -6.914142    0.691906
    132          1           0       -4.594146   -7.131417    1.443495
    133          8           0       -7.675727    6.827942   -0.282438
    134          1           0       -8.740657    6.491007   -1.939840
 ---------------------------------------------------------------------

 SCF Done:  E(RCAM-B3LYP) =  -3043.32430207     A.U. after   16 cycles

 Excitation energies and oscillator strengths:

 Excited State   1:      Singlet-A      2.0693 eV  599.15 nm  f=0.1414  <S**2>=0.000
     243 -> 246       -0.28000
     244 -> 245        0.62863
 This state for optimization and/or second-order correction.
 Total Energy, E(TD-HF/TD-KS) =  -3043.24825493
 Copying the excited state density for this state as the 1-particle RhoCI density.

 The electronic state is 1-A.
 Alpha  occ. eigenvalues --  -46.80271 -19.23870 -19.23126 -19.18530 -19.17847
 Alpha  occ. eigenvalues --  -19.17184 -19.17110 -19.15393 -14.38435 -14.37224
 Alpha  occ. eigenvalues --  -14.36816 -14.36240 -10.36296 -10.35917 -10.32032
 Alpha  occ. eigenvalues --  -10.30362 -10.28639 -10.27417 -10.27262 -10.27256
 Alpha  occ. eigenvalues --  -10.27022 -10.26945 -10.26676 -10.26248 -10.26050
 Alpha  occ. eigenvalues --  -10.25981 -10.25935 -10.25899 -10.25319 -10.24991
 Alpha  occ. eigenvalues --  -10.24604 -10.24440 -10.24282 -10.24265 -10.24237
 Alpha  occ. eigenvalues --  -10.24163 -10.23961 -10.23872 -10.23705 -10.23639
 Alpha  occ. eigenvalues --  -10.23586 -10.23466 -10.23428 -10.23300 -10.23216
 Alpha  occ. eigenvalues --  -10.23156 -10.22440 -10.22360 -10.22314 -10.22125
 Alpha  occ. eigenvalues --  -10.22095 -10.22079 -10.22077 -10.21852 -10.21664
 Alpha  occ. eigenvalues --  -10.21524 -10.21254 -10.20702 -10.20612 -10.20451
 Alpha  occ. eigenvalues --  -10.20212 -10.20190 -10.19928 -10.19808 -10.19540
 Alpha  occ. eigenvalues --  -10.19502  -3.09167  -1.84075  -1.83642  -1.83606
 Alpha  occ. eigenvalues --   -1.15414  -1.12720  -1.06924  -1.05878  -1.04805
 Alpha  occ. eigenvalues --   -1.04681  -1.04106  -1.01839  -0.99716  -0.98543
 Alpha  occ. eigenvalues --   -0.97467  -0.88323  -0.86863  -0.86177  -0.86132
 Alpha  occ. eigenvalues --   -0.85031  -0.84405  -0.84383  -0.83530  -0.83077
 Alpha  occ. eigenvalues --   -0.82481  -0.82434  -0.81227  -0.80293  -0.79378
 Alpha  occ. eigenvalues --   -0.78755  -0.77880  -0.77301  -0.76772  -0.76276
 Alpha  occ. eigenvalues --   -0.75106  -0.74866  -0.74294  -0.73741  -0.72700
 Alpha  occ. eigenvalues --   -0.72131  -0.71021  -0.70149  -0.69786  -0.69490
 Alpha  occ. eigenvalues --   -0.69100  -0.68879  -0.67458  -0.67167  -0.66663
 Alpha  occ. eigenvalues --   -0.66450  -0.65293  -0.64310  -0.62802  -0.62366
 Alpha  occ. eigenvalues --   -0.61473  -0.60595  -0.60301  -0.59732  -0.59544
 Alpha  occ. eigenvalues --   -0.59411  -0.59353  -0.58649  -0.58193  -0.58041
 Alpha  occ. eigenvalues --   -0.57306  -0.56625  -0.56116  -0.55314  -0.55060
 Alpha  occ. eigenvalues --   -0.54603  -0.53621  -0.53253  -0.52526  -0.52184
 Alpha  occ. eigenvalues --   -0.51894  -0.51643  -0.51498  -0.51106  -0.50417
 Alpha  occ. eigenvalues --   -0.50340  -0.50028  -0.49750  -0.49413  -0.49069
 Alpha  occ. eigenvalues --   -0.48659  -0.48248  -0.47924  -0.47763  -0.47494
 Alpha  occ. eigenvalues --   -0.47384  -0.47269  -0.47130  -0.47004  -0.46775
 Alpha  occ. eigenvalues --   -0.46678  -0.46192  -0.45989  -0.45946  -0.45764
 Alpha  occ. eigenvalues --   -0.45388  -0.45190  -0.45000  -0.44785  -0.44708
 Alpha  occ. eigenvalues --   -0.44407  -0.44333  -0.44098  -0.43698  -0.43603
 Alpha  occ. eigenvalues --   -0.43325  -0.43045  -0.42494  -0.42413  -0.42208
 Alpha  occ. eigenvalues --   -0.42084  -0.41962  -0.41543  -0.41369  -0.41234
 Alpha  occ. eigenvalues --   -0.41211  -0.41144  -0.41000  -0.40810  -0.40784
 Alpha  occ. eigenvalues --   -0.40549  -0.40445  -0.40185  -0.39989  -0.39741
 Alpha  occ. eigenvalues --   -0.39677  -0.39537  -0.39355  -0.39273  -0.39152
 Alpha  occ. eigenvalues --   -0.38762  -0.38725  -0.38538  -0.38347  -0.38271
 Alpha  occ. eigenvalues --   -0.38244  -0.38149  -0.37885  -0.37206  -0.37080
 Alpha  occ. eigenvalues --   -0.36952  -0.36403  -0.36208  -0.35878  -0.35705
 Alpha  occ. eigenvalues --   -0.35305  -0.35092  -0.34963  -0.34887  -0.34651
 Alpha  occ. eigenvalues --   -0.34437  -0.34363  -0.34021  -0.33614  -0.33578
 Alpha  occ. eigenvalues --   -0.33146  -0.32280  -0.32126  -0.31792  -0.31730
 Alpha  occ. eigenvalues --   -0.31484  -0.31268  -0.30767  -0.29985  -0.29548
 Alpha  occ. eigenvalues --   -0.28674  -0.28291  -0.28228  -0.28002  -0.27967
 Alpha  occ. eigenvalues --   -0.26968  -0.26484  -0.22971  -0.21486
 Alpha virt. eigenvalues --   -0.08127  -0.06774  -0.01975  -0.01123   0.00681
 Alpha virt. eigenvalues --    0.01996   0.02606   0.03488   0.04501   0.04853
 Alpha virt. eigenvalues --    0.05042   0.05818   0.07771   0.08541   0.08735

 Mulliken charges:
               1
     1  Mg   0.835909
     2  C    0.023631
     3  C   -0.190888
     4  C   -0.175200
     5  C   -0.158598
     6  N   -0.611181
     7  C    0.365274
     8  C   -0.185833
     9  C   -0.139433
    10  C    0.309659
    11  C   -0.301825
    12  C   -0.162728
    13  C   -0.276903
    14  C    0.634582
    15  O   -0.445420
    16  O   -0.478284
    17  N   -0.670037
    18  C    0.324691
    19  C    0.046461
    20  C   -0.018073
    21  C    0.261522
    22  C   -0.391721
    23  C    0.257858
    24  O   -0.425726
    25  N   -0.658109
    26  C    0.201348
    27  C   -0.067081
    28  C    0.043879
    29  C    0.320153
    30  C    0.281659
    31  C   -0.276243
    32  C   -0.309414
    33  N   -0.728310
    34  C    0.289972
    35  C    0.032455
    36  C   -0.000892
    37  C    0.267318
    38  C   -0.359445
    39  C    0.385633
    40  O   -0.488955
    41  C   -0.281335
    42  C    0.613403
    43  O   -0.479593
    44  O   -0.408279
    45  C   -0.080737
    46  C   -0.014463
    47  C   -0.142634
    48  C    0.174325
    49  C   -0.374846
    50  C   -0.248346
    51  C   -0.177779
    52  C   -0.190186
    53  C   -0.056199
    54  C   -0.319555
    55  C   -0.139588
    56  C   -0.199839
    57  C   -0.134502
    58  C   -0.060316
    59  C   -0.317488
    60  C   -0.191886
    61  C   -0.175926
    62  C   -0.159836
    63  C   -0.012169
    64  C   -0.289126
    65  C   -0.304365
    66  H    0.087303
    67  H    0.155995
    68  H    0.084706
    69  H    0.141034
    70  H    0.123016
    71  H    0.104678
    72  H    0.090649
    73  H    0.133494
    74  H    0.106730
    75  H    0.088642
    76  H    0.140071
    77  H    0.107928
    78  H    0.134343
    79  H    0.152326
    80  H    0.123517
    81  H    0.073386
    82  H    0.123051
    83  H    0.089204
    84  H    0.095978
    85  H    0.121576
    86  H    0.124021
    87  H    0.073325
    88  H    0.146047
    89  H    0.156230
    90  H    0.173188
    91  H    0.111973
    92  H    0.129133
    93  H    0.083520
    94  H    0.146812
    95  H    0.116098
    96  H    0.103023
    97  H    0.098430
    98  H    0.096726
    99  H    0.105980
   100  H    0.091055
   101  H    0.096819
   102  H    0.098403
   103  H    0.081235
   104  H    0.079465
   105  H    0.115437
   106  H    0.098287
   107  H    0.104747
   108  H    0.042129
   109  H    0.088646
   110  H    0.090972
   111  H    0.082001
   112  H    0.072928
   113  H    0.094012
   114  H    0.101779
   115  H    0.080397
   116  H    0.108092
   117  H    0.058492
   118  H    0.099524
   119  H    0.102558
   120  H    0.071538
   121  H    0.100109
   122  H    0.029317
   123  H    0.097382
   124  H    0.075020
   125  H    0.111795
   126  H    0.109761
   127  H    0.107979
   128  H    0.060453
   129  H    0.089906
   130  H    0.139680
   131  H    0.128268
   132  H    0.112674
   133  O   -0.442770
   134  H    0.089331
 Sum of Mulliken charges =   0.00000

 Dipole moment (field-independent basis, Debye):
    X=              2.6315    Y=             -5.0156    Z=             -2.2005  Tot=              6.0764
 Quadrupole moment (field-independent basis, Debye-Ang):
   XX=           -375.8053   YY=           -434.5472   ZZ=           -396.2968
   XY=             -1.3808   XZ=             23.9824   YZ=            -33.7791

 Normal termination of Gaussian 09 at Fri Oct  4 21:36:06 2019.
