 Gaussian 09, Revision D.01,
 Gaussian 09:  ES64L-G09RevD.01 24-Apr-2013

 ----------------------------------------------------------------------
 # td=(NStates=1) iop(3/107=0140000000,3/108=0140000000) iop(3/107=0140
 000000,3/108=0140000000) CAM-B3LYP/6-31G(d,p)
 ----------------------------------------------------------------------

 --
 TD
 --
 Symbolic Z-matrix:
 Charge =  0 Multiplicity = 1

                         Standard orientation:
 ---------------------------------------------------------------------
 Center     Atomic      Atomic             Coordinates (Angstroms)
 Number     Number       Type             X           Y           Z
 ---------------------------------------------------------------------
      1         12           0       -5.677453    1.200708    0.200080
      2          6           0       -4.938429   -2.168193   -0.378599
      3          6           0       -3.322782    1.162640    2.724243
      4          6           0       -6.283080    4.655704    0.558910
      5          6           0       -8.087599    1.106973   -2.276614
      6          7           0       -4.325974   -0.241855    0.983043
      7          6           0       -4.115153   -1.618935    0.588656
      8          6           0       -3.211257   -2.275954    1.488561
      9          6           0       -2.866408   -1.284686    2.684742
     10          6           0       -3.582759   -0.066798    2.117329
     11          6           0       -3.516831   -1.747775    4.037627
     12          6           0       -1.958884   -2.671100    0.740013
     13          6           0       -1.026323   -3.732850    1.437182
     14          6           0        0.197431   -4.013162    0.702690
     15          8           0        0.582984   -3.571735   -0.392950
     16          8           0        1.071587   -4.799703    1.443202
     17          7           0       -4.997467    2.670017    1.401606
     18          6           0       -3.915104    2.445573    2.402848
     19          6           0       -3.850123    3.708275    3.153084
     20          6           0       -4.651833    4.643884    2.578864
     21          6           0       -5.321831    3.911985    1.416226
     22          6           0       -2.870028    3.901967    4.333447
     23          6           0       -4.722725    6.061112    2.876039
     24          8           0       -4.101602    6.707290    3.766306
     25          7           0       -6.855496    2.589613   -0.674816
     26          6           0       -7.019941    3.951990   -0.345452
     27          6           0       -8.067126    4.608540   -1.215797
     28          6           0       -8.401488    3.657431   -2.058201
     29          6           0       -7.816905    2.315892   -1.680066
     30          6           0       -8.328218    6.029182   -1.230155
     31          6           0       -9.443784    3.676464   -3.171905
     32          6           0       -8.911558    3.674939   -4.568466
     33          7           0       -6.423194   -0.208377   -1.077216
     34          6           0       -7.345563   -0.073562   -2.070493
     35          6           0       -7.599179   -1.377312   -2.711322
     36          6           0       -6.637197   -2.237418   -1.974322
     37          6           0       -5.983010   -1.421502   -1.090755
     38          6           0       -8.505346   -1.667476   -3.788560
     39          6           0       -6.171328   -3.573218   -2.003717
     40          8           0       -6.520669   -4.578803   -2.531973
     41          6           0       -4.997133   -3.549059   -0.920527
     42          6           0       -5.166110   -4.653703    0.086440
     43          8           0       -5.559320   -4.482497    1.269746
     44          8           0       -4.842948   -5.815215   -0.310361
     45          6           0       -5.206327   -6.889758    0.400199
     46          6           0        2.434488   -5.085149    0.813726
     47          6           0        3.458658   -4.012310    1.136914
     48          6           0        4.007463   -3.110751    0.174827
     49          6           0        3.562420   -3.167782   -1.289904
     50          6           0        5.110612   -2.137738    0.593811
     51          6           0        6.448608   -2.614162   -0.027616
     52          6           0        7.655921   -1.662769    0.439327
     53          6           0        8.939631   -1.888415   -0.123382
     54          6           0        9.497265   -3.355863    0.033142
     55          6           0        9.988018   -0.851668    0.311778
     56          6           0       11.340977   -0.918759   -0.279875
     57          6           0       12.228915    0.270234    0.139918
     58          6           0       13.648104    0.445561   -0.529946
     59          6           0       14.619012   -0.681462   -0.191684
     60          6           0       14.216535    1.813710   -0.183997
     61          6           0       15.473492    2.184210   -0.912458
     62          6           0       15.988502    3.522544   -0.580651
     63          6           0       17.334361    3.842493   -1.365124
     64          6           0       17.135226    3.952754   -2.931394
     65          6           0       17.970856    5.220034   -0.874987
     66          1           0       -2.783042    1.142987    3.568143
     67          1           0       -6.296217    5.896175    0.693370
     68          1           0       -8.638905    0.983508   -3.064144
     69          1           0       -3.844746   -3.067559    1.970659
     70          1           0       -1.835769   -1.169707    2.910108
     71          1           0       -2.941736   -2.562233    4.387002
     72          1           0       -3.459357   -0.954527    4.822736
     73          1           0       -4.652458   -2.054305    3.787244
     74          1           0       -2.378433   -3.036640   -0.195469
     75          1           0       -1.307622   -1.808158    0.519416
     76          1           0       -0.544661   -3.549489    2.505434
     77          1           0       -1.878006   -4.657607    1.530830
     78          1           0       -1.892499    3.461985    4.086560
     79          1           0       -2.675091    4.990094    4.498846
     80          1           0       -3.297157    3.288062    5.181570
     81          1           0       -5.282366    6.794200    2.072373
     82          1           0      -10.220494    2.915991   -3.132418
     83          1           0      -10.117396    4.583057   -2.790241
     84          1           0       -9.670117    3.749274   -5.285323
     85          1           0       -8.407498    4.664219   -4.774914
     86          1           0       -8.173305    2.910934   -4.646766
     87          1           0       -8.406700   -1.386225   -4.902328
     88          1           0       -8.698402   -2.752731   -3.659129
     89          1           0       -9.606695   -1.305207   -3.736611
     90          1           0       -4.108251   -3.974530   -1.505948
     91          1           0        2.752929   -6.148186    1.048904
     92          1           0        2.022414   -5.286013   -0.326567
     93          1           0        3.743825   -3.883498    2.115469
     94          1           0        2.566034   -3.587075   -1.584451
     95          1           0        3.702871   -2.170737   -1.432963
     96          1           0        4.395501   -3.651478   -1.954501
     97          1           0        4.857335   -1.220774    0.224286
     98          1           0        5.194040   -2.219985    1.822121
     99          1           0        6.618366   -3.542933    0.075886
    100          1           0        6.584462   -2.541357   -1.119350
    101          1           0        7.283556   -0.650690    0.102633
    102          1           0        7.649113   -1.774178    1.435185
    103          1           0        8.956594   -1.419418   -1.146808
    104          1           0        8.711827   -4.180355   -0.476090
    105          1           0       10.601514   -3.599612   -0.378323
    106          1           0        9.534439   -3.683331    1.119711
    107          1           0        9.628763    0.159365    0.321253
    108          1           0       10.136818   -0.938877    1.475773
    109          1           0       11.817246   -1.799486   -0.084593
    110          1           0       11.122381   -0.867658   -1.329936
    111          1           0       11.677761    1.219086    0.035880
    112          1           0       12.608694    0.079754    1.384066
    113          1           0       13.455390    0.544238   -1.696914
    114          1           0       14.853213   -0.699784    0.996991
    115          1           0       14.081331   -1.714970   -0.465525
    116          1           0       15.672427   -0.508407   -0.808598
    117          1           0       13.474451    2.486218   -0.337318
    118          1           0       14.338136    1.979575    0.840135
    119          1           0       16.291668    1.358571   -0.884835
    120          1           0       15.334689    2.180263   -1.978376
    121          1           0       15.256746    4.361109   -0.646040
    122          1           0       16.293918    3.466012    0.463110
    123          1           0       18.099567    3.015086   -1.181268
    124          1           0       16.309971    4.589094   -3.247851
    125          1           0       18.147038    4.383601   -3.351084
    126          1           0       16.960962    2.910652   -3.336879
    127          1           0       17.868521    5.109827    0.284696
    128          1           0       18.940528    5.399729   -1.199998
    129          1           0       17.498440    6.148296   -0.933045
    130          1           0       -4.737676   -7.873375   -0.117838
    131          1           0       -6.331236   -6.971145    0.585722
    132          1           0       -4.601266   -7.257133    1.423767
    133          8           0       -7.799135    7.007012   -0.565290
    134          1           0       -9.050000    6.364527   -2.003588
 ---------------------------------------------------------------------

 SCF Done:  E(RCAM-B3LYP) =  -3043.41832109     A.U. after   16 cycles

 Excitation energies and oscillator strengths:

 Excited State   1:      Singlet-A      1.8053 eV  686.79 nm  f=0.2655  <S**2>=0.000
     243 -> 246        0.15961
     244 -> 245        0.68469
 This state for optimization and/or second-order correction.
 Total Energy, E(TD-HF/TD-KS) =  -3043.35197832
 Copying the excited state density for this state as the 1-particle RhoCI density.

 The electronic state is 1-A.
 Alpha  occ. eigenvalues --  -46.81576 -19.24970 -19.20723 -19.18029 -19.17128
 Alpha  occ. eigenvalues --  -19.16969 -19.16740 -19.15997 -14.40123 -14.37939
 Alpha  occ. eigenvalues --  -14.37812 -14.36624 -10.35278 -10.34869 -10.31691
 Alpha  occ. eigenvalues --  -10.31293 -10.31033 -10.29999 -10.28824 -10.28603
 Alpha  occ. eigenvalues --  -10.28349 -10.27832 -10.27522 -10.27390 -10.27250
 Alpha  occ. eigenvalues --  -10.26523 -10.26049 -10.25835 -10.25579 -10.25572
 Alpha  occ. eigenvalues --  -10.25445 -10.25059 -10.24943 -10.24658 -10.24523
 Alpha  occ. eigenvalues --  -10.24273 -10.24218 -10.24112 -10.23930 -10.23890
 Alpha  occ. eigenvalues --  -10.23876 -10.23751 -10.23715 -10.23602 -10.23598
 Alpha  occ. eigenvalues --  -10.23477 -10.23371 -10.23326 -10.23059 -10.22988
 Alpha  occ. eigenvalues --  -10.22763 -10.22499 -10.22202 -10.22004 -10.21889
 Alpha  occ. eigenvalues --  -10.21506 -10.21057 -10.20678 -10.20665 -10.20607
 Alpha  occ. eigenvalues --  -10.20310 -10.20252 -10.20188 -10.19906 -10.19563
 Alpha  occ. eigenvalues --  -10.18784  -3.10253  -1.85187  -1.84720  -1.84672
 Alpha  occ. eigenvalues --   -1.19086  -1.10307  -1.08691  -1.04026  -1.03435
 Alpha  occ. eigenvalues --   -1.03163  -1.01890  -1.01696  -0.99941  -0.99172
 Alpha  occ. eigenvalues --   -0.97942  -0.89347  -0.86747  -0.86254  -0.86047
 Alpha  occ. eigenvalues --   -0.85355  -0.85139  -0.84494  -0.84380  -0.83805
 Alpha  occ. eigenvalues --   -0.82884  -0.82325  -0.81552  -0.81192  -0.80400
 Alpha  occ. eigenvalues --   -0.80170  -0.79105  -0.78390  -0.77665  -0.76400
 Alpha  occ. eigenvalues --   -0.75476  -0.75076  -0.74113  -0.73427  -0.72346
 Alpha  occ. eigenvalues --   -0.70870  -0.70483  -0.70241  -0.70058  -0.70014
 Alpha  occ. eigenvalues --   -0.69404  -0.68901  -0.67577  -0.66985  -0.66676
 Alpha  occ. eigenvalues --   -0.65663  -0.65040  -0.64747  -0.63534  -0.62439
 Alpha  occ. eigenvalues --   -0.61999  -0.61832  -0.61497  -0.60092  -0.59057
 Alpha  occ. eigenvalues --   -0.58682  -0.57866  -0.57358  -0.57190  -0.56832
 Alpha  occ. eigenvalues --   -0.56337  -0.56065  -0.55267  -0.55199  -0.55161
 Alpha  occ. eigenvalues --   -0.54508  -0.53552  -0.53395  -0.52491  -0.52212
 Alpha  occ. eigenvalues --   -0.52145  -0.51850  -0.51764  -0.51425  -0.50617
 Alpha  occ. eigenvalues --   -0.50320  -0.50055  -0.49630  -0.49280  -0.49106
 Alpha  occ. eigenvalues --   -0.48988  -0.48692  -0.48376  -0.47906  -0.47885
 Alpha  occ. eigenvalues --   -0.47632  -0.47455  -0.47317  -0.46907  -0.46688
 Alpha  occ. eigenvalues --   -0.46651  -0.46197  -0.46097  -0.45970  -0.45685
 Alpha  occ. eigenvalues --   -0.45509  -0.45439  -0.45183  -0.45017  -0.44785
 Alpha  occ. eigenvalues --   -0.44545  -0.44356  -0.44094  -0.43853  -0.43777
 Alpha  occ. eigenvalues --   -0.43660  -0.43546  -0.43307  -0.43066  -0.43013
 Alpha  occ. eigenvalues --   -0.42747  -0.42582  -0.42394  -0.42179  -0.41980
 Alpha  occ. eigenvalues --   -0.41641  -0.41571  -0.41104  -0.41002  -0.40945
 Alpha  occ. eigenvalues --   -0.40923  -0.40552  -0.40341  -0.40127  -0.40093
 Alpha  occ. eigenvalues --   -0.39843  -0.39744  -0.39608  -0.39464  -0.39359
 Alpha  occ. eigenvalues --   -0.38991  -0.38746  -0.38644  -0.38500  -0.38191
 Alpha  occ. eigenvalues --   -0.37784  -0.37601  -0.37475  -0.37202  -0.36975
 Alpha  occ. eigenvalues --   -0.36499  -0.36311  -0.36274  -0.35827  -0.35652
 Alpha  occ. eigenvalues --   -0.35384  -0.35333  -0.34967  -0.34661  -0.34512
 Alpha  occ. eigenvalues --   -0.34209  -0.34150  -0.33589  -0.33269  -0.32549
 Alpha  occ. eigenvalues --   -0.32532  -0.32270  -0.32226  -0.32173  -0.31631
 Alpha  occ. eigenvalues --   -0.31497  -0.30560  -0.30547  -0.29997  -0.29922
 Alpha  occ. eigenvalues --   -0.29565  -0.28952  -0.28316  -0.27869  -0.27726
 Alpha  occ. eigenvalues --   -0.27308  -0.25967  -0.23814  -0.21459
 Alpha virt. eigenvalues --   -0.09963  -0.06813  -0.01934  -0.01552  -0.00298
 Alpha virt. eigenvalues --    0.01556   0.02318   0.02843   0.03313   0.03550
 Alpha virt. eigenvalues --    0.04567   0.05176   0.07368   0.08521   0.08943

 Mulliken charges:
               1
     1  Mg   0.827018
     2  C    0.139896
     3  C   -0.155336
     4  C   -0.191654
     5  C   -0.115678
     6  N   -0.621226
     7  C    0.263483
     8  C   -0.180772
     9  C   -0.139315
    10  C    0.351140
    11  C   -0.314472
    12  C   -0.171927
    13  C   -0.264424
    14  C    0.628409
    15  O   -0.485421
    16  O   -0.506072
    17  N   -0.695241
    18  C    0.243840
    19  C    0.038804
    20  C   -0.007388
    21  C    0.347806
    22  C   -0.375320
    23  C    0.217596
    24  O   -0.437088
    25  N   -0.689936
    26  C    0.296717
    27  C    0.037872
    28  C    0.012563
    29  C    0.304546
    30  C    0.229413
    31  C   -0.249946
    32  C   -0.313347
    33  N   -0.733686
    34  C    0.225833
    35  C    0.068813
    36  C    0.008829
    37  C    0.337959
    38  C   -0.427756
    39  C    0.345506
    40  O   -0.444076
    41  C   -0.387088
    42  C    0.605000
    43  O   -0.515034
    44  O   -0.335379
    45  C   -0.089732
    46  C    0.004096
    47  C   -0.125049
    48  C    0.103571
    49  C   -0.346975
    50  C   -0.218300
    51  C   -0.183004
    52  C   -0.160509
    53  C   -0.035046
    54  C   -0.311652
    55  C   -0.184686
    56  C   -0.155376
    57  C   -0.157779
    58  C   -0.047349
    59  C   -0.281487
    60  C   -0.157268
    61  C   -0.175415
    62  C   -0.169803
    63  C   -0.053234
    64  C   -0.302988
    65  C   -0.323772
    66  H    0.078499
    67  H    0.160114
    68  H    0.068567
    69  H    0.154884
    70  H    0.115916
    71  H    0.126089
    72  H    0.108440
    73  H    0.117976
    74  H    0.121853
    75  H    0.126068
    76  H    0.136482
    77  H    0.125145
    78  H    0.118668
    79  H    0.162285
    80  H    0.124892
    81  H    0.068006
    82  H    0.125095
    83  H    0.086081
    84  H    0.123739
    85  H    0.108129
    86  H    0.124055
    87  H    0.134208
    88  H    0.148315
    89  H    0.111829
    90  H    0.154875
    91  H    0.116706
    92  H    0.109088
    93  H    0.079617
    94  H    0.157221
    95  H    0.113751
    96  H    0.097424
    97  H    0.113647
    98  H    0.084640
    99  H    0.109578
   100  H    0.091227
   101  H    0.083674
   102  H    0.098821
   103  H    0.080354
   104  H    0.076711
   105  H    0.096938
   106  H    0.108151
   107  H    0.089999
   108  H    0.054017
   109  H    0.104918
   110  H    0.089053
   111  H    0.087177
   112  H    0.037944
   113  H    0.065201
   114  H    0.087048
   115  H    0.087124
   116  H    0.086711
   117  H    0.092223
   118  H    0.089512
   119  H    0.074491
   120  H    0.092968
   121  H    0.090274
   122  H    0.092733
   123  H    0.085449
   124  H    0.108135
   125  H    0.084337
   126  H    0.093056
   127  H    0.074222
   128  H    0.107975
   129  H    0.111419
   130  H    0.101867
   131  H    0.136917
   132  H    0.089642
   133  O   -0.446879
   134  H    0.083004
 Sum of Mulliken charges =   0.00000

 Dipole moment (field-independent basis, Debye):
    X=              1.2846    Y=             -4.1220    Z=             -1.4540  Tot=              4.5558
 Quadrupole moment (field-independent basis, Debye-Ang):
   XX=           -381.2031   YY=           -450.6423   ZZ=           -394.6913
   XY=             10.5510   XZ=             26.0031   YZ=            -33.6036

 Normal termination of Gaussian 09 at Tue Oct  8 13:08:34 2019.
