 Gaussian 09, Revision D.01,
 Gaussian 09:  ES64L-G09RevD.01 24-Apr-2013

 ----------------------------------------------------------------------
 # td=(NStates=1) iop(3/107=0140000000,3/108=0140000000) iop(3/107=0140
 000000,3/108=0140000000) CAM-B3LYP/6-31G(d,p)
 ----------------------------------------------------------------------

 --
 TD
 --
 Symbolic Z-matrix:
 Charge =  0 Multiplicity = 1

                         Standard orientation:
 ---------------------------------------------------------------------
 Center     Atomic      Atomic             Coordinates (Angstroms)
 Number     Number       Type             X           Y           Z
 ---------------------------------------------------------------------
      1         12           0       -5.522783    1.291026    0.144998
      2          6           0       -4.908151   -2.147168   -0.354131
      3          6           0       -3.300205    1.290118    2.657377
      4          6           0       -6.362581    4.482453    0.599908
      5          6           0       -8.025201    1.140768   -2.352024
      6          7           0       -4.283577   -0.223456    1.036158
      7          6           0       -4.211800   -1.577045    0.738835
      8          6           0       -3.217916   -2.218014    1.568371
      9          6           0       -2.886622   -1.291725    2.690864
     10          6           0       -3.414283    0.041063    2.131207
     11          6           0       -3.559942   -1.647177    4.026486
     12          6           0       -1.963409   -2.662791    0.639299
     13          6           0       -0.975343   -3.426337    1.493403
     14          6           0        0.205933   -3.876131    0.619634
     15          8           0        0.466340   -3.537207   -0.519966
     16          8           0        1.114378   -4.660513    1.476696
     17          7           0       -4.909421    2.649513    1.372654
     18          6           0       -4.046051    2.440505    2.466853
     19          6           0       -3.812777    3.722327    3.109176
     20          6           0       -4.742927    4.609203    2.589558
     21          6           0       -5.288284    3.953510    1.421560
     22          6           0       -2.862227    3.865775    4.251449
     23          6           0       -4.706282    6.016758    2.843483
     24          8           0       -4.171098    6.570305    3.772026
     25          7           0       -6.896607    2.633737   -0.786592
     26          6           0       -6.985295    3.874943   -0.451161
     27          6           0       -8.160528    4.433832   -1.115116
     28          6           0       -8.547300    3.558863   -2.086282
     29          6           0       -7.834746    2.410510   -1.752095
     30          6           0       -8.534728    5.914419   -1.111850
     31          6           0       -9.531361    3.673568   -3.262985
     32          6           0       -8.781218    3.822392   -4.675252
     33          7           0       -6.301246   -0.144482   -1.125665
     34          6           0       -7.335996   -0.097841   -2.056443
     35          6           0       -7.577698   -1.416513   -2.649044
     36          6           0       -6.550762   -2.203746   -2.053999
     37          6           0       -5.868372   -1.423426   -1.166367
     38          6           0       -8.434855   -1.664876   -3.788444
     39          6           0       -6.053044   -3.598457   -2.003606
     40          8           0       -6.396668   -4.605485   -2.518835
     41          6           0       -4.902691   -3.577106   -0.949940
     42          6           0       -5.245873   -4.765535    0.132677
     43          8           0       -5.734619   -4.486031    1.234922
     44          8           0       -5.029035   -5.919387   -0.382245
     45          6           0       -5.432495   -6.974021    0.521599
     46          6           0        2.329618   -5.045573    0.786169
     47          6           0        3.582927   -4.098349    1.104906
     48          6           0        4.074337   -3.292258    0.156014
     49          6           0        3.721390   -3.132272   -1.223630
     50          6           0        5.255287   -2.368837    0.666998
     51          6           0        6.628319   -2.652238    0.083590
     52          6           0        7.766110   -1.768681    0.631506
     53          6           0        9.054234   -1.956206   -0.055779
     54          6           0        9.585946   -3.430792    0.109494
     55          6           0       10.097162   -0.932863    0.319658
     56          6           0       11.450626   -0.976946   -0.316495
     57          6           0       12.232128    0.228390    0.167169
     58          6           0       13.572837    0.429607   -0.633516
     59          6           0       14.675868   -0.666157   -0.327360
     60          6           0       14.099559    1.884519   -0.266890
     61          6           0       15.543160    2.070298   -0.972253
     62          6           0       15.956533    3.473326   -0.704059
     63          6           0       17.238725    4.003464   -1.299128
     64          6           0       17.133903    4.199170   -2.771263
     65          6           0       17.731562    5.387924   -0.736209
     66          1           0       -2.466239    1.316863    3.393821
     67          1           0       -6.654478    5.552596    0.787199
     68          1           0       -9.001923    1.061104   -2.948993
     69          1           0       -3.606856   -3.117140    1.861458
     70          1           0       -1.933958   -1.165807    2.848781
     71          1           0       -3.262499   -2.528035    4.470837
     72          1           0       -3.736963   -0.959790    4.668316
     73          1           0       -4.542953   -2.143517    3.598547
     74          1           0       -2.151040   -3.249321   -0.137305
     75          1           0       -1.556390   -1.571566    0.606423
     76          1           0       -0.378418   -2.746364    2.350557
     77          1           0       -1.478129   -4.211785    1.981876
     78          1           0       -1.823354    3.213796    4.022471
     79          1           0       -2.693173    4.882771    4.507087
     80          1           0       -3.285758    3.298808    5.358156
     81          1           0       -5.412599    6.688087    2.045281
     82          1           0      -10.307534    2.848970   -3.316772
     83          1           0      -10.271825    4.482251   -3.010046
     84          1           0       -9.692110    3.941871   -5.521107
     85          1           0       -8.280868    4.823942   -4.769702
     86          1           0       -8.130659    2.974431   -4.994457
     87          1           0       -7.971326   -1.165228   -4.732012
     88          1           0       -8.519007   -2.891188   -3.892319
     89          1           0       -9.504018   -1.103487   -3.492874
     90          1           0       -3.997349   -3.803921   -1.504576
     91          1           0        2.668259   -6.193037    0.850139
     92          1           0        2.122559   -4.982216   -0.433593
     93          1           0        3.931279   -4.246258    2.126652
     94          1           0        2.782378   -3.541685   -1.513354
     95          1           0        3.654378   -2.094058   -1.362717
     96          1           0        4.520419   -3.612029   -1.832470
     97          1           0        5.172335   -1.264592    0.429850
     98          1           0        5.139771   -2.595097    1.644813
     99          1           0        6.948161   -3.781050    0.120837
    100          1           0        6.606879   -2.454268   -0.994037
    101          1           0        7.232524   -0.824040    0.306507
    102          1           0        7.546914   -1.863274    1.662342
    103          1           0        8.945476   -1.802075   -1.165022
    104          1           0        8.831953   -4.011576   -0.417526
    105          1           0       10.641599   -3.633968   -0.227712
    106          1           0        9.605218   -3.577611    1.231394
    107          1           0        9.892338    0.026260    0.418967
    108          1           0       10.253847   -1.074149    1.337556
    109          1           0       12.069891   -1.895112   -0.315381
    110          1           0       11.359217   -0.730824   -1.425310
    111          1           0       11.614736    1.188053   -0.061812
    112          1           0       12.567659    0.128296    1.203105
    113          1           0       13.323576    0.252522   -1.769582
    114          1           0       15.058529   -0.745869    0.563810
    115          1           0       14.175042   -1.693531   -0.350445
    116          1           0       15.553863   -0.386703   -1.152340
    117          1           0       13.520874    2.717971   -0.559526
    118          1           0       14.148538    2.004790    0.801093
    119          1           0       16.472215    1.559281   -0.744450
    120          1           0       15.251814    1.873210   -2.079874
    121          1           0       15.120098    4.052892   -0.861997
    122          1           0       15.944281    3.645252    0.314237
    123          1           0       18.040208    3.204802   -1.146136
    124          1           0       16.226457    4.934557   -2.821754
    125          1           0       18.075422    4.568656   -3.280261
    126          1           0       16.786813    3.194525   -3.442545
    127          1           0       17.973314    5.434755    0.326413
    128          1           0       18.499783    5.749128   -1.139003
    129          1           0       16.988492    6.161874   -0.955989
    130          1           0       -5.282857   -7.924231   -0.064938
    131          1           0       -6.419200   -6.702837    0.805263
    132          1           0       -5.025011   -6.880195    1.346445
    133          8           0       -8.097716    6.744533   -0.239209
    134          1           0       -9.335120    6.404153   -1.706786
 ---------------------------------------------------------------------

 SCF Done:  E(RCAM-B3LYP) =  -3043.39639657     A.U. after   16 cycles

 Excitation energies and oscillator strengths:

 Excited State   1:      Singlet-A      1.9695 eV  629.52 nm  f=0.1637  <S**2>=0.000
     243 -> 246        0.28948
     244 -> 245        0.63671
 This state for optimization and/or second-order correction.
 Total Energy, E(TD-HF/TD-KS) =  -3043.32401875
 Copying the excited state density for this state as the 1-particle RhoCI density.

 The electronic state is 1-A.
 Alpha  occ. eigenvalues --  -46.81369 -19.24880 -19.21876 -19.19805 -19.17646
 Alpha  occ. eigenvalues --  -19.17346 -19.16965 -19.16936 -14.38780 -14.37134
 Alpha  occ. eigenvalues --  -14.36520 -14.36365 -10.36621 -10.36099 -10.31222
 Alpha  occ. eigenvalues --  -10.31172 -10.30497 -10.28524 -10.27388 -10.27291
 Alpha  occ. eigenvalues --  -10.26750 -10.26707 -10.26690 -10.26581 -10.25759
 Alpha  occ. eigenvalues --  -10.25754 -10.25732 -10.25677 -10.25451 -10.25363
 Alpha  occ. eigenvalues --  -10.25213 -10.25153 -10.25085 -10.24910 -10.24694
 Alpha  occ. eigenvalues --  -10.24645 -10.24383 -10.24341 -10.23809 -10.23673
 Alpha  occ. eigenvalues --  -10.23629 -10.23289 -10.22991 -10.22990 -10.22727
 Alpha  occ. eigenvalues --  -10.22653 -10.22601 -10.21993 -10.21806 -10.21778
 Alpha  occ. eigenvalues --  -10.21724 -10.21567 -10.21058 -10.21040 -10.20993
 Alpha  occ. eigenvalues --  -10.20914 -10.20868 -10.20860 -10.20714 -10.20530
 Alpha  occ. eigenvalues --  -10.20450 -10.20441 -10.19776 -10.18561 -10.18174
 Alpha  occ. eigenvalues --  -10.18033  -3.09978  -1.84916  -1.84446  -1.84397
 Alpha  occ. eigenvalues --   -1.16863  -1.11338  -1.09220  -1.07069  -1.05007
 Alpha  occ. eigenvalues --   -1.04304  -1.03603  -1.02256  -0.99836  -0.99499
 Alpha  occ. eigenvalues --   -0.98444  -0.87677  -0.86754  -0.86411  -0.85689
 Alpha  occ. eigenvalues --   -0.85242  -0.84843  -0.84579  -0.83513  -0.83158
 Alpha  occ. eigenvalues --   -0.83059  -0.82855  -0.82246  -0.80376  -0.80293
 Alpha  occ. eigenvalues --   -0.79062  -0.78019  -0.77789  -0.77662  -0.75900
 Alpha  occ. eigenvalues --   -0.75470  -0.74519  -0.74185  -0.73311  -0.71727
 Alpha  occ. eigenvalues --   -0.71565  -0.71267  -0.70502  -0.69839  -0.69634
 Alpha  occ. eigenvalues --   -0.68939  -0.68651  -0.67150  -0.66569  -0.65689
 Alpha  occ. eigenvalues --   -0.65568  -0.64371  -0.64134  -0.63227  -0.62382
 Alpha  occ. eigenvalues --   -0.62077  -0.61523  -0.60750  -0.59751  -0.59537
 Alpha  occ. eigenvalues --   -0.59021  -0.58479  -0.58253  -0.57729  -0.56614
 Alpha  occ. eigenvalues --   -0.55889  -0.55474  -0.55043  -0.54786  -0.54711
 Alpha  occ. eigenvalues --   -0.54315  -0.54134  -0.53833  -0.53432  -0.52542
 Alpha  occ. eigenvalues --   -0.52173  -0.51531  -0.51205  -0.51114  -0.51012
 Alpha  occ. eigenvalues --   -0.50361  -0.50095  -0.49744  -0.49306  -0.49001
 Alpha  occ. eigenvalues --   -0.48944  -0.48765  -0.48334  -0.48079  -0.47943
 Alpha  occ. eigenvalues --   -0.47660  -0.47386  -0.46979  -0.46641  -0.46570
 Alpha  occ. eigenvalues --   -0.46531  -0.46434  -0.46223  -0.46210  -0.46026
 Alpha  occ. eigenvalues --   -0.45708  -0.45602  -0.45516  -0.45299  -0.45061
 Alpha  occ. eigenvalues --   -0.44324  -0.44163  -0.43919  -0.43758  -0.43687
 Alpha  occ. eigenvalues --   -0.43614  -0.43363  -0.43009  -0.42885  -0.42789
 Alpha  occ. eigenvalues --   -0.42607  -0.42506  -0.42174  -0.42080  -0.41742
 Alpha  occ. eigenvalues --   -0.41465  -0.41378  -0.41076  -0.40754  -0.40588
 Alpha  occ. eigenvalues --   -0.40581  -0.40270  -0.40170  -0.40094  -0.39957
 Alpha  occ. eigenvalues --   -0.39920  -0.39675  -0.39616  -0.39444  -0.39383
 Alpha  occ. eigenvalues --   -0.39209  -0.38815  -0.38700  -0.38610  -0.38397
 Alpha  occ. eigenvalues --   -0.38211  -0.38188  -0.37743  -0.37631  -0.37607
 Alpha  occ. eigenvalues --   -0.37127  -0.36531  -0.36268  -0.36212  -0.35727
 Alpha  occ. eigenvalues --   -0.35360  -0.35049  -0.34975  -0.34743  -0.34581
 Alpha  occ. eigenvalues --   -0.34485  -0.34287  -0.34015  -0.33313  -0.32845
 Alpha  occ. eigenvalues --   -0.32755  -0.32565  -0.32244  -0.32122  -0.32095
 Alpha  occ. eigenvalues --   -0.31327  -0.31037  -0.31015  -0.30054  -0.30015
 Alpha  occ. eigenvalues --   -0.28694  -0.28275  -0.27865  -0.27690  -0.27451
 Alpha  occ. eigenvalues --   -0.27199  -0.27178  -0.22417  -0.21787
 Alpha virt. eigenvalues --   -0.08917  -0.06587  -0.01481  -0.00782   0.00574
 Alpha virt. eigenvalues --    0.01243   0.03255   0.03744   0.04316   0.04470
 Alpha virt. eigenvalues --    0.04929   0.05742   0.07602   0.07920   0.08377

 Mulliken charges:
               1
     1  Mg   0.830747
     2  C    0.067744
     3  C   -0.197833
     4  C   -0.164000
     5  C   -0.187865
     6  N   -0.627957
     7  C    0.338603
     8  C   -0.193390
     9  C   -0.102136
    10  C    0.291846
    11  C   -0.306877
    12  C   -0.144477
    13  C   -0.258536
    14  C    0.600015
    15  O   -0.431115
    16  O   -0.490041
    17  N   -0.716555
    18  C    0.312259
    19  C    0.063998
    20  C   -0.026660
    21  C    0.298048
    22  C   -0.352081
    23  C    0.235397
    24  O   -0.412023
    25  N   -0.657103
    26  C    0.325333
    27  C   -0.095479
    28  C    0.080314
    29  C    0.291468
    30  C    0.225880
    31  C   -0.251096
    32  C   -0.304612
    33  N   -0.710526
    34  C    0.263880
    35  C    0.042575
    36  C    0.008221
    37  C    0.308866
    38  C   -0.367609
    39  C    0.363871
    40  O   -0.436567
    41  C   -0.332502
    42  C    0.602530
    43  O   -0.500018
    44  O   -0.391126
    45  C   -0.088519
    46  C   -0.008251
    47  C   -0.150884
    48  C    0.141396
    49  C   -0.364488
    50  C   -0.217471
    51  C   -0.198058
    52  C   -0.157922
    53  C   -0.061276
    54  C   -0.312845
    55  C   -0.147224
    56  C   -0.176514
    57  C   -0.182202
    58  C   -0.062666
    59  C   -0.299369
    60  C   -0.184256
    61  C   -0.176972
    62  C   -0.166348
    63  C   -0.061723
    64  C   -0.272171
    65  C   -0.311478
    66  H    0.079929
    67  H    0.144697
    68  H    0.086263
    69  H    0.117023
    70  H    0.096580
    71  H    0.122944
    72  H    0.124450
    73  H    0.109301
    74  H    0.123334
    75  H    0.113528
    76  H    0.130062
    77  H    0.142892
    78  H    0.090410
    79  H    0.161084
    80  H    0.091132
    81  H    0.046161
    82  H    0.115232
    83  H    0.111250
    84  H    0.081773
    85  H    0.126572
    86  H    0.129153
    87  H    0.138354
    88  H    0.132124
    89  H    0.100780
    90  H    0.151085
    91  H    0.095057
    92  H    0.096558
    93  H    0.093297
    94  H    0.135788
    95  H    0.120771
    96  H    0.121268
    97  H    0.084981
    98  H    0.100299
    99  H    0.073571
   100  H    0.090809
   101  H    0.081230
   102  H    0.102187
   103  H    0.077612
   104  H    0.111321
   105  H    0.100214
   106  H    0.095295
   107  H    0.089146
   108  H    0.085982
   109  H    0.089712
   110  H    0.076396
   111  H    0.081722
   112  H    0.092354
   113  H    0.069874
   114  H    0.116455
   115  H    0.080884
   116  H    0.088705
   117  H    0.102574
   118  H    0.096450
   119  H    0.098249
   120  H    0.084281
   121  H    0.080529
   122  H    0.092509
   123  H    0.069868
   124  H    0.085824
   125  H    0.097526
   126  H    0.064279
   127  H    0.094350
   128  H    0.113730
   129  H    0.094232
   130  H    0.132446
   131  H    0.142996
   132  H    0.138511
   133  O   -0.433178
   134  H    0.093053
 Sum of Mulliken charges =   0.00000

 Dipole moment (field-independent basis, Debye):
    X=              0.6953    Y=             -5.0554    Z=             -1.4077  Tot=              5.2936
 Quadrupole moment (field-independent basis, Debye-Ang):
   XX=           -381.0072   YY=           -435.1709   ZZ=           -394.5714
   XY=             23.8816   XZ=             35.5052   YZ=            -36.4423

 Normal termination of Gaussian 09 at Tue Oct  8 15:20:09 2019.
