 Gaussian 09, Revision D.01,
 Gaussian 09:  ES64L-G09RevD.01 24-Apr-2013

 ----------------------------------------------------------------------
 # td=(NStates=1) iop(3/107=0140000000,3/108=0140000000) iop(3/107=0140
 000000,3/108=0140000000) CAM-B3LYP/6-31G(d,p)
 ----------------------------------------------------------------------

 --
 TD
 --
 Symbolic Z-matrix:
 Charge =  0 Multiplicity = 1

                         Standard orientation:
 ---------------------------------------------------------------------
 Center     Atomic      Atomic             Coordinates (Angstroms)
 Number     Number       Type             X           Y           Z
 ---------------------------------------------------------------------
      1         12           0        5.700595    1.097095   -0.182271
      2          6           0        5.043554   -2.140957    0.314940
      3          6           0        3.472707    1.296755   -2.667943
      4          6           0        6.516943    4.453058   -0.666709
      5          6           0        8.027787    1.003663    2.486784
      6          7           0        4.347011   -0.275096   -1.045582
      7          6           0        4.259107   -1.506262   -0.712201
      8          6           0        3.272186   -2.206948   -1.568071
      9          6           0        3.000954   -1.171625   -2.717490
     10          6           0        3.659515    0.021943   -2.138554
     11          6           0        3.635825   -1.557764   -4.006138
     12          6           0        1.926726   -2.500147   -0.758298
     13          6           0        0.919492   -3.350782   -1.508042
     14          6           0       -0.281365   -3.715015   -0.762054
     15          8           0       -0.490742   -3.288267    0.411146
     16          8           0       -1.178327   -4.517441   -1.432554
     17          7           0        5.113403    2.663544   -1.434950
     18          6           0        4.214655    2.460550   -2.403659
     19          6           0        4.034243    3.685591   -3.241624
     20          6           0        4.782450    4.682754   -2.496288
     21          6           0        5.506683    3.949783   -1.458758
     22          6           0        3.114859    3.932532   -4.292114
     23          6           0        4.909073    6.074842   -2.730767
     24          8           0        4.436112    6.637983   -3.684076
     25          7           0        7.029788    2.419017    0.684317
     26          6           0        7.195169    3.704472    0.395213
     27          6           0        8.230459    4.395020    1.218292
     28          6           0        8.651354    3.428395    2.091999
     29          6           0        7.871276    2.222532    1.738990
     30          6           0        8.573510    5.783416    1.098295
     31          6           0        9.633884    3.485908    3.174559
     32          6           0        9.005628    3.770445    4.704052
     33          7           0        6.373222   -0.254668    1.134994
     34          6           0        7.405830   -0.186803    2.157862
     35          6           0        7.480766   -1.444695    2.797063
     36          6           0        6.607728   -2.296641    2.151695
     37          6           0        5.986755   -1.469926    1.100562
     38          6           0        8.433158   -1.784599    3.902738
     39          6           0        6.182205   -3.612355    2.010915
     40          8           0        6.358861   -4.668904    2.574284
     41          6           0        4.951140   -3.536806    0.901625
     42          6           0        5.182509   -4.643628   -0.082199
     43          8           0        5.560210   -4.480568   -1.253889
     44          8           0        4.792553   -5.868221    0.463235
     45          6           0        4.971518   -6.994093   -0.384225
     46          6           0       -2.396029   -4.903348   -0.733387
     47          6           0       -3.489223   -4.029840   -1.135347
     48          6           0       -4.202569   -3.139621   -0.326076
     49          6           0       -3.919196   -2.933535    1.167557
     50          6           0       -5.326981   -2.325682   -0.794308
     51          6           0       -6.686779   -2.679106   -0.255151
     52          6           0       -7.757820   -1.714571   -0.729491
     53          6           0       -9.237148   -2.060235   -0.081283
     54          6           0       -9.753245   -3.381503   -0.476488
     55          6           0      -10.156945   -0.822217   -0.410922
     56          6           0      -11.507694   -0.822531    0.366697
     57          6           0      -12.364072    0.362257   -0.168774
     58          6           0      -13.714699    0.530490    0.584182
     59          6           0      -14.682682   -0.685306    0.520402
     60          6           0      -14.379841    1.829437    0.240406
     61          6           0      -15.547327    2.267241    1.054604
     62          6           0      -16.164076    3.551227    0.620015
     63          6           0      -17.478596    3.902288    1.401217
     64          6           0      -17.153533    3.892522    2.928167
     65          6           0      -17.928248    5.328078    0.961435
     66          1           0        2.931727    1.280214   -3.505737
     67          1           0        7.120377    5.492103   -0.847290
     68          1           0        8.848765    0.995398    3.286866
     69          1           0        3.734513   -3.143190   -2.016920
     70          1           0        2.040725   -1.127217   -2.904204
     71          1           0        3.242315   -2.501263   -4.368953
     72          1           0        3.214805   -0.679401   -4.661354
     73          1           0        4.874330   -1.357561   -4.117069
     74          1           0        2.299114   -3.144752    0.111141
     75          1           0        1.359123   -1.473444   -0.489477
     76          1           0        0.673198   -2.774749   -2.478270
     77          1           0        1.401221   -4.232952   -1.937285
     78          1           0        2.018616    4.220457   -3.971039
     79          1           0        3.306504    4.908744   -4.650742
     80          1           0        3.089299    3.168776   -5.151077
     81          1           0        5.397083    6.534894   -1.971765
     82          1           0       10.325138    2.555011    3.308209
     83          1           0       10.413446    4.408010    3.211455
     84          1           0        9.674606    3.674948    5.345998
     85          1           0        8.619374    4.753419    5.018863
     86          1           0        8.318541    3.003091    4.915106
     87          1           0        8.565909   -0.987974    4.866891
     88          1           0        8.086214   -2.817881    4.385866
     89          1           0        9.366604   -2.139578    3.513422
     90          1           0        4.016849   -3.749278    1.533206
     91          1           0       -2.435019   -5.868266   -1.224190
     92          1           0       -2.102967   -4.950389    0.440317
     93          1           0       -3.797105   -3.983973   -2.050638
     94          1           0       -3.184762   -3.546607    1.518331
     95          1           0       -3.787511   -1.813532    1.420239
     96          1           0       -4.682904   -3.155643    1.958501
     97          1           0       -5.055485   -1.336888   -0.477444
     98          1           0       -5.308933   -2.348027   -1.939849
     99          1           0       -6.863531   -3.705779   -0.664970
    100          1           0       -6.784336   -2.759545    0.800840
    101          1           0       -7.519817   -0.864209   -0.279234
    102          1           0       -7.859354   -1.696907   -1.909039
    103          1           0       -9.336270   -1.916773    0.979913
    104          1           0       -9.153988   -4.298497    0.138451
    105          1           0      -10.993546   -3.710966   -0.285891
    106          1           0       -9.568628   -3.529878   -1.469381
    107          1           0       -9.723098    0.214245   -0.327176
    108          1           0      -10.458710   -0.870207   -1.533936
    109          1           0      -12.138161   -1.748405    0.561624
    110          1           0      -11.288976   -0.502633    1.534605
    111          1           0      -11.894088    1.344057    0.136629
    112          1           0      -12.547087    0.177904   -1.237815
    113          1           0      -13.479951    0.429329    1.790580
    114          1           0      -14.795926   -1.042945   -0.598114
    115          1           0      -14.157148   -1.482759    1.022470
    116          1           0      -15.693860   -0.648719    0.976383
    117          1           0      -13.586145    2.486280    0.262544
    118          1           0      -14.786241    1.646579   -0.932356
    119          1           0      -16.436349    1.434620    0.962524
    120          1           0      -15.218104    2.238091    2.044119
    121          1           0      -15.680526    4.642174    0.879709
    122          1           0      -16.313956    3.393848   -0.428977
    123          1           0      -18.342766    3.076438    1.253544
    124          1           0      -16.444881    4.658781    3.346582
    125          1           0      -17.996056    4.184395    3.438125
    126          1           0      -16.980201    2.837366    3.273251
    127          1           0      -18.285934    5.300289   -0.154788
    128          1           0      -18.681175    5.823091    1.570196
    129          1           0      -17.083430    5.977786    1.030535
    130          1           0        4.373819   -8.020701   -0.108387
    131          1           0        6.162092   -7.330960   -0.501391
    132          1           0        4.572086   -6.899848   -1.464729
    133          8           0        7.934717    6.675087    0.491474
    134          1           0        9.452868    5.957959    1.777862
 ---------------------------------------------------------------------

 SCF Done:  E(RCAM-B3LYP) =  -3043.45220888     A.U. after   16 cycles

 Excitation energies and oscillator strengths:

 Excited State   1:      Singlet-A      2.0693 eV  599.15 nm  f=0.1576  <S**2>=0.000
     243 -> 246        0.30657
     244 -> 245        0.61815
 This state for optimization and/or second-order correction.
 Total Energy, E(TD-HF/TD-KS) =  -3043.37616269
 Copying the excited state density for this state as the 1-particle RhoCI density.

 The electronic state is 1-A.
 Alpha  occ. eigenvalues --  -46.82487 -19.22886 -19.21729 -19.17863 -19.17293
 Alpha  occ. eigenvalues --  -19.16893 -19.16500 -19.16266 -14.38859 -14.38048
 Alpha  occ. eigenvalues --  -14.37156 -14.36724 -10.35261 -10.34978 -10.31113
 Alpha  occ. eigenvalues --  -10.31071 -10.29351 -10.28159 -10.27996 -10.27454
 Alpha  occ. eigenvalues --  -10.27339 -10.27063 -10.26835 -10.26800 -10.26488
 Alpha  occ. eigenvalues --  -10.26396 -10.26105 -10.25844 -10.25724 -10.25542
 Alpha  occ. eigenvalues --  -10.25355 -10.25030 -10.25006 -10.24751 -10.24731
 Alpha  occ. eigenvalues --  -10.24268 -10.24210 -10.24143 -10.23836 -10.23643
 Alpha  occ. eigenvalues --  -10.23477 -10.23092 -10.22937 -10.22668 -10.22628
 Alpha  occ. eigenvalues --  -10.22600 -10.22548 -10.22406 -10.22384 -10.22246
 Alpha  occ. eigenvalues --  -10.22229 -10.22104 -10.21959 -10.21767 -10.21603
 Alpha  occ. eigenvalues --  -10.21603 -10.21138 -10.21065 -10.20884 -10.20880
 Alpha  occ. eigenvalues --  -10.20739 -10.20686 -10.20684 -10.20487 -10.20478
 Alpha  occ. eigenvalues --  -10.19718  -3.11041  -1.85987  -1.85507  -1.85451
 Alpha  occ. eigenvalues --   -1.11796  -1.11203  -1.07092  -1.06914  -1.05603
 Alpha  occ. eigenvalues --   -1.03942  -1.03724  -1.02239  -1.01484  -1.00802
 Alpha  occ. eigenvalues --   -1.00229  -0.87944  -0.86569  -0.86397  -0.85717
 Alpha  occ. eigenvalues --   -0.85396  -0.85204  -0.84832  -0.84048  -0.83762
 Alpha  occ. eigenvalues --   -0.83351  -0.82774  -0.82304  -0.80612  -0.79811
 Alpha  occ. eigenvalues --   -0.79081  -0.78548  -0.77628  -0.76718  -0.76341
 Alpha  occ. eigenvalues --   -0.75704  -0.75093  -0.74448  -0.73284  -0.71812
 Alpha  occ. eigenvalues --   -0.71577  -0.70970  -0.70495  -0.70146  -0.69792
 Alpha  occ. eigenvalues --   -0.69379  -0.69166  -0.67972  -0.67643  -0.67350
 Alpha  occ. eigenvalues --   -0.65893  -0.64730  -0.64534  -0.62996  -0.62347
 Alpha  occ. eigenvalues --   -0.62120  -0.60788  -0.59848  -0.58994  -0.58565
 Alpha  occ. eigenvalues --   -0.58105  -0.57787  -0.57547  -0.57447  -0.56747
 Alpha  occ. eigenvalues --   -0.56527  -0.56406  -0.55990  -0.55365  -0.54722
 Alpha  occ. eigenvalues --   -0.54039  -0.53217  -0.53114  -0.52838  -0.52398
 Alpha  occ. eigenvalues --   -0.51912  -0.51449  -0.51361  -0.51203  -0.50502
 Alpha  occ. eigenvalues --   -0.49922  -0.49854  -0.49551  -0.49443  -0.49232
 Alpha  occ. eigenvalues --   -0.48817  -0.48575  -0.48267  -0.47945  -0.47651
 Alpha  occ. eigenvalues --   -0.47498  -0.47175  -0.47117  -0.46858  -0.46696
 Alpha  occ. eigenvalues --   -0.46459  -0.46408  -0.46123  -0.45924  -0.45706
 Alpha  occ. eigenvalues --   -0.45518  -0.45375  -0.45255  -0.45035  -0.44924
 Alpha  occ. eigenvalues --   -0.44454  -0.44279  -0.44213  -0.43858  -0.43716
 Alpha  occ. eigenvalues --   -0.43498  -0.43368  -0.43010  -0.42711  -0.42425
 Alpha  occ. eigenvalues --   -0.42295  -0.42199  -0.42114  -0.41997  -0.41943
 Alpha  occ. eigenvalues --   -0.41481  -0.41308  -0.41235  -0.41108  -0.40942
 Alpha  occ. eigenvalues --   -0.40915  -0.40821  -0.40441  -0.40291  -0.40231
 Alpha  occ. eigenvalues --   -0.40079  -0.40014  -0.39805  -0.39543  -0.39101
 Alpha  occ. eigenvalues --   -0.38801  -0.38602  -0.38507  -0.38386  -0.38049
 Alpha  occ. eigenvalues --   -0.37878  -0.37493  -0.37371  -0.37167  -0.36750
 Alpha  occ. eigenvalues --   -0.36597  -0.36538  -0.36331  -0.35698  -0.35609
 Alpha  occ. eigenvalues --   -0.35482  -0.35207  -0.35060  -0.34811  -0.34368
 Alpha  occ. eigenvalues --   -0.34127  -0.34046  -0.33997  -0.33437  -0.33031
 Alpha  occ. eigenvalues --   -0.32499  -0.32358  -0.32233  -0.31964  -0.31783
 Alpha  occ. eigenvalues --   -0.31567  -0.30649  -0.30516  -0.30088  -0.29903
 Alpha  occ. eigenvalues --   -0.29381  -0.28752  -0.28078  -0.27515  -0.27371
 Alpha  occ. eigenvalues --   -0.27269  -0.26767  -0.22767  -0.21849
 Alpha virt. eigenvalues --   -0.08572  -0.06923  -0.02263  -0.01317   0.00859
 Alpha virt. eigenvalues --    0.02003   0.02246   0.02885   0.02942   0.03658
 Alpha virt. eigenvalues --    0.05189   0.05755   0.07483   0.08168   0.09443

 Mulliken charges:
               1
     1  Mg   0.823911
     2  C    0.104764
     3  C   -0.140520
     4  C   -0.184251
     5  C   -0.170796
     6  N   -0.626359
     7  C    0.353377
     8  C   -0.195835
     9  C   -0.126895
    10  C    0.319042
    11  C   -0.294090
    12  C   -0.157435
    13  C   -0.270212
    14  C    0.617440
    15  O   -0.493077
    16  O   -0.481288
    17  N   -0.695744
    18  C    0.314176
    19  C    0.067998
    20  C   -0.045561
    21  C    0.316612
    22  C   -0.417577
    23  C    0.259298
    24  O   -0.430293
    25  N   -0.654870
    26  C    0.279251
    27  C   -0.007106
    28  C    0.101431
    29  C    0.257018
    30  C    0.243838
    31  C   -0.307518
    32  C   -0.326534
    33  N   -0.753330
    34  C    0.254043
    35  C    0.051273
    36  C    0.083885
    37  C    0.327255
    38  C   -0.397042
    39  C    0.312810
    40  O   -0.450212
    41  C   -0.366687
    42  C    0.640300
    43  O   -0.481075
    44  O   -0.436277
    45  C   -0.077984
    46  C   -0.005915
    47  C   -0.086670
    48  C    0.132683
    49  C   -0.362652
    50  C   -0.230226
    51  C   -0.170530
    52  C   -0.161379
    53  C   -0.064560
    54  C   -0.280378
    55  C   -0.172867
    56  C   -0.182371
    57  C   -0.160204
    58  C   -0.062507
    59  C   -0.308491
    60  C   -0.135925
    61  C   -0.168114
    62  C   -0.119223
    63  C   -0.065003
    64  C   -0.313688
    65  C   -0.308780
    66  H    0.063200
    67  H    0.154682
    68  H    0.098735
    69  H    0.133806
    70  H    0.107909
    71  H    0.121682
    72  H    0.088364
    73  H    0.105568
    74  H    0.114494
    75  H    0.110196
    76  H    0.123649
    77  H    0.139408
    78  H    0.124563
    79  H    0.170428
    80  H    0.112114
    81  H    0.083637
    82  H    0.115118
    83  H    0.107054
    84  H    0.125717
    85  H    0.116115
    86  H    0.115423
    87  H    0.103448
    88  H    0.133916
    89  H    0.153106
    90  H    0.162275
    91  H    0.118728
    92  H    0.128287
    93  H    0.066833
    94  H    0.128559
    95  H    0.107159
    96  H    0.105861
    97  H    0.102854
    98  H    0.083756
    99  H    0.093022
   100  H    0.105094
   101  H    0.108065
   102  H    0.082751
   103  H    0.094105
   104  H    0.075252
   105  H    0.068205
   106  H    0.118905
   107  H    0.096125
   108  H    0.070061
   109  H    0.101663
   110  H    0.055995
   111  H    0.093893
   112  H    0.099898
   113  H    0.045572
   114  H    0.074201
   115  H    0.100309
   116  H    0.105217
   117  H    0.092655
   118  H    0.046770
   119  H    0.068302
   120  H    0.104022
   121  H    0.063075
   122  H    0.091614
   123  H    0.062971
   124  H    0.092927
   125  H    0.107573
   126  H    0.101301
   127  H    0.089751
   128  H    0.100800
   129  H    0.105246
   130  H    0.105535
   131  H    0.103660
   132  H    0.116875
   133  O   -0.449412
   134  H    0.068998
 Sum of Mulliken charges =   0.00000

 Dipole moment (field-independent basis, Debye):
    X=             -1.0632    Y=             -3.1631    Z=              1.2389  Tot=              3.5596
 Quadrupole moment (field-independent basis, Debye-Ang):
   XX=           -371.3976   YY=           -449.9176   ZZ=           -389.4448
   XY=             -4.2444   XZ=             24.2206   YZ=             36.4466

 Normal termination of Gaussian 09 at Fri Oct  4 04:41:15 2019.
