 Gaussian 09, Revision D.01,
 Gaussian 09:  ES64L-G09RevD.01 24-Apr-2013

 ----------------------------------------------------------------------
 # td=(NStates=1) iop(3/107=0140000000,3/108=0140000000) iop(3/107=0140
 000000,3/108=0140000000) CAM-B3LYP/6-31G(d,p)
 ----------------------------------------------------------------------

 --
 TD
 --
 Symbolic Z-matrix:
 Charge =  0 Multiplicity = 1

                         Standard orientation:
 ---------------------------------------------------------------------
 Center     Atomic      Atomic             Coordinates (Angstroms)
 Number     Number       Type             X           Y           Z
 ---------------------------------------------------------------------
      1         12           0       -5.659021    1.203769    0.182513
      2          6           0       -4.992984   -2.154378   -0.296415
      3          6           0       -3.438880    1.221830    2.808178
      4          6           0       -6.226089    4.575432    0.583013
      5          6           0       -7.949458    1.159536   -2.430135
      6          7           0       -4.362116   -0.213648    1.080076
      7          6           0       -4.239889   -1.602460    0.644477
      8          6           0       -3.211929   -2.367479    1.543711
      9          6           0       -2.973065   -1.340604    2.650201
     10          6           0       -3.559928    0.018790    2.112316
     11          6           0       -3.635751   -1.753909    4.053017
     12          6           0       -1.890574   -2.723702    0.798325
     13          6           0       -0.909535   -3.587240    1.540086
     14          6           0        0.269705   -4.015443    0.656465
     15          8           0        0.448003   -3.709642   -0.496092
     16          8           0        1.221305   -4.765936    1.341869
     17          7           0       -4.907165    2.653606    1.443510
     18          6           0       -3.912127    2.393637    2.460399
     19          6           0       -3.705905    3.617038    3.163710
     20          6           0       -4.461643    4.661701    2.499830
     21          6           0       -5.223887    3.987378    1.483396
     22          6           0       -2.852345    3.845740    4.427807
     23          6           0       -4.612101    6.126032    2.886766
     24          8           0       -4.051802    6.555731    3.820559
     25          7           0       -6.891003    2.581010   -0.600441
     26          6           0       -6.893387    3.935189   -0.354046
     27          6           0       -7.911682    4.606969   -1.199208
     28          6           0       -8.406659    3.666029   -2.190873
     29          6           0       -7.726892    2.381294   -1.712729
     30          6           0       -8.345411    6.004138   -1.256919
     31          6           0       -9.337811    3.822763   -3.214636
     32          6           0       -8.671025    4.006207   -4.625633
     33          7           0       -6.403813   -0.146094   -1.087501
     34          6           0       -7.370387   -0.017212   -2.052830
     35          6           0       -7.618493   -1.359031   -2.633699
     36          6           0       -6.701601   -2.147273   -2.024124
     37          6           0       -5.974943   -1.441359   -1.080533
     38          6           0       -8.603185   -1.784933   -3.720046
     39          6           0       -6.228672   -3.566419   -1.956347
     40          8           0       -6.605802   -4.559504   -2.558067
     41          6           0       -5.003340   -3.457433   -0.922528
     42          6           0       -5.377229   -4.592032    0.123810
     43          8           0       -5.864776   -4.442324    1.185013
     44          8           0       -5.161466   -5.790944   -0.422965
     45          6           0       -5.431731   -7.000874    0.384387
     46          6           0        2.413950   -5.159762    0.704944
     47          6           0        3.506849   -4.074280    0.971967
     48          6           0        4.074260   -3.217101    0.118531
     49          6           0        3.686310   -3.134402   -1.265572
     50          6           0        5.212694   -2.386593    0.638955
     51          6           0        6.608298   -2.649720   -0.032359
     52          6           0        7.740445   -1.742178    0.569005
     53          6           0        9.085453   -1.976621   -0.083806
     54          6           0        9.711508   -3.344987    0.025220
     55          6           0        9.988220   -0.870647    0.387440
     56          6           0       11.306421   -0.908504   -0.311517
     57          6           0       12.231495    0.240059    0.029048
     58          6           0       13.607522    0.439890   -0.593401
     59          6           0       14.560425   -0.706934   -0.344000
     60          6           0       14.242330    1.733968   -0.176885
     61          6           0       15.496102    2.219078   -0.980449
     62          6           0       15.956774    3.567139   -0.640931
     63          6           0       17.248332    3.957930   -1.343479
     64          6           0       17.184877    3.896433   -2.815367
     65          6           0       17.808363    5.295980   -0.782198
     66          1           0       -2.807956    1.320681    3.566480
     67          1           0       -6.432797    5.731606    0.576050
     68          1           0       -8.736593    1.241619   -3.275076
     69          1           0       -3.734845   -3.212031    1.909118
     70          1           0       -1.910405   -1.208571    3.007915
     71          1           0       -3.375023   -2.654244    4.444564
     72          1           0       -3.512597   -1.018512    4.780592
     73          1           0       -4.874943   -1.885723    4.000637
     74          1           0       -2.296390   -3.218328   -0.031499
     75          1           0       -1.511566   -1.739980    0.335663
     76          1           0       -0.386762   -3.045843    2.308657
     77          1           0       -1.189029   -4.552478    1.867699
     78          1           0       -1.707389    3.712514    4.125679
     79          1           0       -3.151835    4.931267    4.970984
     80          1           0       -3.193242    3.223434    5.296781
     81          1           0       -5.337866    6.791304    2.004327
     82          1           0       -9.945616    3.004643   -3.138957
     83          1           0       -9.854805    4.753106   -2.999695
     84          1           0       -9.515913    4.186653   -5.409831
     85          1           0       -8.275628    5.045191   -4.759610
     86          1           0       -8.152235    3.194061   -4.929663
     87          1           0       -8.625427   -1.240055   -4.568139
     88          1           0       -8.418537   -2.933973   -3.993987
     89          1           0       -9.647537   -1.650467   -3.245992
     90          1           0       -4.042508   -3.686550   -1.620888
     91          1           0        2.636131   -6.120594    1.128570
     92          1           0        2.358891   -5.136633   -0.390118
     93          1           0        3.783971   -4.168577    2.055281
     94          1           0        2.604213   -3.565902   -1.386045
     95          1           0        3.896542   -2.201651   -1.824073
     96          1           0        4.174798   -3.981138   -1.520616
     97          1           0        5.049151   -1.228367    0.397420
     98          1           0        5.366763   -2.494828    1.873360
     99          1           0        6.677783   -3.712904   -0.050551
    100          1           0        6.504640   -2.195756   -1.115890
    101          1           0        7.284464   -0.762450    0.448454
    102          1           0        7.611100   -1.936821    1.770351
    103          1           0        8.895884   -1.836787   -1.287644
    104          1           0        9.114616   -4.132912   -0.125597
    105          1           0       10.654621   -3.523469   -0.562069
    106          1           0        9.663712   -3.450987    1.229190
    107          1           0        9.559800   -0.026494    0.277180
    108          1           0       10.302584   -1.000326    1.543715
    109          1           0       11.802406   -1.691555   -0.064060
    110          1           0       11.103579   -0.922976   -1.496227
    111          1           0       11.665160    1.238554   -0.005138
    112          1           0       12.547810    0.218350    1.240685
    113          1           0       13.341973    0.650318   -1.754884
    114          1           0       14.812824   -0.800275    0.670926
    115          1           0       13.998676   -1.614515   -0.595292
    116          1           0       15.492850   -0.479226   -0.891827
    117          1           0       13.406675    2.573687   -0.287521
    118          1           0       14.515429    1.674820    0.891566
    119          1           0       16.317888    1.551082   -0.868051
    120          1           0       15.162648    1.972623   -1.907849
    121          1           0       15.159865    4.346862   -0.656987
    122          1           0       16.084654    3.723478    0.470280
    123          1           0       17.816733    3.087601   -0.928022
    124          1           0       16.381033    4.584911   -3.264469
    125          1           0       18.315049    4.211399   -3.009225
    126          1           0       16.828419    3.029830   -3.255852
    127          1           0       18.038658    5.301658    0.227787
    128          1           0       18.695704    5.602688   -1.216403
    129          1           0       16.954286    6.011071   -0.766292
    130          1           0       -4.753640   -7.700045   -0.301592
    131          1           0       -6.651447   -7.379922    0.369100
    132          1           0       -4.939540   -6.862663    1.478849
    133          8           0       -7.988124    6.896709   -0.490024
    134          1           0       -8.972447    6.237403   -2.190263
 ---------------------------------------------------------------------

 SCF Done:  E(RCAM-B3LYP) =  -3043.43353988     A.U. after   16 cycles

 Excitation energies and oscillator strengths:

 Excited State   1:      Singlet-A      1.8820 eV  658.79 nm  f=0.2674  <S**2>=0.000
     243 -> 246        0.16894
     244 -> 245        0.68292
 This state for optimization and/or second-order correction.
 Total Energy, E(TD-HF/TD-KS) =  -3043.36437796
 Copying the excited state density for this state as the 1-particle RhoCI density.

 The electronic state is 1-A.
 Alpha  occ. eigenvalues --  -46.80309 -19.22305 -19.21466 -19.18168 -19.17936
 Alpha  occ. eigenvalues --  -19.17594 -19.17513 -19.17038 -14.39561 -14.37120
 Alpha  occ. eigenvalues --  -14.36520 -14.35918 -10.35234 -10.35069 -10.32086
 Alpha  occ. eigenvalues --  -10.31940 -10.31149 -10.30554 -10.28028 -10.27490
 Alpha  occ. eigenvalues --  -10.27165 -10.26985 -10.26614 -10.26332 -10.26073
 Alpha  occ. eigenvalues --  -10.25880 -10.25609 -10.25532 -10.25363 -10.25151
 Alpha  occ. eigenvalues --  -10.25034 -10.24804 -10.24610 -10.24349 -10.24026
 Alpha  occ. eigenvalues --  -10.23966 -10.23952 -10.23672 -10.23511 -10.23392
 Alpha  occ. eigenvalues --  -10.23255 -10.23141 -10.23116 -10.23093 -10.23055
 Alpha  occ. eigenvalues --  -10.23048 -10.22692 -10.22606 -10.22174 -10.21977
 Alpha  occ. eigenvalues --  -10.21962 -10.21907 -10.21628 -10.21541 -10.21217
 Alpha  occ. eigenvalues --  -10.20927 -10.20880 -10.20624 -10.20449 -10.20368
 Alpha  occ. eigenvalues --  -10.20059 -10.20053 -10.19909 -10.19798 -10.19313
 Alpha  occ. eigenvalues --  -10.19070  -3.09048  -1.83982  -1.83536  -1.83451
 Alpha  occ. eigenvalues --   -1.14321  -1.12789  -1.10051  -1.07170  -1.05962
 Alpha  occ. eigenvalues --   -1.05746  -1.04910  -1.00368  -0.98902  -0.98159
 Alpha  occ. eigenvalues --   -0.96805  -0.89643  -0.86991  -0.86755  -0.86306
 Alpha  occ. eigenvalues --   -0.85970  -0.85489  -0.85043  -0.83783  -0.83543
 Alpha  occ. eigenvalues --   -0.82918  -0.81734  -0.80821  -0.80450  -0.79658
 Alpha  occ. eigenvalues --   -0.79061  -0.78217  -0.78012  -0.77035  -0.76328
 Alpha  occ. eigenvalues --   -0.76096  -0.74414  -0.73860  -0.72328  -0.72038
 Alpha  occ. eigenvalues --   -0.71919  -0.71709  -0.71101  -0.70476  -0.70110
 Alpha  occ. eigenvalues --   -0.69426  -0.68935  -0.67509  -0.67050  -0.66464
 Alpha  occ. eigenvalues --   -0.65576  -0.64212  -0.63156  -0.62327  -0.61933
 Alpha  occ. eigenvalues --   -0.61475  -0.60635  -0.60397  -0.58996  -0.58595
 Alpha  occ. eigenvalues --   -0.58271  -0.57668  -0.57309  -0.56544  -0.56488
 Alpha  occ. eigenvalues --   -0.55566  -0.55349  -0.54792  -0.54614  -0.54485
 Alpha  occ. eigenvalues --   -0.53888  -0.53542  -0.52989  -0.52655  -0.52339
 Alpha  occ. eigenvalues --   -0.51904  -0.51826  -0.51341  -0.51047  -0.50627
 Alpha  occ. eigenvalues --   -0.50275  -0.49812  -0.49649  -0.49483  -0.49308
 Alpha  occ. eigenvalues --   -0.49084  -0.48848  -0.48412  -0.48167  -0.47859
 Alpha  occ. eigenvalues --   -0.47642  -0.47523  -0.47344  -0.47301  -0.47114
 Alpha  occ. eigenvalues --   -0.46844  -0.46530  -0.46436  -0.46336  -0.46151
 Alpha  occ. eigenvalues --   -0.45888  -0.45431  -0.45387  -0.45273  -0.44994
 Alpha  occ. eigenvalues --   -0.44699  -0.44400  -0.44268  -0.44036  -0.43891
 Alpha  occ. eigenvalues --   -0.43746  -0.43640  -0.43446  -0.43401  -0.43204
 Alpha  occ. eigenvalues --   -0.42901  -0.42680  -0.42514  -0.42425  -0.42197
 Alpha  occ. eigenvalues --   -0.41961  -0.41442  -0.41200  -0.41154  -0.40950
 Alpha  occ. eigenvalues --   -0.40869  -0.40819  -0.40412  -0.40363  -0.40089
 Alpha  occ. eigenvalues --   -0.39755  -0.39677  -0.39414  -0.39356  -0.39055
 Alpha  occ. eigenvalues --   -0.38926  -0.38753  -0.38392  -0.38266  -0.38056
 Alpha  occ. eigenvalues --   -0.37942  -0.37736  -0.37508  -0.37440  -0.37354
 Alpha  occ. eigenvalues --   -0.36779  -0.36642  -0.36325  -0.36237  -0.36103
 Alpha  occ. eigenvalues --   -0.35656  -0.35340  -0.34976  -0.34514  -0.34362
 Alpha  occ. eigenvalues --   -0.34030  -0.33920  -0.33480  -0.33204  -0.32963
 Alpha  occ. eigenvalues --   -0.32333  -0.32233  -0.31908  -0.31827  -0.31510
 Alpha  occ. eigenvalues --   -0.31378  -0.31297  -0.30944  -0.30546  -0.30110
 Alpha  occ. eigenvalues --   -0.28542  -0.28120  -0.28021  -0.27529  -0.27388
 Alpha  occ. eigenvalues --   -0.26734  -0.26069  -0.24157  -0.20673
 Alpha virt. eigenvalues --   -0.08889  -0.06218  -0.01479  -0.00053   0.00583
 Alpha virt. eigenvalues --    0.03485   0.03714   0.04511   0.04703   0.04900
 Alpha virt. eigenvalues --    0.04940   0.06111   0.07399   0.08333   0.09420

 Mulliken charges:
               1
     1  Mg   0.812080
     2  C    0.193550
     3  C   -0.146136
     4  C   -0.204965
     5  C   -0.173172
     6  N   -0.622058
     7  C    0.241368
     8  C   -0.145576
     9  C   -0.141082
    10  C    0.357704
    11  C   -0.320439
    12  C   -0.164716
    13  C   -0.249924
    14  C    0.574472
    15  O   -0.448110
    16  O   -0.471844
    17  N   -0.714958
    18  C    0.322186
    19  C    0.024327
    20  C   -0.048544
    21  C    0.312814
    22  C   -0.389153
    23  C    0.262262
    24  O   -0.367558
    25  N   -0.704800
    26  C    0.371416
    27  C   -0.039790
    28  C    0.078471
    29  C    0.268994
    30  C    0.236031
    31  C   -0.279305
    32  C   -0.317651
    33  N   -0.753307
    34  C    0.294554
    35  C   -0.004987
    36  C    0.047619
    37  C    0.259079
    38  C   -0.380916
    39  C    0.381653
    40  O   -0.452485
    41  C   -0.392632
    42  C    0.609329
    43  O   -0.445559
    44  O   -0.437657
    45  C   -0.077880
    46  C    0.007537
    47  C   -0.164263
    48  C    0.173306
    49  C   -0.402734
    50  C   -0.223339
    51  C   -0.180114
    52  C   -0.164240
    53  C   -0.043834
    54  C   -0.301847
    55  C   -0.124529
    56  C   -0.156084
    57  C   -0.163631
    58  C   -0.049941
    59  C   -0.307704
    60  C   -0.170347
    61  C   -0.170480
    62  C   -0.176888
    63  C   -0.049230
    64  C   -0.281918
    65  C   -0.323579
    66  H    0.070557
    67  H    0.140707
    68  H    0.096690
    69  H    0.129423
    70  H    0.097261
    71  H    0.126460
    72  H    0.119025
    73  H    0.088067
    74  H    0.117846
    75  H    0.116937
    76  H    0.148864
    77  H    0.146042
    78  H    0.116694
    79  H    0.145988
    80  H    0.121520
    81  H    0.042826
    82  H    0.127301
    83  H    0.117605
    84  H    0.095867
    85  H    0.125631
    86  H    0.131923
    87  H    0.135180
    88  H    0.139274
    89  H    0.118874
    90  H    0.157582
    91  H    0.115177
    92  H    0.102429
    93  H    0.074152
    94  H    0.149073
    95  H    0.114155
    96  H    0.147442
    97  H    0.072754
    98  H    0.070054
    99  H    0.103503
   100  H    0.079157
   101  H    0.104166
   102  H    0.066215
   103  H    0.055240
   104  H    0.115907
   105  H    0.113048
   106  H    0.073732
   107  H    0.096161
   108  H    0.069594
   109  H    0.111646
   110  H    0.061674
   111  H    0.073577
   112  H    0.038650
   113  H    0.051684
   114  H    0.111020
   115  H    0.099907
   116  H    0.104190
   117  H    0.066169
   118  H    0.081729
   119  H    0.090311
   120  H    0.101397
   121  H    0.074671
   122  H    0.079574
   123  H    0.081572
   124  H    0.087971
   125  H    0.085367
   126  H    0.113050
   127  H    0.109050
   128  H    0.103129
   129  H    0.099362
   130  H    0.128833
   131  H    0.121680
   132  H    0.124142
   133  O   -0.432920
   134  H    0.057609
 Sum of Mulliken charges =   0.00000

 Dipole moment (field-independent basis, Debye):
    X=              1.5575    Y=             -5.1373    Z=             -1.4874  Tot=              5.5704
 Quadrupole moment (field-independent basis, Debye-Ang):
   XX=           -384.9917   YY=           -434.7108   ZZ=           -390.4522
   XY=              6.1097   XZ=             29.3490   YZ=            -32.8946

 Normal termination of Gaussian 09 at Fri Oct  4 21:03:45 2019.
