 Gaussian 09, Revision D.01,
 Gaussian 09:  ES64L-G09RevD.01 24-Apr-2013

 ----------------------------------------------------------------------
 # td=(NStates=1) iop(3/107=0140000000,3/108=0140000000) iop(3/107=0140
 000000,3/108=0140000000) CAM-B3LYP/6-31G(d,p)
 ----------------------------------------------------------------------

 --
 TD
 --
 Symbolic Z-matrix:
 Charge =  0 Multiplicity = 1

                         Standard orientation:
 ---------------------------------------------------------------------
 Center     Atomic      Atomic             Coordinates (Angstroms)
 Number     Number       Type             X           Y           Z
 ---------------------------------------------------------------------
      1         12           0       -5.628809    1.244176    0.205086
      2          6           0       -5.024552   -2.159599   -0.341008
      3          6           0       -3.316246    1.165262    2.718683
      4          6           0       -6.070883    4.523681    0.700624
      5          6           0       -8.078420    1.210227   -2.276022
      6          7           0       -4.226456   -0.288472    0.949754
      7          6           0       -4.250310   -1.626245    0.663815
      8          6           0       -3.122073   -2.324680    1.422721
      9          6           0       -2.825536   -1.289644    2.523172
     10          6           0       -3.470193   -0.012639    2.088858
     11          6           0       -3.363257   -1.823116    3.939301
     12          6           0       -2.009158   -2.844438    0.579495
     13          6           0       -0.993015   -3.708211    1.410319
     14          6           0        0.166898   -4.029152    0.647632
     15          8           0        0.406382   -3.610048   -0.468491
     16          8           0        0.995439   -4.890117    1.279194
     17          7           0       -4.804111    2.577662    1.403308
     18          6           0       -3.924287    2.369688    2.378312
     19          6           0       -3.596422    3.553063    3.189141
     20          6           0       -4.342221    4.545547    2.461777
     21          6           0       -5.233618    3.876640    1.521794
     22          6           0       -2.562916    3.852424    4.245726
     23          6           0       -4.411473    6.032887    2.775530
     24          8           0       -3.836123    6.592160    3.692529
     25          7           0       -6.914444    2.674460   -0.642215
     26          6           0       -6.857027    3.980619   -0.334821
     27          6           0       -7.889922    4.655048   -1.076122
     28          6           0       -8.422164    3.760340   -1.952847
     29          6           0       -7.708163    2.434073   -1.722477
     30          6           0       -8.269551    6.041237   -1.103430
     31          6           0       -9.458527    3.978859   -3.037434
     32          6           0       -8.726548    4.099050   -4.515088
     33          7           0       -6.432039   -0.084416   -1.009852
     34          6           0       -7.511559    0.001291   -1.945696
     35          6           0       -7.592623   -1.253523   -2.579925
     36          6           0       -6.636023   -2.128190   -2.004090
     37          6           0       -5.947778   -1.320759   -1.079422
     38          6           0       -8.649104   -1.680863   -3.651996
     39          6           0       -6.059086   -3.494077   -2.069276
     40          8           0       -6.439716   -4.416588   -2.697129
     41          6           0       -4.968767   -3.588227   -0.942452
     42          6           0       -5.333990   -4.570822    0.073773
     43          8           0       -5.757180   -4.355080    1.195585
     44          8           0       -4.978650   -5.844821   -0.416472
     45          6           0       -5.199307   -6.949746    0.441914
     46          6           0        2.287178   -5.204593    0.692124
     47          6           0        3.247833   -4.147698    1.068909
     48          6           0        3.966730   -3.310287    0.233728
     49          6           0        3.504836   -3.123715   -1.247285
     50          6           0        5.142540   -2.420907    0.609007
     51          6           0        6.459919   -2.723468   -0.007203
     52          6           0        7.574696   -1.860229    0.639865
     53          6           0        8.959274   -1.958975   -0.072224
     54          6           0        9.497860   -3.398268    0.105541
     55          6           0        9.978265   -0.812478    0.505540
     56          6           0       11.304987   -0.895801   -0.329855
     57          6           0       12.196262    0.312836    0.082135
     58          6           0       13.439354    0.494603   -0.711973
     59          6           0       14.374863   -0.695154   -0.659461
     60          6           0       14.123200    1.801943   -0.153148
     61          6           0       15.405000    2.219732   -0.947305
     62          6           0       15.776281    3.605226   -0.633191
     63          6           0       17.238635    3.966218   -1.274321
     64          6           0       17.157188    4.009649   -2.759999
     65          6           0       17.713067    5.201685   -0.736490
     66          1           0       -2.457090    1.045721    3.527652
     67          1           0       -6.333861    5.555996    0.544406
     68          1           0       -8.757358    1.311533   -3.165890
     69          1           0       -3.529495   -3.262354    1.893437
     70          1           0       -1.733696   -1.156715    2.618910
     71          1           0       -3.128759   -2.856710    4.203491
     72          1           0       -3.009719   -1.059365    4.705764
     73          1           0       -4.370316   -1.834536    3.698271
     74          1           0       -2.520030   -3.564357   -0.281124
     75          1           0       -1.281116   -2.148981    0.106615
     76          1           0       -0.627153   -2.853712    2.186514
     77          1           0       -1.537861   -4.601135    1.827393
     78          1           0       -1.683045    3.598107    3.855224
     79          1           0       -2.411027    4.907796    4.805412
     80          1           0       -2.834078    3.148530    5.042840
     81          1           0       -5.289257    6.399685    2.030763
     82          1           0      -10.091900    3.099626   -3.100034
     83          1           0      -10.328756    4.664452   -2.790695
     84          1           0       -9.540134    4.138979   -5.244397
     85          1           0       -8.225159    5.139421   -4.715811
     86          1           0       -7.944137    3.305460   -4.683946
     87          1           0       -8.621840   -0.953953   -4.582442
     88          1           0       -8.433094   -2.819193   -3.866607
     89          1           0       -9.628049   -1.516925   -3.342440
     90          1           0       -4.008450   -3.766240   -1.512845
     91          1           0        2.327569   -6.225867    1.183975
     92          1           0        2.167040   -5.356217   -0.471149
     93          1           0        3.790517   -4.225082    2.155641
     94          1           0        2.495012   -3.296796   -1.523531
     95          1           0        3.552725   -2.110577   -1.512507
     96          1           0        4.262946   -3.617483   -1.802420
     97          1           0        4.742723   -1.379790    0.597799
     98          1           0        5.081802   -2.570331    1.778200
     99          1           0        6.631262   -3.935640    0.148846
    100          1           0        6.654101   -2.347509   -1.081237
    101          1           0        7.126585   -0.772375    0.590783
    102          1           0        7.671208   -1.977565    1.737067
    103          1           0        8.803779   -1.813368   -1.170222
    104          1           0        8.887533   -4.279592   -0.076782
    105          1           0       10.500057   -3.578176   -0.296826
    106          1           0        9.562137   -3.455115    0.979496
    107          1           0        9.335287    0.064796    0.286211
    108          1           0       10.075311   -0.909538    1.588559
    109          1           0       11.677148   -1.899844   -0.248792
    110          1           0       11.062620   -0.692541   -1.321237
    111          1           0       11.574284    1.248335    0.098713
    112          1           0       12.519237    0.076721    1.173546
    113          1           0       13.168627    0.601909   -1.755092
    114          1           0       14.807900   -0.988557    0.318039
    115          1           0       13.863260   -1.645627   -0.777640
    116          1           0       15.329219   -0.511750   -1.172020
    117          1           0       13.427712    2.471124   -0.337725
    118          1           0       14.214803    1.644533    0.907174
    119          1           0       16.168209    1.437919   -0.848454
    120          1           0       15.211442    2.084917   -1.859208
    121          1           0       15.354229    4.472699   -1.143897
    122          1           0       15.527649    3.619369    0.502137
    123          1           0       17.759596    3.061704   -0.895868
    124          1           0       16.188597    4.395024   -3.080985
    125          1           0       18.145099    4.649661   -3.129568
    126          1           0       17.047758    2.886461   -3.192933
    127          1           0       17.784247    5.192967    0.420767
    128          1           0       18.676011    5.487075   -1.134698
    129          1           0       17.035971    5.964931   -0.907842
    130          1           0       -4.827433   -7.867945   -0.234538
    131          1           0       -6.397538   -7.173998    0.675707
    132          1           0       -4.657229   -6.906285    1.513206
    133          8           0       -7.742350    6.878048   -0.262344
    134          1           0       -9.141880    6.325156   -1.721366
 ---------------------------------------------------------------------

 SCF Done:  E(RCAM-B3LYP) =  -3043.45459946     A.U. after   16 cycles

 Excitation energies and oscillator strengths:

 Excited State   1:      Singlet-A      2.1320 eV  581.54 nm  f=0.1604  <S**2>=0.000
     243 -> 246        0.28507
     244 -> 245        0.63094
 This state for optimization and/or second-order correction.
 Total Energy, E(TD-HF/TD-KS) =  -3043.37624964
 Copying the excited state density for this state as the 1-particle RhoCI density.

 The electronic state is 1-A.
 Alpha  occ. eigenvalues --  -46.80923 -19.22789 -19.21009 -19.18675 -19.17786
 Alpha  occ. eigenvalues --  -19.17685 -19.17089 -19.16351 -14.38217 -14.37314
 Alpha  occ. eigenvalues --  -14.37026 -14.36414 -10.35992 -10.34004 -10.31812
 Alpha  occ. eigenvalues --  -10.31042 -10.30844 -10.30053 -10.28561 -10.27516
 Alpha  occ. eigenvalues --  -10.26911 -10.26845 -10.26532 -10.26318 -10.26109
 Alpha  occ. eigenvalues --  -10.25999 -10.25743 -10.25600 -10.25328 -10.25243
 Alpha  occ. eigenvalues --  -10.25216 -10.25208 -10.25038 -10.24594 -10.24410
 Alpha  occ. eigenvalues --  -10.24081 -10.23880 -10.23875 -10.23872 -10.23860
 Alpha  occ. eigenvalues --  -10.23551 -10.23548 -10.23184 -10.23020 -10.23020
 Alpha  occ. eigenvalues --  -10.22670 -10.22655 -10.22631 -10.22552 -10.22420
 Alpha  occ. eigenvalues --  -10.22341 -10.22194 -10.22150 -10.21933 -10.21711
 Alpha  occ. eigenvalues --  -10.21137 -10.20789 -10.20746 -10.20680 -10.20497
 Alpha  occ. eigenvalues --  -10.19704 -10.19103 -10.19032 -10.18994 -10.18707
 Alpha  occ. eigenvalues --  -10.17773  -3.09645  -1.84578  -1.84119  -1.84061
 Alpha  occ. eigenvalues --   -1.12681  -1.12666  -1.09685  -1.06590  -1.05506
 Alpha  occ. eigenvalues --   -1.03997  -1.02951  -1.01251  -1.00223  -0.99648
 Alpha  occ. eigenvalues --   -0.98518  -0.88507  -0.86044  -0.85851  -0.85715
 Alpha  occ. eigenvalues --   -0.85392  -0.84564  -0.84458  -0.84208  -0.83366
 Alpha  occ. eigenvalues --   -0.82919  -0.82795  -0.81637  -0.80820  -0.80130
 Alpha  occ. eigenvalues --   -0.79145  -0.78642  -0.77436  -0.77258  -0.76627
 Alpha  occ. eigenvalues --   -0.75812  -0.74927  -0.73693  -0.72556  -0.71918
 Alpha  occ. eigenvalues --   -0.71695  -0.71376  -0.70761  -0.70113  -0.69807
 Alpha  occ. eigenvalues --   -0.69427  -0.68817  -0.67731  -0.67156  -0.66541
 Alpha  occ. eigenvalues --   -0.65667  -0.64861  -0.64216  -0.62950  -0.62154
 Alpha  occ. eigenvalues --   -0.61484  -0.61092  -0.60556  -0.59677  -0.58941
 Alpha  occ. eigenvalues --   -0.58832  -0.58172  -0.58104  -0.57036  -0.56660
 Alpha  occ. eigenvalues --   -0.56296  -0.56204  -0.55039  -0.54644  -0.54583
 Alpha  occ. eigenvalues --   -0.54092  -0.53820  -0.52676  -0.52311  -0.51875
 Alpha  occ. eigenvalues --   -0.51390  -0.51311  -0.51166  -0.50908  -0.50713
 Alpha  occ. eigenvalues --   -0.50185  -0.50053  -0.49348  -0.49122  -0.49000
 Alpha  occ. eigenvalues --   -0.48759  -0.48444  -0.48298  -0.48204  -0.48085
 Alpha  occ. eigenvalues --   -0.47631  -0.47385  -0.47345  -0.47066  -0.46839
 Alpha  occ. eigenvalues --   -0.46797  -0.46661  -0.46076  -0.45871  -0.45608
 Alpha  occ. eigenvalues --   -0.45397  -0.45334  -0.44861  -0.44786  -0.44597
 Alpha  occ. eigenvalues --   -0.44492  -0.44373  -0.44103  -0.43727  -0.43640
 Alpha  occ. eigenvalues --   -0.43466  -0.43303  -0.43017  -0.42968  -0.42575
 Alpha  occ. eigenvalues --   -0.42502  -0.42291  -0.41985  -0.41979  -0.41869
 Alpha  occ. eigenvalues --   -0.41556  -0.41490  -0.41448  -0.41333  -0.40927
 Alpha  occ. eigenvalues --   -0.40842  -0.40712  -0.40528  -0.40282  -0.40074
 Alpha  occ. eigenvalues --   -0.39906  -0.39816  -0.39717  -0.39054  -0.39015
 Alpha  occ. eigenvalues --   -0.38935  -0.38788  -0.38406  -0.38279  -0.38143
 Alpha  occ. eigenvalues --   -0.37934  -0.37762  -0.37504  -0.37318  -0.37232
 Alpha  occ. eigenvalues --   -0.36815  -0.36338  -0.36199  -0.35933  -0.35616
 Alpha  occ. eigenvalues --   -0.35357  -0.35274  -0.34859  -0.34699  -0.34581
 Alpha  occ. eigenvalues --   -0.34558  -0.34176  -0.34028  -0.33609  -0.33330
 Alpha  occ. eigenvalues --   -0.32944  -0.32887  -0.32558  -0.32089  -0.31884
 Alpha  occ. eigenvalues --   -0.31491  -0.31006  -0.30285  -0.29814  -0.28790
 Alpha  occ. eigenvalues --   -0.28683  -0.28286  -0.28131  -0.28057  -0.27904
 Alpha  occ. eigenvalues --   -0.27167  -0.26977  -0.23086  -0.22115
 Alpha virt. eigenvalues --   -0.08491  -0.06473  -0.01770  -0.01044   0.00073
 Alpha virt. eigenvalues --    0.02048   0.02637   0.03576   0.03782   0.04328
 Alpha virt. eigenvalues --    0.04740   0.05637   0.07731   0.08171   0.09297

 Mulliken charges:
               1
     1  Mg   0.821534
     2  C    0.029605
     3  C   -0.196583
     4  C   -0.134869
     5  C   -0.160484
     6  N   -0.650558
     7  C    0.320755
     8  C   -0.125335
     9  C   -0.197118
    10  C    0.377958
    11  C   -0.303719
    12  C   -0.166534
    13  C   -0.268589
    14  C    0.622982
    15  O   -0.477126
    16  O   -0.475700
    17  N   -0.704877
    18  C    0.344243
    19  C    0.022216
    20  C   -0.061018
    21  C    0.305388
    22  C   -0.369940
    23  C    0.270463
    24  O   -0.417237
    25  N   -0.682750
    26  C    0.257590
    27  C    0.010620
    28  C    0.017298
    29  C    0.283690
    30  C    0.223650
    31  C   -0.271387
    32  C   -0.318166
    33  N   -0.762810
    34  C    0.289252
    35  C   -0.020888
    36  C    0.017622
    37  C    0.349566
    38  C   -0.376225
    39  C    0.356591
    40  O   -0.418058
    41  C   -0.328707
    42  C    0.660598
    43  O   -0.453722
    44  O   -0.450874
    45  C   -0.071972
    46  C   -0.005338
    47  C   -0.111338
    48  C    0.093892
    49  C   -0.376795
    50  C   -0.217976
    51  C   -0.147516
    52  C   -0.181464
    53  C   -0.079935
    54  C   -0.303216
    55  C   -0.188651
    56  C   -0.180425
    57  C   -0.170238
    58  C   -0.062848
    59  C   -0.322186
    60  C   -0.180224
    61  C   -0.166656
    62  C   -0.176582
    63  C   -0.060040
    64  C   -0.294376
    65  C   -0.298397
    66  H    0.088629
    67  H    0.143690
    68  H    0.101902
    69  H    0.111586
    70  H    0.095697
    71  H    0.118122
    72  H    0.102392
    73  H    0.136507
    74  H    0.081128
    75  H    0.127162
    76  H    0.127837
    77  H    0.132857
    78  H    0.141935
    79  H    0.156776
    80  H    0.120006
    81  H    0.074132
    82  H    0.118553
    83  H    0.113216
    84  H    0.119705
    85  H    0.109344
    86  H    0.124202
    87  H    0.103171
    88  H    0.141451
    89  H    0.139729
    90  H    0.177718
    91  H    0.121526
    92  H    0.124384
    93  H    0.058469
    94  H    0.152124
    95  H    0.108853
    96  H    0.119274
    97  H    0.113045
    98  H    0.083555
    99  H    0.083196
   100  H    0.101824
   101  H    0.071726
   102  H    0.090286
   103  H    0.076994
   104  H    0.093084
   105  H    0.091323
   106  H    0.118852
   107  H    0.095332
   108  H    0.096232
   109  H    0.103861
   110  H    0.103030
   111  H    0.086148
   112  H    0.072927
   113  H    0.082145
   114  H    0.089526
   115  H    0.098949
   116  H    0.100339
   117  H    0.101471
   118  H    0.092351
   119  H    0.086749
   120  H    0.100004
   121  H    0.086915
   122  H    0.078895
   123  H    0.088187
   124  H    0.108643
   125  H    0.087305
   126  H    0.084320
   127  H    0.087266
   128  H    0.095102
   129  H    0.105363
   130  H    0.116907
   131  H    0.104701
   132  H    0.110462
   133  O   -0.457570
   134  H    0.092413
 Sum of Mulliken charges =   0.00000

 Dipole moment (field-independent basis, Debye):
    X=              1.7180    Y=             -3.7744    Z=             -1.4053  Tot=              4.3786
 Quadrupole moment (field-independent basis, Debye-Ang):
   XX=           -372.4297   YY=           -443.3710   ZZ=           -393.9574
   XY=              2.1615   XZ=             27.3084   YZ=            -37.6738

 Normal termination of Gaussian 09 at Sat Oct  5 04:06:39 2019.
