 Gaussian 09, Revision D.01,
 Gaussian 09:  ES64L-G09RevD.01 24-Apr-2013

 ----------------------------------------------------------------------
 # td=(NStates=1) iop(3/107=0140000000,3/108=0140000000) iop(3/107=0140
 000000,3/108=0140000000) CAM-B3LYP/6-31G(d,p)
 ----------------------------------------------------------------------

 --
 TD
 --
 Symbolic Z-matrix:
 Charge =  0 Multiplicity = 1

                         Standard orientation:
 ---------------------------------------------------------------------
 Center     Atomic      Atomic             Coordinates (Angstroms)
 Number     Number       Type             X           Y           Z
 ---------------------------------------------------------------------
      1         12           0       -5.556450    1.243252    0.146206
      2          6           0       -4.993405   -2.156584   -0.292699
      3          6           0       -3.311018    1.231734    2.697259
      4          6           0       -6.155857    4.544871    0.583975
      5          6           0       -8.108055    1.074041   -2.372100
      6          7           0       -4.275224   -0.258024    0.918264
      7          6           0       -4.213594   -1.595763    0.543795
      8          6           0       -3.126032   -2.300919    1.460509
      9          6           0       -2.911607   -1.266977    2.577605
     10          6           0       -3.611894   -0.009414    2.065972
     11          6           0       -3.504623   -1.717283    3.991372
     12          6           0       -1.911862   -2.681057    0.673561
     13          6           0       -0.968515   -3.541978    1.425032
     14          6           0        0.282382   -3.895002    0.683325
     15          8           0        0.448389   -3.407219   -0.375818
     16          8           0        1.096325   -4.682965    1.357157
     17          7           0       -4.892883    2.751394    1.412488
     18          6           0       -3.977310    2.470885    2.388403
     19          6           0       -3.816325    3.669364    3.145713
     20          6           0       -4.545752    4.670762    2.509761
     21          6           0       -5.211730    4.039578    1.468095
     22          6           0       -2.869143    3.688275    4.321613
     23          6           0       -4.847948    5.978803    2.969014
     24          8           0       -4.218443    6.552378    3.939462
     25          7           0       -6.922267    2.614886   -0.729024
     26          6           0       -7.028430    3.931542   -0.370947
     27          6           0       -8.052613    4.599924   -1.285538
     28          6           0       -8.495409    3.567913   -2.113751
     29          6           0       -7.821109    2.417445   -1.738197
     30          6           0       -8.418171    6.005099   -1.179829
     31          6           0       -9.395868    3.734420   -3.292369
     32          6           0       -8.732958    3.816510   -4.603691
     33          7           0       -6.430175   -0.165238   -1.015762
     34          6           0       -7.417677   -0.111390   -2.098805
     35          6           0       -7.583240   -1.346418   -2.747682
     36          6           0       -6.683287   -2.144949   -2.022397
     37          6           0       -6.038347   -1.445383   -1.018552
     38          6           0       -8.518330   -1.682290   -3.767117
     39          6           0       -6.172246   -3.446316   -2.001732
     40          8           0       -6.457618   -4.579380   -2.584625
     41          6           0       -5.048677   -3.563705   -0.815313
     42          6           0       -5.299662   -4.677859    0.169448
     43          8           0       -5.698874   -4.430358    1.295785
     44          8           0       -5.116777   -5.871019   -0.330660
     45          6           0       -5.348994   -6.890403    0.602852
     46          6           0        2.334181   -5.072618    0.742140
     47          6           0        3.374828   -4.096103    1.073492
     48          6           0        4.014911   -3.288287    0.148382
     49          6           0        3.722149   -3.273644   -1.313068
     50          6           0        5.185646   -2.373964    0.664310
     51          6           0        6.598440   -2.623940    0.088015
     52          6           0        7.664152   -1.696695    0.577068
     53          6           0        9.057968   -1.848381   -0.122855
     54          6           0        9.699774   -3.323262    0.055460
     55          6           0       10.074795   -0.782800    0.304854
     56          6           0       11.382363   -0.692710   -0.334986
     57          6           0       12.249333    0.437677    0.052334
     58          6           0       13.626931    0.427227   -0.645562
     59          6           0       14.502153   -0.836982   -0.238641
     60          6           0       14.230090    1.784630   -0.359854
     61          6           0       15.469990    2.120675   -1.067773
     62          6           0       16.085863    3.463071   -0.564584
     63          6           0       17.440920    3.871946   -1.194634
     64          6           0       17.159588    3.993280   -2.827378
     65          6           0       17.904399    5.229831   -0.650946
     66          1           0       -2.516697    1.107441    3.353472
     67          1           0       -6.395131    5.483464    0.702362
     68          1           0       -8.933096    1.081804   -3.067377
     69          1           0       -3.556827   -3.212994    1.858543
     70          1           0       -1.933855   -0.834525    2.653201
     71          1           0       -2.634584   -2.496387    4.346886
     72          1           0       -3.619042   -0.934712    4.797484
     73          1           0       -4.462645   -2.211209    4.066243
     74          1           0       -2.241544   -3.329599   -0.218317
     75          1           0       -1.223065   -1.800501    0.397402
     76          1           0       -0.585991   -2.954956    2.345861
     77          1           0       -1.298607   -4.435187    1.734206
     78          1           0       -1.723804    3.628610    4.031919
     79          1           0       -2.988475    4.657045    4.829593
     80          1           0       -3.267196    2.785368    5.040815
     81          1           0       -5.879511    6.421657    2.438583
     82          1           0      -10.064716    2.913651   -3.540297
     83          1           0      -10.175139    4.726913   -3.238908
     84          1           0       -9.414035    3.930257   -5.518313
     85          1           0       -7.986853    4.627983   -4.737884
     86          1           0       -8.054117    2.856681   -4.749059
     87          1           0       -8.480104   -0.981611   -4.677039
     88          1           0       -8.586535   -2.768635   -4.079244
     89          1           0       -9.570000   -1.567877   -3.326991
     90          1           0       -4.174479   -3.699104   -1.367943
     91          1           0        2.545844   -5.930682    1.043320
     92          1           0        2.106217   -5.392989   -0.272757
     93          1           0        3.504419   -3.849549    2.121983
     94          1           0        2.836223   -3.821985   -1.580258
     95          1           0        3.912456   -2.254160   -1.631613
     96          1           0        4.450787   -3.937729   -1.893922
     97          1           0        4.781444   -1.299711    0.583232
     98          1           0        5.170062   -2.652753    1.791101
     99          1           0        6.645912   -3.597185    0.357727
    100          1           0        6.483543   -2.521812   -1.094826
    101          1           0        7.261262   -0.609427    0.620778
    102          1           0        7.883438   -1.896482    1.760205
    103          1           0        8.897784   -1.950301   -1.168892
    104          1           0        9.102828   -4.048060   -0.719862
    105          1           0       10.627335   -3.232392   -0.408183
    106          1           0        9.784827   -3.608900    1.122559
    107          1           0        9.695471    0.191225    0.144389
    108          1           0       10.282887   -0.756920    1.404936
    109          1           0       12.006690   -1.522856   -0.256683
    110          1           0       11.123026   -0.659344   -1.385309
    111          1           0       11.609558    1.199189    0.027102
    112          1           0       12.544426    0.298072    1.125871
    113          1           0       13.540824    0.252273   -1.723852
    114          1           0       14.534743   -0.850463    0.984508
    115          1           0       14.082683   -1.836511   -0.449578
    116          1           0       15.486923   -0.878615   -0.846105
    117          1           0       13.545556    2.518501   -0.641332
    118          1           0       14.237998    2.021150    0.711621
    119          1           0       16.173678    1.307716   -1.312363
    120          1           0       15.121978    2.129297   -2.206521
    121          1           0       15.197162    4.202871   -0.893033
    122          1           0       16.018879    3.391792    0.549009
    123          1           0       18.199141    2.991178   -0.983389
    124          1           0       16.279149    4.602061   -2.810596
    125          1           0       18.026283    4.465170   -3.234018
    126          1           0       16.940392    3.051680   -3.161552
    127          1           0       17.939257    5.011795    0.387022
    128          1           0       18.844548    5.492650   -1.272676
    129          1           0       17.120631    6.132375   -0.817064
    130          1           0       -5.148687   -7.894935    0.180192
    131          1           0       -6.230783   -7.001679    0.998421
    132          1           0       -4.649793   -7.058554    1.477079
    133          8           0       -7.899485    6.731242   -0.348393
    134          1           0       -9.184828    6.471254   -1.835509
 ---------------------------------------------------------------------

 SCF Done:  E(RCAM-B3LYP) =  -3043.49598757     A.U. after   15 cycles

 Excitation energies and oscillator strengths:

 Excited State   1:      Singlet-A      1.9493 eV  636.03 nm  f=0.2003  <S**2>=0.000
     243 -> 246       -0.20178
     244 -> 245        0.66266
 This state for optimization and/or second-order correction.
 Total Energy, E(TD-HF/TD-KS) =  -3043.42435093
 Copying the excited state density for this state as the 1-particle RhoCI density.

 The electronic state is 1-A.
 Alpha  occ. eigenvalues --  -46.82216 -19.24347 -19.22203 -19.16815 -19.16758
 Alpha  occ. eigenvalues --  -19.16695 -19.16017 -19.15886 -14.38497 -14.37526
 Alpha  occ. eigenvalues --  -14.37415 -14.36570 -10.35131 -10.33577 -10.31039
 Alpha  occ. eigenvalues --  -10.31006 -10.30330 -10.27814 -10.27327 -10.26935
 Alpha  occ. eigenvalues --  -10.26881 -10.26792 -10.26680 -10.26441 -10.26431
 Alpha  occ. eigenvalues --  -10.26315 -10.26100 -10.25920 -10.25744 -10.25088
 Alpha  occ. eigenvalues --  -10.24693 -10.24535 -10.24532 -10.24334 -10.23976
 Alpha  occ. eigenvalues --  -10.23751 -10.23744 -10.23716 -10.23606 -10.23594
 Alpha  occ. eigenvalues --  -10.23157 -10.23031 -10.22982 -10.22960 -10.22946
 Alpha  occ. eigenvalues --  -10.22927 -10.22919 -10.22661 -10.22555 -10.22534
 Alpha  occ. eigenvalues --  -10.22466 -10.22187 -10.22102 -10.22049 -10.21876
 Alpha  occ. eigenvalues --  -10.21790 -10.21524 -10.21515 -10.21196 -10.21091
 Alpha  occ. eigenvalues --  -10.20933 -10.20028 -10.19549 -10.19464 -10.19143
 Alpha  occ. eigenvalues --  -10.18511  -3.10625  -1.85583  -1.85075  -1.85038
 Alpha  occ. eigenvalues --   -1.16179  -1.14644  -1.06740  -1.06309  -1.05155
 Alpha  occ. eigenvalues --   -1.02590  -1.01788  -1.01299  -1.00167  -0.99654
 Alpha  occ. eigenvalues --   -0.98876  -0.88866  -0.86542  -0.86269  -0.86106
 Alpha  occ. eigenvalues --   -0.85581  -0.85329  -0.84585  -0.84288  -0.83456
 Alpha  occ. eigenvalues --   -0.83236  -0.82780  -0.81762  -0.81080  -0.80215
 Alpha  occ. eigenvalues --   -0.79560  -0.79076  -0.78850  -0.78258  -0.77356
 Alpha  occ. eigenvalues --   -0.75884  -0.75329  -0.74032  -0.73712  -0.72882
 Alpha  occ. eigenvalues --   -0.71408  -0.70908  -0.70516  -0.70436  -0.69848
 Alpha  occ. eigenvalues --   -0.69633  -0.69163  -0.67703  -0.66490  -0.66134
 Alpha  occ. eigenvalues --   -0.65473  -0.64742  -0.64352  -0.63363  -0.62556
 Alpha  occ. eigenvalues --   -0.62112  -0.61958  -0.60635  -0.60240  -0.59819
 Alpha  occ. eigenvalues --   -0.59442  -0.58660  -0.58319  -0.57057  -0.57010
 Alpha  occ. eigenvalues --   -0.56686  -0.56136  -0.55964  -0.55627  -0.55004
 Alpha  occ. eigenvalues --   -0.54488  -0.53917  -0.53446  -0.53122  -0.52719
 Alpha  occ. eigenvalues --   -0.52349  -0.52147  -0.51902  -0.51732  -0.51274
 Alpha  occ. eigenvalues --   -0.50755  -0.49859  -0.49556  -0.49388  -0.49117
 Alpha  occ. eigenvalues --   -0.48939  -0.48714  -0.48400  -0.48222  -0.48087
 Alpha  occ. eigenvalues --   -0.47832  -0.47603  -0.47356  -0.47204  -0.46875
 Alpha  occ. eigenvalues --   -0.46844  -0.46278  -0.46078  -0.45777  -0.45537
 Alpha  occ. eigenvalues --   -0.45393  -0.45333  -0.45130  -0.45058  -0.44846
 Alpha  occ. eigenvalues --   -0.44653  -0.44486  -0.44053  -0.43900  -0.43509
 Alpha  occ. eigenvalues --   -0.43371  -0.43236  -0.43211  -0.43079  -0.43014
 Alpha  occ. eigenvalues --   -0.42779  -0.42609  -0.42127  -0.41723  -0.41543
 Alpha  occ. eigenvalues --   -0.41359  -0.41287  -0.41187  -0.40900  -0.40822
 Alpha  occ. eigenvalues --   -0.40633  -0.40520  -0.40300  -0.40146  -0.40053
 Alpha  occ. eigenvalues --   -0.39852  -0.39675  -0.39588  -0.39197  -0.39146
 Alpha  occ. eigenvalues --   -0.39005  -0.38841  -0.38464  -0.38383  -0.38255
 Alpha  occ. eigenvalues --   -0.38118  -0.38000  -0.37707  -0.37316  -0.36859
 Alpha  occ. eigenvalues --   -0.36715  -0.36630  -0.36240  -0.36137  -0.35535
 Alpha  occ. eigenvalues --   -0.35116  -0.34994  -0.34974  -0.34966  -0.34762
 Alpha  occ. eigenvalues --   -0.34285  -0.34002  -0.33868  -0.33860  -0.33411
 Alpha  occ. eigenvalues --   -0.33308  -0.32411  -0.32082  -0.31819  -0.31467
 Alpha  occ. eigenvalues --   -0.31331  -0.30994  -0.30736  -0.30239  -0.29712
 Alpha  occ. eigenvalues --   -0.28875  -0.28119  -0.28022  -0.27934  -0.27424
 Alpha  occ. eigenvalues --   -0.26653  -0.26549  -0.23994  -0.21909
 Alpha virt. eigenvalues --   -0.09484  -0.07331  -0.01865  -0.01125   0.00651
 Alpha virt. eigenvalues --    0.03150   0.03263   0.03461   0.04013   0.04865
 Alpha virt. eigenvalues --    0.05682   0.05993   0.07926   0.08604   0.09247

 Mulliken charges:
               1
     1  Mg   0.821395
     2  C    0.140752
     3  C   -0.179574
     4  C   -0.136541
     5  C   -0.151378
     6  N   -0.647166
     7  C    0.258597
     8  C   -0.135966
     9  C   -0.148263
    10  C    0.329667
    11  C   -0.315369
    12  C   -0.154275
    13  C   -0.262486
    14  C    0.588958
    15  O   -0.449200
    16  O   -0.463879
    17  N   -0.726056
    18  C    0.337343
    19  C    0.031097
    20  C    0.030651
    21  C    0.341444
    22  C   -0.374053
    23  C    0.204298
    24  O   -0.451188
    25  N   -0.663598
    26  C    0.265100
    27  C   -0.028719
    28  C    0.068281
    29  C    0.271191
    30  C    0.235293
    31  C   -0.246360
    32  C   -0.300279
    33  N   -0.737265
    34  C    0.226920
    35  C    0.155720
    36  C    0.053833
    37  C    0.328800
    38  C   -0.420225
    39  C    0.266583
    40  O   -0.512974
    41  C   -0.322999
    42  C    0.641661
    43  O   -0.487909
    44  O   -0.392771
    45  C   -0.102836
    46  C    0.032509
    47  C   -0.157671
    48  C    0.132653
    49  C   -0.358168
    50  C   -0.247347
    51  C   -0.146049
    52  C   -0.150166
    53  C   -0.059176
    54  C   -0.322023
    55  C   -0.170849
    56  C   -0.179621
    57  C   -0.167047
    58  C   -0.061015
    59  C   -0.313915
    60  C   -0.157394
    61  C   -0.183370
    62  C   -0.159267
    63  C   -0.075452
    64  C   -0.310907
    65  C   -0.285410
    66  H    0.093342
    67  H    0.085572
    68  H    0.098525
    69  H    0.128143
    70  H    0.112999
    71  H    0.087636
    72  H    0.109821
    73  H    0.142279
    74  H    0.100914
    75  H    0.112551
    76  H    0.114107
    77  H    0.126362
    78  H    0.122572
    79  H    0.157231
    80  H    0.101700
    81  H    0.087046
    82  H    0.118869
    83  H    0.084716
    84  H    0.106789
    85  H    0.114374
    86  H    0.086676
    87  H    0.128079
    88  H    0.159934
    89  H    0.134415
    90  H    0.161174
    91  H    0.113900
    92  H    0.109541
    93  H    0.090504
    94  H    0.139295
    95  H    0.119782
    96  H    0.103687
    97  H    0.090577
    98  H    0.084275
    99  H    0.119640
   100  H    0.074584
   101  H    0.084586
   102  H    0.063524
   103  H    0.088815
   104  H    0.077523
   105  H    0.120172
   106  H    0.105207
   107  H    0.089844
   108  H    0.077084
   109  H    0.091443
   110  H    0.081382
   111  H    0.090685
   112  H    0.079986
   113  H    0.082851
   114  H    0.078398
   115  H    0.110836
   116  H    0.099068
   117  H    0.106476
   118  H    0.081115
   119  H    0.087496
   120  H    0.063296
   121  H    0.070955
   122  H    0.088519
   123  H    0.076682
   124  H    0.108837
   125  H    0.098889
   126  H    0.113889
   127  H    0.113052
   128  H    0.094522
   129  H    0.083820
   130  H    0.113379
   131  H    0.147635
   132  H    0.107787
   133  O   -0.416950
   134  H    0.071024
 Sum of Mulliken charges =   0.00000

 Dipole moment (field-independent basis, Debye):
    X=              1.8808    Y=             -5.2363    Z=             -2.3797  Tot=              6.0513
 Quadrupole moment (field-independent basis, Debye-Ang):
   XX=           -367.8503   YY=           -441.6625   ZZ=           -396.5446
   XY=              4.5593   XZ=             26.4376   YZ=            -39.0951

 Normal termination of Gaussian 09 at Sat Oct  5 01:52:30 2019.
