 Gaussian 09, Revision D.01,
 Gaussian 09:  ES64L-G09RevD.01 24-Apr-2013

 ----------------------------------------------------------------------
 # td=(NStates=1) iop(3/107=0140000000,3/108=0140000000) iop(3/107=0140
 000000,3/108=0140000000) CAM-B3LYP/6-31G(d,p)
 ----------------------------------------------------------------------

 --
 TD
 --
 Symbolic Z-matrix:
 Charge =  0 Multiplicity = 1

                         Standard orientation:
 ---------------------------------------------------------------------
 Center     Atomic      Atomic             Coordinates (Angstroms)
 Number     Number       Type             X           Y           Z
 ---------------------------------------------------------------------
      1         12           0       -5.552102    1.252222    0.120634
      2          6           0       -5.004570   -2.147024   -0.286417
      3          6           0       -3.292397    1.209482    2.734720
      4          6           0       -6.176246    4.558473    0.594022
      5          6           0       -7.929325    1.152778   -2.422098
      6          7           0       -4.323529   -0.220044    0.996683
      7          6           0       -4.302248   -1.569799    0.638549
      8          6           0       -3.256989   -2.295421    1.509360
      9          6           0       -2.878635   -1.213517    2.526461
     10          6           0       -3.470823    0.023716    2.025262
     11          6           0       -3.383650   -1.622307    3.995361
     12          6           0       -1.972940   -2.790779    0.732954
     13          6           0       -0.994340   -3.630948    1.511135
     14          6           0        0.190119   -3.961168    0.651641
     15          8           0        0.343222   -3.587123   -0.524070
     16          8           0        1.118364   -4.772610    1.370227
     17          7           0       -4.866386    2.665949    1.396171
     18          6           0       -3.915106    2.493938    2.439365
     19          6           0       -3.695238    3.684971    3.147659
     20          6           0       -4.550129    4.746290    2.553161
     21          6           0       -5.294431    4.022142    1.499058
     22          6           0       -2.636580    3.884437    4.298048
     23          6           0       -4.553071    6.118789    2.845509
     24          8           0       -3.800003    6.594925    3.691223
     25          7           0       -6.803994    2.543893   -0.772550
     26          6           0       -6.891360    3.894085   -0.403371
     27          6           0       -7.981164    4.575231   -1.137522
     28          6           0       -8.387027    3.673409   -2.132006
     29          6           0       -7.757048    2.349743   -1.754974
     30          6           0       -8.433952    5.979243   -1.039444
     31          6           0       -9.540309    3.804808   -3.076903
     32          6           0       -9.078977    4.074741   -4.497893
     33          7           0       -6.250213   -0.166814   -1.124661
     34          6           0       -7.282180   -0.000737   -2.191337
     35          6           0       -7.640692   -1.388620   -2.596371
     36          6           0       -6.661399   -2.249502   -2.040678
     37          6           0       -5.955367   -1.372273   -1.121368
     38          6           0       -8.529254   -1.812775   -3.746324
     39          6           0       -6.198510   -3.584901   -1.935579
     40          8           0       -6.525802   -4.568887   -2.592378
     41          6           0       -5.079597   -3.725222   -0.905559
     42          6           0       -5.336394   -4.659031    0.204438
     43          8           0       -5.829150   -4.428898    1.307851
     44          8           0       -5.171041   -5.917926   -0.326296
     45          6           0       -5.435874   -6.950524    0.550530
     46          6           0        2.226966   -5.020572    0.557193
     47          6           0        3.415239   -4.004172    0.965884
     48          6           0        4.034935   -3.185170    0.223376
     49          6           0        3.668377   -2.940916   -1.306307
     50          6           0        5.234290   -2.301079    0.671290
     51          6           0        6.544898   -2.666768    0.132178
     52          6           0        7.675496   -1.716384    0.626485
     53          6           0        8.975645   -2.069091   -0.128642
     54          6           0        9.616767   -3.422263    0.190459
     55          6           0       10.051204   -1.149463    0.460843
     56          6           0       11.383406   -0.944434   -0.348587
     57          6           0       12.227565    0.194182    0.124598
     58          6           0       13.498027    0.484136   -0.629621
     59          6           0       14.608511   -0.591883   -0.396199
     60          6           0       14.189471    1.744699   -0.218020
     61          6           0       15.542200    2.141691   -0.991825
     62          6           0       16.033904    3.515299   -0.630051
     63          6           0       17.246867    3.848000   -1.374799
     64          6           0       17.036611    4.038086   -2.897072
     65          6           0       17.808687    5.238409   -0.926350
     66          1           0       -2.354581    1.220401    3.492293
     67          1           0       -6.455205    5.506894    0.719786
     68          1           0       -8.499958    1.272809   -3.384123
     69          1           0       -3.584243   -3.185560    1.843095
     70          1           0       -1.770759   -0.962260    2.413144
     71          1           0       -2.896742   -2.507763    4.175665
     72          1           0       -3.038733   -0.784747    4.788559
     73          1           0       -4.531031   -1.505592    3.991538
     74          1           0       -2.350717   -3.407692   -0.231141
     75          1           0       -1.604883   -1.903116    0.302700
     76          1           0       -0.660585   -3.306948    2.449755
     77          1           0       -1.417277   -4.613430    1.711511
     78          1           0       -1.645332    3.715836    3.987221
     79          1           0       -2.808820    4.841435    4.809951
     80          1           0       -2.725520    3.165205    5.176654
     81          1           0       -5.313619    6.629555    2.419357
     82          1           0      -10.390245    3.214282   -3.110061
     83          1           0      -10.163793    4.801151   -2.866687
     84          1           0       -9.869809    4.133386   -4.998640
     85          1           0       -8.569299    4.964656   -4.647311
     86          1           0       -8.487891    3.251532   -4.999184
     87          1           0       -8.117355   -1.511306   -4.659126
     88          1           0       -8.645584   -2.998412   -3.884346
     89          1           0       -9.548573   -1.306457   -3.706421
     90          1           0       -4.102487   -3.976260   -1.339661
     91          1           0        2.465023   -6.099815    0.877244
     92          1           0        1.863958   -4.977997   -0.596522
     93          1           0        3.787457   -3.883254    2.042749
     94          1           0        2.486890   -2.949468   -1.333707
     95          1           0        4.055260   -2.025520   -1.757027
     96          1           0        4.341045   -3.792875   -1.734570
     97          1           0        4.904864   -1.168461    0.655056
     98          1           0        5.069195   -2.615566    1.709073
     99          1           0        6.876945   -3.561722    0.323220
    100          1           0        6.423045   -2.544587   -0.995400
    101          1           0        7.344810   -0.659357    0.308927
    102          1           0        7.692127   -1.784492    1.840871
    103          1           0        8.960118   -1.986823   -1.190323
    104          1           0        8.939904   -4.249038   -0.188882
    105          1           0       10.565265   -3.657699   -0.170203
    106          1           0        9.447155   -3.714193    1.207067
    107          1           0        9.461016   -0.167200    0.507974
    108          1           0       10.331618   -1.358937    1.477874
    109          1           0       11.854421   -1.754920   -0.048311
    110          1           0       11.255457   -0.938763   -1.471067
    111          1           0       11.731429    0.981035    0.166608
    112          1           0       12.519027    0.326135    1.182095
    113          1           0       13.103724    0.664188   -1.817785
    114          1           0       15.070553   -0.468006    0.608129
    115          1           0       14.146928   -1.786213   -0.381495
    116          1           0       15.473815   -0.668474   -0.989190
    117          1           0       13.543850    2.464868   -0.328216
    118          1           0       14.514338    1.493279    0.840501
    119          1           0       16.278399    1.426357   -0.915862
    120          1           0       15.219059    2.017407   -2.219287
    121          1           0       15.131615    4.289176   -1.077174
    122          1           0       16.057360    3.677776    0.435611
    123          1           0       18.005928    3.033581   -0.958937
    124          1           0       16.321048    4.974184   -3.030271
    125          1           0       17.968004    4.183861   -3.371436
    126          1           0       16.284199    3.159028   -3.146567
    127          1           0       17.828626    5.291040    0.474942
    128          1           0       18.847420    5.507403   -1.319911
    129          1           0       16.955532    5.894741   -0.972419
    130          1           0       -4.923941   -7.920294    0.260385
    131          1           0       -6.523901   -7.198513    0.804697
    132          1           0       -4.924061   -6.654129    1.649590
    133          8           0       -7.878352    6.751606   -0.252221
    134          1           0       -9.205482    6.314163   -1.769687
 ---------------------------------------------------------------------

 SCF Done:  E(RCAM-B3LYP) =  -3043.35501418     A.U. after   15 cycles

 Excitation energies and oscillator strengths:

 Excited State   1:      Singlet-A      1.9362 eV  640.35 nm  f=0.2160  <S**2>=0.000
     243 -> 246       -0.20090
     244 -> 245        0.66944
 This state for optimization and/or second-order correction.
 Total Energy, E(TD-HF/TD-KS) =  -3043.28386015
 Copying the excited state density for this state as the 1-particle RhoCI density.

 The electronic state is 1-A.
 Alpha  occ. eigenvalues --  -46.80750 -19.23546 -19.22901 -19.19174 -19.18565
 Alpha  occ. eigenvalues --  -19.18024 -19.16651 -19.16046 -14.38437 -14.38005
 Alpha  occ. eigenvalues --  -14.37345 -14.37006 -10.36450 -10.36064 -10.31616
 Alpha  occ. eigenvalues --  -10.31378 -10.28842 -10.28752 -10.28475 -10.27254
 Alpha  occ. eigenvalues --  -10.27231 -10.27228 -10.27207 -10.26949 -10.26914
 Alpha  occ. eigenvalues --  -10.26706 -10.26527 -10.26264 -10.26235 -10.25791
 Alpha  occ. eigenvalues --  -10.25554 -10.25096 -10.24496 -10.24394 -10.24070
 Alpha  occ. eigenvalues --  -10.24060 -10.24010 -10.23863 -10.23809 -10.23697
 Alpha  occ. eigenvalues --  -10.23688 -10.23599 -10.22980 -10.22766 -10.22735
 Alpha  occ. eigenvalues --  -10.22713 -10.22661 -10.22399 -10.22389 -10.21961
 Alpha  occ. eigenvalues --  -10.21803 -10.21767 -10.21698 -10.21675 -10.21666
 Alpha  occ. eigenvalues --  -10.21575 -10.21479 -10.21353 -10.21001 -10.20324
 Alpha  occ. eigenvalues --  -10.20263 -10.20246 -10.19895 -10.19735 -10.19595
 Alpha  occ. eigenvalues --  -10.18477  -3.09530  -1.84460  -1.83996  -1.83962
 Alpha  occ. eigenvalues --   -1.14415  -1.12817  -1.06895  -1.06496  -1.05636
 Alpha  occ. eigenvalues --   -1.05522  -1.05368  -1.01354  -0.99386  -0.98779
 Alpha  occ. eigenvalues --   -0.96725  -0.87665  -0.86423  -0.86239  -0.85835
 Alpha  occ. eigenvalues --   -0.85777  -0.85333  -0.84765  -0.84147  -0.83803
 Alpha  occ. eigenvalues --   -0.83768  -0.82166  -0.81435  -0.81058  -0.80168
 Alpha  occ. eigenvalues --   -0.80084  -0.78368  -0.78162  -0.77675  -0.75638
 Alpha  occ. eigenvalues --   -0.75261  -0.74882  -0.73125  -0.72518  -0.72031
 Alpha  occ. eigenvalues --   -0.71037  -0.70397  -0.70159  -0.69956  -0.69827
 Alpha  occ. eigenvalues --   -0.69491  -0.68997  -0.67951  -0.67381  -0.67263
 Alpha  occ. eigenvalues --   -0.66285  -0.65203  -0.64674  -0.62826  -0.62357
 Alpha  occ. eigenvalues --   -0.61913  -0.61085  -0.60733  -0.59606  -0.59536
 Alpha  occ. eigenvalues --   -0.58557  -0.58408  -0.58072  -0.57300  -0.57025
 Alpha  occ. eigenvalues --   -0.56481  -0.55983  -0.55741  -0.54947  -0.54450
 Alpha  occ. eigenvalues --   -0.54331  -0.53931  -0.53516  -0.53322  -0.52085
 Alpha  occ. eigenvalues --   -0.51827  -0.51771  -0.51670  -0.51426  -0.51268
 Alpha  occ. eigenvalues --   -0.51160  -0.50392  -0.49835  -0.49699  -0.49223
 Alpha  occ. eigenvalues --   -0.48940  -0.48290  -0.48224  -0.47962  -0.47780
 Alpha  occ. eigenvalues --   -0.47658  -0.47565  -0.47287  -0.46997  -0.46803
 Alpha  occ. eigenvalues --   -0.46407  -0.46100  -0.45914  -0.45855  -0.45717
 Alpha  occ. eigenvalues --   -0.45649  -0.45545  -0.45289  -0.45217  -0.44916
 Alpha  occ. eigenvalues --   -0.44582  -0.44430  -0.44262  -0.44068  -0.43831
 Alpha  occ. eigenvalues --   -0.43738  -0.43400  -0.43073  -0.42974  -0.42806
 Alpha  occ. eigenvalues --   -0.42617  -0.42267  -0.42216  -0.41931  -0.41717
 Alpha  occ. eigenvalues --   -0.41482  -0.41337  -0.41298  -0.41197  -0.41104
 Alpha  occ. eigenvalues --   -0.40890  -0.40682  -0.40388  -0.40308  -0.40147
 Alpha  occ. eigenvalues --   -0.40059  -0.39538  -0.39417  -0.39287  -0.39026
 Alpha  occ. eigenvalues --   -0.38952  -0.38784  -0.38550  -0.38268  -0.37971
 Alpha  occ. eigenvalues --   -0.37820  -0.37743  -0.37576  -0.37474  -0.37232
 Alpha  occ. eigenvalues --   -0.37008  -0.36761  -0.36603  -0.36116  -0.35907
 Alpha  occ. eigenvalues --   -0.35464  -0.35207  -0.34520  -0.34485  -0.34373
 Alpha  occ. eigenvalues --   -0.33806  -0.33466  -0.33347  -0.32946  -0.32879
 Alpha  occ. eigenvalues --   -0.32564  -0.32122  -0.32084  -0.31845  -0.31744
 Alpha  occ. eigenvalues --   -0.31325  -0.31063  -0.30853  -0.29987  -0.29817
 Alpha  occ. eigenvalues --   -0.29495  -0.28865  -0.28460  -0.28104  -0.27744
 Alpha  occ. eigenvalues --   -0.27449  -0.27016  -0.23721  -0.21932
 Alpha virt. eigenvalues --   -0.09580  -0.06953  -0.01827  -0.01208  -0.00016
 Alpha virt. eigenvalues --    0.01436   0.01662   0.03842   0.04271   0.04700
 Alpha virt. eigenvalues --    0.05481   0.06495   0.07293   0.08038   0.08565

 Mulliken charges:
               1
     1  Mg   0.813347
     2  C    0.043483
     3  C   -0.193684
     4  C   -0.140755
     5  C   -0.167189
     6  N   -0.659182
     7  C    0.295890
     8  C   -0.137674
     9  C   -0.166104
    10  C    0.361260
    11  C   -0.287713
    12  C   -0.182375
    13  C   -0.260838
    14  C    0.613313
    15  O   -0.462397
    16  O   -0.461008
    17  N   -0.705018
    18  C    0.313752
    19  C    0.026018
    20  C   -0.011050
    21  C    0.294448
    22  C   -0.381880
    23  C    0.244791
    24  O   -0.435755
    25  N   -0.690139
    26  C    0.296207
    27  C   -0.028772
    28  C    0.037830
    29  C    0.280915
    30  C    0.253537
    31  C   -0.279926
    32  C   -0.304599
    33  N   -0.713119
    34  C    0.231516
    35  C    0.005710
    36  C    0.068249
    37  C    0.354375
    38  C   -0.385302
    39  C    0.351426
    40  O   -0.468301
    41  C   -0.274636
    42  C    0.629825
    43  O   -0.462384
    44  O   -0.415219
    45  C   -0.084020
    46  C   -0.021401
    47  C   -0.125910
    48  C    0.099058
    49  C   -0.365704
    50  C   -0.215917
    51  C   -0.147920
    52  C   -0.176639
    53  C   -0.046324
    54  C   -0.328644
    55  C   -0.181138
    56  C   -0.169346
    57  C   -0.144298
    58  C   -0.049773
    59  C   -0.305153
    60  C   -0.157454
    61  C   -0.172879
    62  C   -0.140389
    63  C   -0.040808
    64  C   -0.293259
    65  C   -0.271492
    66  H    0.087367
    67  H    0.110335
    68  H    0.106755
    69  H    0.108613
    70  H    0.101896
    71  H    0.124067
    72  H    0.091365
    73  H    0.131042
    74  H    0.085672
    75  H    0.124894
    76  H    0.150385
    77  H    0.148970
    78  H    0.135536
    79  H    0.161661
    80  H    0.104428
    81  H    0.088519
    82  H    0.134635
    83  H    0.088300
    84  H    0.117029
    85  H    0.123422
    86  H    0.097112
    87  H    0.149787
    88  H    0.141476
    89  H    0.111002
    90  H    0.169083
    91  H    0.104657
    92  H    0.139130
    93  H    0.068958
    94  H    0.135954
    95  H    0.106061
    96  H    0.109350
    97  H    0.090195
    98  H    0.077266
    99  H    0.110583
   100  H    0.084409
   101  H    0.092296
   102  H    0.081911
   103  H    0.096827
   104  H    0.072940
   105  H    0.121166
   106  H    0.107775
   107  H    0.058068
   108  H    0.096445
   109  H    0.115471
   110  H    0.083645
   111  H    0.095174
   112  H    0.069591
   113  H    0.038843
   114  H    0.098231
   115  H    0.049863
   116  H    0.118511
   117  H    0.092136
   118  H    0.080336
   119  H    0.105047
   120  H    0.057095
   121  H    0.042811
   122  H    0.105916
   123  H    0.072685
   124  H    0.091012
   125  H    0.117312
   126  H    0.092719
   127  H    0.003539
   128  H    0.105859
   129  H    0.118880
   130  H    0.119490
   131  H    0.126571
   132  H    0.086358
   133  O   -0.420649
   134  H    0.084747
 Sum of Mulliken charges =   0.00000

 Dipole moment (field-independent basis, Debye):
    X=             -0.5115    Y=             -3.2429    Z=             -1.8907  Tot=              3.7885
 Quadrupole moment (field-independent basis, Debye-Ang):
   XX=           -365.8758   YY=           -440.6064   ZZ=           -395.0841
   XY=             -8.9652   XZ=             30.6279   YZ=            -39.7177

 Normal termination of Gaussian 09 at Thu Oct  3 15:51:55 2019.
