 Gaussian 09, Revision D.01,
 Gaussian 09:  ES64L-G09RevD.01 24-Apr-2013

 ----------------------------------------------------------------------
 # td=(NStates=1) iop(3/107=0140000000,3/108=0140000000) iop(3/107=0140
 000000,3/108=0140000000) CAM-B3LYP/6-31G(d,p)
 ----------------------------------------------------------------------

 --
 TD
 --
 Symbolic Z-matrix:
 Charge =  0 Multiplicity = 1

                         Standard orientation:
 ---------------------------------------------------------------------
 Center     Atomic      Atomic             Coordinates (Angstroms)
 Number     Number       Type             X           Y           Z
 ---------------------------------------------------------------------
      1         12           0       -5.663064    1.129927    0.224173
      2          6           0       -5.204223   -2.127983   -0.340893
      3          6           0       -3.284891    1.178923    2.769731
      4          6           0       -6.283819    4.549970    0.691868
      5          6           0       -7.913777    1.203019   -2.487161
      6          7           0       -4.364098   -0.282537    1.083397
      7          6           0       -4.229582   -1.611526    0.733510
      8          6           0       -3.164722   -2.368473    1.502194
      9          6           0       -2.991798   -1.296612    2.623135
     10          6           0       -3.525905   -0.004346    2.183858
     11          6           0       -3.489618   -1.795318    4.005214
     12          6           0       -1.982713   -2.732858    0.685865
     13          6           0       -1.006274   -3.590839    1.406461
     14          6           0        0.328447   -3.902951    0.616666
     15          8           0        0.647468   -3.288986   -0.426046
     16          8           0        1.082029   -4.809047    1.262485
     17          7           0       -4.898332    2.559562    1.427549
     18          6           0       -3.901053    2.422765    2.456862
     19          6           0       -3.734917    3.608662    3.197283
     20          6           0       -4.504499    4.587323    2.606455
     21          6           0       -5.337157    3.916232    1.507193
     22          6           0       -2.789315    3.885167    4.309281
     23          6           0       -4.675438    5.955275    2.958983
     24          8           0       -4.023427    6.659769    3.785243
     25          7           0       -6.935006    2.584047   -0.652604
     26          6           0       -6.964493    3.913814   -0.454460
     27          6           0       -7.892957    4.648532   -1.184930
     28          6           0       -8.429790    3.602456   -2.076018
     29          6           0       -7.786649    2.344200   -1.713998
     30          6           0       -8.268375    6.064874   -1.160462
     31          6           0       -9.366475    3.770586   -3.208737
     32          6           0       -8.509745    4.032165   -4.448480
     33          7           0       -6.379986   -0.121904   -1.135267
     34          6           0       -7.310379   -0.005033   -2.110085
     35          6           0       -7.459374   -1.286526   -2.889279
     36          6           0       -6.705617   -2.137292   -2.098255
     37          6           0       -6.016021   -1.408964   -1.133196
     38          6           0       -8.484098   -1.578715   -3.811024
     39          6           0       -6.220323   -3.551863   -2.087913
     40          8           0       -6.418611   -4.513443   -2.794868
     41          6           0       -5.109647   -3.603584   -0.893866
     42          6           0       -5.428793   -4.692759    0.120732
     43          8           0       -5.746835   -4.514218    1.333434
     44          8           0       -5.209845   -5.947967   -0.421050
     45          6           0       -5.577374   -6.988755    0.380358
     46          6           0        2.305375   -5.146835    0.498997
     47          6           0        3.401370   -4.121071    0.907936
     48          6           0        4.121789   -3.306418    0.262453
     49          6           0        3.789685   -2.990041   -1.240647
     50          6           0        5.123802   -2.385302    0.747752
     51          6           0        6.528191   -2.561154    0.151641
     52          6           0        7.661591   -1.752985    0.698221
     53          6           0        9.031958   -1.958756   -0.146405
     54          6           0        9.725785   -3.297916    0.183073
     55          6           0        9.967798   -0.880708    0.323152
     56          6           0       11.319820   -0.853888   -0.264293
     57          6           0       12.158795    0.350589    0.229985
     58          6           0       13.567455    0.435859   -0.456602
     59          6           0       14.370807   -0.805200   -0.190487
     60          6           0       14.202400    1.791325   -0.102829
     61          6           0       15.536587    2.066653   -0.855657
     62          6           0       16.040171    3.512139   -0.651763
     63          6           0       17.224284    3.853493   -1.535435
     64          6           0       17.019808    4.045450   -3.057466
     65          6           0       17.769498    5.187147   -0.884023
     66          1           0       -2.702957    1.390196    3.496123
     67          1           0       -6.519884    5.596970    1.005075
     68          1           0       -8.598518    1.365740   -3.337402
     69          1           0       -3.614494   -3.185138    1.941278
     70          1           0       -1.845344   -0.948724    2.766404
     71          1           0       -3.036276   -2.710008    4.371701
     72          1           0       -3.187254   -1.122558    4.720910
     73          1           0       -4.730728   -1.878148    4.046979
     74          1           0       -2.392570   -3.169980   -0.300564
     75          1           0       -1.315857   -2.003708    0.502387
     76          1           0       -0.881899   -3.168778    2.351231
     77          1           0       -1.372741   -4.501828    1.800608
     78          1           0       -1.690688    3.822818    4.112099
     79          1           0       -2.954500    4.873252    4.631864
     80          1           0       -3.011729    3.166852    5.186949
     81          1           0       -5.631731    6.542440    2.569754
     82          1           0       -9.942731    2.858031   -3.380929
     83          1           0      -10.063229    4.568961   -2.986884
     84          1           0       -9.064482    3.974112   -5.349951
     85          1           0       -7.953711    4.938919   -4.426924
     86          1           0       -7.820151    3.183865   -4.597368
     87          1           0       -8.326203   -0.947886   -4.653040
     88          1           0       -8.303443   -2.597546   -3.882634
     89          1           0       -9.466746   -1.180012   -3.644074
     90          1           0       -4.239586   -3.652367   -1.397244
     91          1           0        2.624575   -6.328338    0.866939
     92          1           0        2.178922   -5.177962   -0.523692
     93          1           0        3.408817   -4.323532    2.192378
     94          1           0        2.830433   -3.217009   -1.584250
     95          1           0        4.036716   -1.946864   -1.392842
     96          1           0        4.547558   -3.521111   -1.833452
     97          1           0        4.834568   -1.497344    0.403243
     98          1           0        5.152930   -2.506882    1.872453
     99          1           0        6.836336   -3.697702    0.146422
    100          1           0        6.616678   -2.505740   -0.968857
    101          1           0        7.221474   -0.702985    0.787481
    102          1           0        7.817372   -2.133791    1.777914
    103          1           0        8.964051   -1.817572   -1.249439
    104          1           0        9.095080   -4.089449   -0.185271
    105          1           0       10.706946   -3.577828   -0.319163
    106          1           0       10.040329   -3.404528    1.253348
    107          1           0        9.362610    0.078311    0.324661
    108          1           0       10.073592   -0.721918    1.572013
    109          1           0       12.085056   -1.688983   -0.172904
    110          1           0       11.274462   -0.829175   -1.431921
    111          1           0       11.519924    1.214626   -0.166141
    112          1           0       12.213906    0.099426    1.352857
    113          1           0       13.438663    0.624495   -1.548622
    114          1           0       14.707765   -0.915089    0.897203
    115          1           0       13.958830   -1.739483   -0.496938
    116          1           0       15.350243   -0.874815   -0.801429
    117          1           0       13.401274    2.470228   -0.407049
    118          1           0       14.226222    2.013471    1.027728
    119          1           0       16.209428    1.180920   -0.691249
    120          1           0       15.333883    1.942992   -2.005392
    121          1           0       15.147106    4.126950   -0.673011
    122          1           0       16.391976    3.365952    0.415059
    123          1           0       18.130231    3.165147   -1.348860
    124          1           0       16.261062    4.891277   -3.087956
    125          1           0       17.902064    4.288245   -3.627354
    126          1           0       16.644192    3.133644   -3.500581
    127          1           0       18.046700    5.113228    0.194839
    128          1           0       18.846258    5.426103   -1.329246
    129          1           0       17.244535    6.125207   -1.112306
    130          1           0       -5.544906   -7.886561   -0.329625
    131          1           0       -6.520811   -6.769913    0.827618
    132          1           0       -4.899816   -6.955997    1.289952
    133          8           0       -7.787841    6.927070   -0.444289
    134          1           0       -9.268213    6.424440   -1.718771
 ---------------------------------------------------------------------

 SCF Done:  E(RCAM-B3LYP) =  -3043.51191778     A.U. after   16 cycles

 Excitation energies and oscillator strengths:

 Excited State   1:      Singlet-A      1.9397 eV  639.19 nm  f=0.1879  <S**2>=0.000
     243 -> 246        0.25565
     244 -> 245        0.63937
     244 -> 246        0.10715
 This state for optimization and/or second-order correction.
 Total Energy, E(TD-HF/TD-KS) =  -3043.44063477
 Copying the excited state density for this state as the 1-particle RhoCI density.

 The electronic state is 1-A.
 Alpha  occ. eigenvalues --  -46.81217 -19.24228 -19.23103 -19.18645 -19.18463
 Alpha  occ. eigenvalues --  -19.17894 -19.16941 -19.16285 -14.39694 -14.37397
 Alpha  occ. eigenvalues --  -14.36810 -14.36715 -10.36667 -10.36426 -10.32783
 Alpha  occ. eigenvalues --  -10.31161 -10.30187 -10.29784 -10.29753 -10.27417
 Alpha  occ. eigenvalues --  -10.27191 -10.26942 -10.26771 -10.26712 -10.26314
 Alpha  occ. eigenvalues --  -10.25646 -10.25626 -10.25496 -10.25336 -10.25235
 Alpha  occ. eigenvalues --  -10.24906 -10.24623 -10.24401 -10.24344 -10.24287
 Alpha  occ. eigenvalues --  -10.24168 -10.23605 -10.23302 -10.23215 -10.23195
 Alpha  occ. eigenvalues --  -10.23093 -10.23051 -10.23002 -10.22802 -10.22698
 Alpha  occ. eigenvalues --  -10.22648 -10.22625 -10.22226 -10.21935 -10.21879
 Alpha  occ. eigenvalues --  -10.21860 -10.21851 -10.21840 -10.21751 -10.21506
 Alpha  occ. eigenvalues --  -10.21292 -10.21226 -10.21151 -10.20996 -10.20993
 Alpha  occ. eigenvalues --  -10.20875 -10.20773 -10.20646 -10.20639 -10.20581
 Alpha  occ. eigenvalues --  -10.20246  -3.09866  -1.84799  -1.84338  -1.84285
 Alpha  occ. eigenvalues --   -1.13940  -1.13578  -1.08483  -1.06565  -1.04126
 Alpha  occ. eigenvalues --   -1.04041  -1.03395  -1.01846  -0.99601  -0.99506
 Alpha  occ. eigenvalues --   -0.96663  -0.88760  -0.87473  -0.87008  -0.86259
 Alpha  occ. eigenvalues --   -0.85360  -0.85298  -0.84877  -0.84130  -0.83719
 Alpha  occ. eigenvalues --   -0.83278  -0.82771  -0.82071  -0.80514  -0.79982
 Alpha  occ. eigenvalues --   -0.79193  -0.78316  -0.78038  -0.77145  -0.76569
 Alpha  occ. eigenvalues --   -0.75784  -0.75104  -0.74591  -0.73202  -0.72461
 Alpha  occ. eigenvalues --   -0.71564  -0.71092  -0.70574  -0.70324  -0.70213
 Alpha  occ. eigenvalues --   -0.69335  -0.69084  -0.68012  -0.67148  -0.66519
 Alpha  occ. eigenvalues --   -0.65981  -0.64714  -0.64032  -0.62661  -0.62262
 Alpha  occ. eigenvalues --   -0.61649  -0.61224  -0.60556  -0.60077  -0.59653
 Alpha  occ. eigenvalues --   -0.58507  -0.58411  -0.57753  -0.57598  -0.57213
 Alpha  occ. eigenvalues --   -0.56401  -0.56291  -0.55939  -0.55716  -0.54833
 Alpha  occ. eigenvalues --   -0.54430  -0.53890  -0.53225  -0.52347  -0.52176
 Alpha  occ. eigenvalues --   -0.51839  -0.51569  -0.51303  -0.51167  -0.50790
 Alpha  occ. eigenvalues --   -0.50695  -0.50528  -0.50203  -0.49786  -0.49611
 Alpha  occ. eigenvalues --   -0.49338  -0.48731  -0.48290  -0.48052  -0.47920
 Alpha  occ. eigenvalues --   -0.47629  -0.47520  -0.47379  -0.47056  -0.46884
 Alpha  occ. eigenvalues --   -0.46760  -0.46497  -0.46385  -0.46238  -0.45920
 Alpha  occ. eigenvalues --   -0.45719  -0.45599  -0.45419  -0.45177  -0.44958
 Alpha  occ. eigenvalues --   -0.44815  -0.44700  -0.44594  -0.44138  -0.43724
 Alpha  occ. eigenvalues --   -0.43689  -0.43480  -0.43043  -0.42880  -0.42744
 Alpha  occ. eigenvalues --   -0.42538  -0.42334  -0.42210  -0.42019  -0.41928
 Alpha  occ. eigenvalues --   -0.41660  -0.41580  -0.41367  -0.41149  -0.41114
 Alpha  occ. eigenvalues --   -0.40884  -0.40693  -0.40459  -0.40287  -0.40221
 Alpha  occ. eigenvalues --   -0.40062  -0.39791  -0.39781  -0.39563  -0.39382
 Alpha  occ. eigenvalues --   -0.39265  -0.39162  -0.39139  -0.39035  -0.38747
 Alpha  occ. eigenvalues --   -0.38401  -0.38340  -0.37750  -0.37650  -0.37063
 Alpha  occ. eigenvalues --   -0.36717  -0.36491  -0.36075  -0.35825  -0.35767
 Alpha  occ. eigenvalues --   -0.35554  -0.35103  -0.35012  -0.34733  -0.34671
 Alpha  occ. eigenvalues --   -0.34464  -0.34097  -0.34069  -0.33229  -0.32964
 Alpha  occ. eigenvalues --   -0.32921  -0.32890  -0.32347  -0.32191  -0.31865
 Alpha  occ. eigenvalues --   -0.31674  -0.31174  -0.31038  -0.29800  -0.29602
 Alpha  occ. eigenvalues --   -0.29081  -0.28351  -0.28228  -0.28183  -0.27711
 Alpha  occ. eigenvalues --   -0.27160  -0.26786  -0.23550  -0.21103
 Alpha virt. eigenvalues --   -0.08528  -0.07228  -0.02502  -0.00923   0.00196
 Alpha virt. eigenvalues --    0.01167   0.02456   0.03059   0.04248   0.04638
 Alpha virt. eigenvalues --    0.04989   0.05474   0.07710   0.08290   0.09412

 Mulliken charges:
               1
     1  Mg   0.826486
     2  C   -0.000820
     3  C   -0.099864
     4  C   -0.161004
     5  C   -0.154959
     6  N   -0.621409
     7  C    0.278163
     8  C   -0.123268
     9  C   -0.188736
    10  C    0.374370
    11  C   -0.303907
    12  C   -0.143408
    13  C   -0.290141
    14  C    0.614034
    15  O   -0.481983
    16  O   -0.444445
    17  N   -0.707269
    18  C    0.256271
    19  C    0.071159
    20  C    0.010282
    21  C    0.292501
    22  C   -0.392571
    23  C    0.195365
    24  O   -0.444138
    25  N   -0.669758
    26  C    0.269913
    27  C    0.026461
    28  C   -0.022858
    29  C    0.313384
    30  C    0.224558
    31  C   -0.256180
    32  C   -0.315940
    33  N   -0.732444
    34  C    0.260556
    35  C    0.021782
    36  C    0.002014
    37  C    0.358758
    38  C   -0.368426
    39  C    0.346703
    40  O   -0.434541
    41  C   -0.310077
    42  C    0.616913
    43  O   -0.487071
    44  O   -0.419522
    45  C   -0.082075
    46  C   -0.004602
    47  C   -0.138403
    48  C    0.171200
    49  C   -0.376435
    50  C   -0.218460
    51  C   -0.191348
    52  C   -0.164678
    53  C   -0.057719
    54  C   -0.310635
    55  C   -0.141901
    56  C   -0.177716
    57  C   -0.172458
    58  C   -0.042163
    59  C   -0.323153
    60  C   -0.173069
    61  C   -0.189983
    62  C   -0.147620
    63  C   -0.053772
    64  C   -0.305925
    65  C   -0.315925
    66  H    0.048281
    67  H    0.139675
    68  H    0.085727
    69  H    0.140566
    70  H    0.088341
    71  H    0.117088
    72  H    0.122666
    73  H    0.104249
    74  H    0.100936
    75  H    0.136897
    76  H    0.140337
    77  H    0.125755
    78  H    0.129070
    79  H    0.165370
    80  H    0.104851
    81  H    0.077248
    82  H    0.107059
    83  H    0.115728
    84  H    0.109192
    85  H    0.127654
    86  H    0.107649
    87  H    0.131103
    88  H    0.150049
    89  H    0.143377
    90  H    0.173510
    91  H    0.096545
    92  H    0.139654
    93  H    0.044090
    94  H    0.147116
    95  H    0.108572
    96  H    0.112243
    97  H    0.118931
    98  H    0.094679
    99  H    0.076433
   100  H    0.089449
   101  H    0.085959
   102  H    0.092942
   103  H    0.093036
   104  H    0.098879
   105  H    0.099647
   106  H    0.106398
   107  H    0.084470
   108  H    0.043801
   109  H    0.091190
   110  H    0.065710
   111  H    0.086097
   112  H    0.089146
   113  H    0.085224
   114  H    0.098183
   115  H    0.113068
   116  H    0.086680
   117  H    0.088341
   118  H    0.073537
   119  H    0.093992
   120  H    0.064185
   121  H    0.099836
   122  H    0.097211
   123  H    0.083119
   124  H    0.096054
   125  H    0.112542
   126  H    0.106907
   127  H    0.101488
   128  H    0.064356
   129  H    0.102904
   130  H    0.122964
   131  H    0.131700
   132  H    0.110457
   133  O   -0.412056
   134  H    0.053847
 Sum of Mulliken charges =   0.00000

 Dipole moment (field-independent basis, Debye):
    X=              1.4309    Y=             -6.4497    Z=             -2.0130  Tot=              6.9064
 Quadrupole moment (field-independent basis, Debye-Ang):
   XX=           -369.5097   YY=           -451.4449   ZZ=           -392.0595
   XY=             11.3504   XZ=             21.0025   YZ=            -31.9891

 Normal termination of Gaussian 09 at Thu Oct  3 17:54:09 2019.
