 Gaussian 09, Revision D.01,
 Gaussian 09:  ES64L-G09RevD.01 24-Apr-2013

 ----------------------------------------------------------------------
 # td=(NStates=1) iop(3/107=0140000000,3/108=0140000000) iop(3/107=0140
 000000,3/108=0140000000) CAM-B3LYP/6-31G(d,p)
 ----------------------------------------------------------------------

 --
 TD
 --
 Symbolic Z-matrix:
 Charge =  0 Multiplicity = 1

                         Standard orientation:
 ---------------------------------------------------------------------
 Center     Atomic      Atomic             Coordinates (Angstroms)
 Number     Number       Type             X           Y           Z
 ---------------------------------------------------------------------
      1         12           0       -5.718355    1.192941    0.184073
      2          6           0       -5.039979   -2.157834   -0.316378
      3          6           0       -3.462441    1.275737    2.699701
      4          6           0       -6.324792    4.550920    0.579222
      5          6           0       -8.212344    1.018328   -2.250889
      6          7           0       -4.440351   -0.229959    1.010811
      7          6           0       -4.285767   -1.572571    0.591225
      8          6           0       -3.189755   -2.255762    1.413176
      9          6           0       -2.883055   -1.234323    2.559225
     10          6           0       -3.674128    0.006550    2.118534
     11          6           0       -3.285599   -1.757622    3.900319
     12          6           0       -1.934602   -2.595463    0.495238
     13          6           0       -0.960607   -3.417534    1.272248
     14          6           0        0.309809   -3.703845    0.514794
     15          8           0        0.543833   -3.227626   -0.572210
     16          8           0        1.093868   -4.505673    1.164669
     17          7           0       -4.935040    2.667484    1.427725
     18          6           0       -4.055693    2.455190    2.446135
     19          6           0       -3.778175    3.747404    3.154695
     20          6           0       -4.592455    4.618211    2.565849
     21          6           0       -5.384372    3.918325    1.487710
     22          6           0       -2.860987    3.887212    4.263115
     23          6           0       -4.782342    5.994414    2.840920
     24          8           0       -4.195364    6.615019    3.741547
     25          7           0       -6.998187    2.554465   -0.700968
     26          6           0       -7.111751    3.890456   -0.371952
     27          6           0       -8.099023    4.517814   -1.231672
     28          6           0       -8.539718    3.465832   -2.085566
     29          6           0       -7.847409    2.345156   -1.670713
     30          6           0       -8.330187    5.940736   -1.360004
     31          6           0       -9.564580    3.624603   -3.174196
     32          6           0       -8.896695    3.817948   -4.541029
     33          7           0       -6.484060   -0.096940   -1.000651
     34          6           0       -7.412305   -0.101725   -1.947842
     35          6           0       -7.594295   -1.424273   -2.656387
     36          6           0       -6.754489   -2.295128   -1.979608
     37          6           0       -6.113819   -1.480498   -0.956951
     38          6           0       -8.663725   -1.771558   -3.763005
     39          6           0       -6.317399   -3.712514   -1.885596
     40          8           0       -6.619658   -4.708431   -2.442808
     41          6           0       -5.076730   -3.591925   -0.788082
     42          6           0       -5.274443   -4.638243    0.171628
     43          8           0       -5.739320   -4.475452    1.325601
     44          8           0       -5.058436   -5.846375   -0.287307
     45          6           0       -5.270485   -6.863739    0.704785
     46          6           0        2.357596   -4.924859    0.627435
     47          6           0        3.446837   -3.956669    0.979246
     48          6           0        4.120947   -3.127400    0.131477
     49          6           0        3.826940   -2.926568   -1.277102
     50          6           0        5.253160   -2.285815    0.738978
     51          6           0        6.630431   -2.526073    0.057137
     52          6           0        7.772361   -1.724819    0.644733
     53          6           0        9.114695   -1.928984    0.018339
     54          6           0        9.648367   -3.409344    0.184748
     55          6           0       10.054996   -0.930303    0.469887
     56          6           0       11.414795   -1.010203   -0.260016
     57          6           0       12.377219    0.228499    0.143999
     58          6           0       13.670278    0.383658   -0.595825
     59          6           0       14.604473   -0.808653   -0.162957
     60          6           0       14.254276    1.804306   -0.306972
     61          6           0       15.596807    2.089883   -0.961244
     62          6           0       16.185556    3.515251   -0.737334
     63          6           0       17.501018    3.848093   -1.392944
     64          6           0       17.354402    3.933126   -2.977441
     65          6           0       18.120848    5.167548   -0.732779
     66          1           0       -2.847413    1.388825    3.642885
     67          1           0       -6.808720    5.423062    0.760161
     68          1           0       -8.999410    0.862159   -2.938188
     69          1           0       -3.501490   -3.191318    1.594391
     70          1           0       -1.772498   -1.060201    2.415811
     71          1           0       -2.805808   -2.896784    4.284763
     72          1           0       -2.853851   -1.055979    4.652148
     73          1           0       -4.353399   -1.934756    4.144281
     74          1           0       -2.369236   -3.161200   -0.416914
     75          1           0       -1.565136   -1.556018    0.204929
     76          1           0       -0.700791   -2.864312    2.178109
     77          1           0       -1.816937   -4.160524    1.810582
     78          1           0       -1.782857    3.472928    4.095885
     79          1           0       -2.702288    5.000440    4.446570
     80          1           0       -3.361845    3.546488    5.339017
     81          1           0       -5.555959    6.426724    2.068657
     82          1           0      -10.266539    2.796052   -3.143490
     83          1           0      -10.108733    4.588836   -2.932835
     84          1           0       -9.693464    4.017050   -5.394606
     85          1           0       -8.088312    4.627583   -4.225266
     86          1           0       -8.358947    2.937068   -4.856586
     87          1           0       -8.631271   -1.322715   -4.587233
     88          1           0       -8.660055   -2.866930   -3.982888
     89          1           0       -9.646663   -1.611584   -3.301338
     90          1           0       -4.222138   -3.866174   -1.463857
     91          1           0        2.661537   -5.748756    1.112913
     92          1           0        2.102883   -5.274068   -0.412423
     93          1           0        3.753516   -3.879874    1.987099
     94          1           0        2.742665   -3.277084   -1.438408
     95          1           0        4.186618   -1.775860   -1.508178
     96          1           0        4.381865   -3.514953   -1.956441
     97          1           0        5.254787   -1.142363    0.635883
     98          1           0        5.416852   -2.527530    1.921557
     99          1           0        6.658075   -3.674258    0.206351
    100          1           0        6.636234   -2.170655   -0.938637
    101          1           0        7.418416   -0.714925    0.818699
    102          1           0        7.785613   -2.033876    1.796950
    103          1           0        9.039590   -2.048959   -1.103641
    104          1           0        9.110308   -4.129373   -0.325774
    105          1           0       10.720143   -3.418346   -0.394648
    106          1           0        9.767670   -3.763218    1.173863
    107          1           0        9.682924    0.159499    0.331723
    108          1           0       10.329333   -1.136994    1.530925
    109          1           0       11.799381   -2.001252   -0.261916
    110          1           0       11.228739   -0.880679   -1.303491
    111          1           0       11.990138    1.119361    0.014574
    112          1           0       12.548825    0.105062    1.119981
    113          1           0       13.565115    0.344297   -1.696788
    114          1           0       14.800725   -0.634477    0.865616
    115          1           0       14.198365   -1.910056   -0.278809
    116          1           0       15.478666   -0.849159   -0.806771
    117          1           0       13.466857    2.531964   -0.342313
    118          1           0       14.712672    1.795453    0.844348
    119          1           0       16.186760    1.306107   -0.795401
    120          1           0       15.430771    1.924147   -2.205752
    121          1           0       15.408530    4.244402   -0.839387
    122          1           0       16.298942    3.833468    0.366623
    123          1           0       18.224996    2.931866   -1.085937
    124          1           0       16.711089    4.804440   -3.100878
    125          1           0       18.272482    4.015458   -3.392798
    126          1           0       16.801757    3.050818   -3.180301
    127          1           0       18.078487    5.071351    0.370407
    128          1           0       19.123563    5.416148   -1.156218
    129          1           0       17.419097    6.137272   -1.028156
    130          1           0       -4.895085   -7.648980    0.098107
    131          1           0       -6.324391   -7.057229    0.799388
    132          1           0       -4.779475   -6.564419    1.468024
    133          8           0       -7.837906    6.790242   -0.649088
    134          1           0       -9.044673    6.267557   -2.255563
 ---------------------------------------------------------------------

 SCF Done:  E(RCAM-B3LYP) =  -3043.48273777     A.U. after   16 cycles

 Excitation energies and oscillator strengths:

 Excited State   1:      Singlet-A      1.9779 eV  626.85 nm  f=0.1859  <S**2>=0.000
     243 -> 246        0.24441
     244 -> 245        0.65548
 This state for optimization and/or second-order correction.
 Total Energy, E(TD-HF/TD-KS) =  -3043.41005182
 Copying the excited state density for this state as the 1-particle RhoCI density.

 The electronic state is 1-A.
 Alpha  occ. eigenvalues --  -46.80974 -19.22802 -19.22655 -19.19690 -19.16934
 Alpha  occ. eigenvalues --  -19.16794 -19.16703 -19.15778 -14.39341 -14.37787
 Alpha  occ. eigenvalues --  -14.36964 -14.36365 -10.35335 -10.34288 -10.33613
 Alpha  occ. eigenvalues --  -10.30452 -10.29733 -10.28586 -10.27964 -10.27386
 Alpha  occ. eigenvalues --  -10.27022 -10.26955 -10.26789 -10.26642 -10.26250
 Alpha  occ. eigenvalues --  -10.25751 -10.25631 -10.25514 -10.25421 -10.25299
 Alpha  occ. eigenvalues --  -10.24815 -10.24785 -10.24244 -10.24214 -10.23935
 Alpha  occ. eigenvalues --  -10.23858 -10.23764 -10.23657 -10.23539 -10.23425
 Alpha  occ. eigenvalues --  -10.23349 -10.23250 -10.23224 -10.22976 -10.22938
 Alpha  occ. eigenvalues --  -10.22774 -10.22593 -10.22588 -10.22345 -10.22195
 Alpha  occ. eigenvalues --  -10.22106 -10.22008 -10.21917 -10.21748 -10.21726
 Alpha  occ. eigenvalues --  -10.21578 -10.21537 -10.21392 -10.21256 -10.21096
 Alpha  occ. eigenvalues --  -10.20963 -10.20577 -10.20446 -10.20015 -10.18890
 Alpha  occ. eigenvalues --  -10.18427  -3.09811  -1.84730  -1.84297  -1.84236
 Alpha  occ. eigenvalues --   -1.15431  -1.14964  -1.10948  -1.06861  -1.05494
 Alpha  occ. eigenvalues --   -1.04947  -1.02600  -1.01283  -1.00434  -1.00078
 Alpha  occ. eigenvalues --   -0.98658  -0.89470  -0.86668  -0.86200  -0.85538
 Alpha  occ. eigenvalues --   -0.85302  -0.84750  -0.84567  -0.84397  -0.83649
 Alpha  occ. eigenvalues --   -0.82786  -0.82736  -0.82130  -0.81419  -0.80423
 Alpha  occ. eigenvalues --   -0.79223  -0.78574  -0.78053  -0.77579  -0.77334
 Alpha  occ. eigenvalues --   -0.75467  -0.74776  -0.74600  -0.74014  -0.72283
 Alpha  occ. eigenvalues --   -0.71391  -0.71117  -0.71027  -0.70266  -0.69603
 Alpha  occ. eigenvalues --   -0.69570  -0.69317  -0.67555  -0.66483  -0.66087
 Alpha  occ. eigenvalues --   -0.65610  -0.65286  -0.64555  -0.62716  -0.62356
 Alpha  occ. eigenvalues --   -0.62065  -0.61568  -0.60652  -0.59380  -0.59325
 Alpha  occ. eigenvalues --   -0.59276  -0.58624  -0.57546  -0.57384  -0.57322
 Alpha  occ. eigenvalues --   -0.56442  -0.56300  -0.56198  -0.55804  -0.54858
 Alpha  occ. eigenvalues --   -0.54699  -0.53908  -0.53129  -0.52799  -0.52647
 Alpha  occ. eigenvalues --   -0.52183  -0.51877  -0.51359  -0.51289  -0.50789
 Alpha  occ. eigenvalues --   -0.50759  -0.50192  -0.50042  -0.49973  -0.49626
 Alpha  occ. eigenvalues --   -0.49034  -0.48844  -0.48228  -0.48110  -0.48005
 Alpha  occ. eigenvalues --   -0.47757  -0.47692  -0.47393  -0.47285  -0.47027
 Alpha  occ. eigenvalues --   -0.46712  -0.46692  -0.46632  -0.46436  -0.46225
 Alpha  occ. eigenvalues --   -0.46130  -0.45755  -0.45590  -0.45054  -0.44871
 Alpha  occ. eigenvalues --   -0.44697  -0.44605  -0.44395  -0.44207  -0.43821
 Alpha  occ. eigenvalues --   -0.43674  -0.43453  -0.43398  -0.43153  -0.43020
 Alpha  occ. eigenvalues --   -0.42723  -0.42596  -0.42535  -0.42483  -0.42071
 Alpha  occ. eigenvalues --   -0.41778  -0.41532  -0.41405  -0.41251  -0.41106
 Alpha  occ. eigenvalues --   -0.40748  -0.40512  -0.40312  -0.40182  -0.40119
 Alpha  occ. eigenvalues --   -0.39975  -0.39856  -0.39804  -0.39733  -0.39231
 Alpha  occ. eigenvalues --   -0.39150  -0.38961  -0.38706  -0.38334  -0.38185
 Alpha  occ. eigenvalues --   -0.37907  -0.37770  -0.37591  -0.37412  -0.37171
 Alpha  occ. eigenvalues --   -0.36614  -0.36473  -0.36131  -0.36029  -0.35620
 Alpha  occ. eigenvalues --   -0.35251  -0.35087  -0.34897  -0.34622  -0.34413
 Alpha  occ. eigenvalues --   -0.34165  -0.34010  -0.33977  -0.33784  -0.33507
 Alpha  occ. eigenvalues --   -0.33166  -0.32614  -0.32236  -0.32154  -0.31664
 Alpha  occ. eigenvalues --   -0.31386  -0.31023  -0.30882  -0.30484  -0.30091
 Alpha  occ. eigenvalues --   -0.29517  -0.28964  -0.28844  -0.27903  -0.27595
 Alpha  occ. eigenvalues --   -0.27152  -0.27132  -0.23584  -0.21023
 Alpha virt. eigenvalues --   -0.08267  -0.07024  -0.02453  -0.00734   0.00397
 Alpha virt. eigenvalues --    0.02533   0.02949   0.03344   0.03972   0.04190
 Alpha virt. eigenvalues --    0.05056   0.05772   0.08269   0.08563   0.09140

 Mulliken charges:
               1
     1  Mg   0.836469
     2  C    0.105145
     3  C   -0.189555
     4  C   -0.130844
     5  C   -0.150716
     6  N   -0.645433
     7  C    0.295943
     8  C   -0.147592
     9  C   -0.135324
    10  C    0.329074
    11  C   -0.297754
    12  C   -0.168436
    13  C   -0.262022
    14  C    0.607975
    15  O   -0.466278
    16  O   -0.435774
    17  N   -0.686120
    18  C    0.307751
    19  C    0.116373
    20  C   -0.010379
    21  C    0.306178
    22  C   -0.419199
    23  C    0.226412
    24  O   -0.443757
    25  N   -0.672310
    26  C    0.237336
    27  C   -0.020834
    28  C    0.017399
    29  C    0.304130
    30  C    0.235959
    31  C   -0.242481
    32  C   -0.292888
    33  N   -0.700362
    34  C    0.291316
    35  C   -0.016935
    36  C    0.028998
    37  C    0.233813
    38  C   -0.370610
    39  C    0.381593
    40  O   -0.405070
    41  C   -0.356242
    42  C    0.626714
    43  O   -0.531492
    44  O   -0.437236
    45  C   -0.062889
    46  C    0.011211
    47  C   -0.169868
    48  C    0.191747
    49  C   -0.383082
    50  C   -0.245324
    51  C   -0.170232
    52  C   -0.165347
    53  C   -0.040817
    54  C   -0.322693
    55  C   -0.154678
    56  C   -0.209154
    57  C   -0.145513
    58  C   -0.071912
    59  C   -0.315956
    60  C   -0.174906
    61  C   -0.152384
    62  C   -0.160623
    63  C   -0.055459
    64  C   -0.300085
    65  C   -0.307726
    66  H    0.085083
    67  H    0.123289
    68  H    0.091618
    69  H    0.111634
    70  H    0.116449
    71  H    0.070967
    72  H    0.110651
    73  H    0.140138
    74  H    0.100491
    75  H    0.107740
    76  H    0.138613
    77  H    0.105715
    78  H    0.116542
    79  H    0.162615
    80  H    0.117045
    81  H    0.077393
    82  H    0.106912
    83  H    0.109518
    84  H    0.099691
    85  H    0.102462
    86  H    0.116528
    87  H    0.139586
    88  H    0.139662
    89  H    0.131710
    90  H    0.163050
    91  H    0.127916
    92  H    0.118805
    93  H    0.089265
    94  H    0.147414
    95  H    0.092139
    96  H    0.130709
    97  H    0.090764
    98  H    0.071738
    99  H    0.087858
   100  H    0.101734
   101  H    0.091396
   102  H    0.062128
   103  H    0.081099
   104  H    0.115861
   105  H    0.072403
   106  H    0.107317
   107  H    0.082891
   108  H    0.092064
   109  H    0.098645
   110  H    0.090313
   111  H    0.083133
   112  H    0.098351
   113  H    0.081666
   114  H    0.110112
   115  H    0.086817
   116  H    0.100293
   117  H    0.098734
   118  H    0.056906
   119  H    0.113627
   120  H    0.037170
   121  H    0.093926
   122  H    0.068851
   123  H    0.060743
   124  H    0.102462
   125  H    0.110840
   126  H    0.109554
   127  H    0.107932
   128  H    0.103838
   129  H    0.069457
   130  H    0.123907
   131  H    0.136297
   132  H    0.134487
   133  O   -0.420971
   134  H    0.047054
 Sum of Mulliken charges =   0.00000

 Dipole moment (field-independent basis, Debye):
    X=              1.8799    Y=             -7.2562    Z=             -1.2658  Tot=              7.6019
 Quadrupole moment (field-independent basis, Debye-Ang):
   XX=           -380.9397   YY=           -443.6035   ZZ=           -393.8823
   XY=             20.0622   XZ=             27.4404   YZ=            -24.2409

 Normal termination of Gaussian 09 at Mon Oct  7 14:39:02 2019.
