 Gaussian 09, Revision D.01,
 Gaussian 09:  ES64L-G09RevD.01 24-Apr-2013

 ----------------------------------------------------------------------
 # td=(NStates=1) iop(3/107=0140000000,3/108=0140000000) iop(3/107=0140
 000000,3/108=0140000000) CAM-B3LYP/6-31G(d,p)
 ----------------------------------------------------------------------

 --
 TD
 --
 Symbolic Z-matrix:
 Charge =  0 Multiplicity = 1

                         Standard orientation:
 ---------------------------------------------------------------------
 Center     Atomic      Atomic             Coordinates (Angstroms)
 Number     Number       Type             X           Y           Z
 ---------------------------------------------------------------------
      1         12           0       -5.557395    1.301270    0.110855
      2          6           0       -4.880701   -2.078568   -0.337170
      3          6           0       -3.403783    1.250425    2.776780
      4          6           0       -6.204463    4.536251    0.599754
      5          6           0       -7.909738    1.171674   -2.413273
      6          7           0       -4.275714   -0.152560    1.039760
      7          6           0       -4.169040   -1.585662    0.675408
      8          6           0       -3.168601   -2.228058    1.460954
      9          6           0       -2.849158   -1.278934    2.633476
     10          6           0       -3.561189   -0.018879    2.074367
     11          6           0       -3.622116   -1.514872    4.038102
     12          6           0       -1.949857   -2.703790    0.607190
     13          6           0       -0.963265   -3.623192    1.423731
     14          6           0        0.250762   -3.994011    0.580673
     15          8           0        0.553249   -3.526156   -0.539634
     16          8           0        0.962837   -4.839666    1.320726
     17          7           0       -4.881333    2.599630    1.481155
     18          6           0       -4.004085    2.362945    2.549042
     19          6           0       -3.745313    3.675218    3.239155
     20          6           0       -4.549799    4.645090    2.545567
     21          6           0       -5.312512    3.938540    1.494108
     22          6           0       -2.898306    3.871766    4.414316
     23          6           0       -4.603498    6.086556    2.876029
     24          8           0       -3.863502    6.658949    3.674528
     25          7           0       -6.771800    2.635579   -0.730827
     26          6           0       -6.761785    3.893567   -0.461212
     27          6           0       -7.883076    4.572814   -1.225399
     28          6           0       -8.387383    3.654496   -2.051206
     29          6           0       -7.638646    2.439142   -1.854531
     30          6           0       -8.296176    5.976468   -1.134783
     31          6           0       -9.348189    3.827517   -3.209800
     32          6           0       -8.465076    3.758235   -4.547029
     33          7           0       -6.263701   -0.127252   -1.108360
     34          6           0       -7.236852   -0.063505   -2.027468
     35          6           0       -7.452154   -1.314813   -2.713553
     36          6           0       -6.523057   -2.198194   -2.098986
     37          6           0       -5.827268   -1.388008   -1.109050
     38          6           0       -8.390177   -1.600914   -3.901916
     39          6           0       -6.080955   -3.513342   -2.010764
     40          8           0       -6.489686   -4.546478   -2.568069
     41          6           0       -4.969944   -3.442802   -0.909534
     42          6           0       -5.276030   -4.628357    0.169916
     43          8           0       -5.614241   -4.382837    1.257500
     44          8           0       -4.916807   -5.851087   -0.340248
     45          6           0       -5.226366   -6.942658    0.534625
     46          6           0        2.333732   -5.187409    0.732200
     47          6           0        3.423895   -4.276245    1.067497
     48          6           0        4.054528   -3.526668    0.280296
     49          6           0        3.578236   -3.289966   -1.132891
     50          6           0        5.228462   -2.740245    0.793085
     51          6           0        6.501623   -2.911140    0.068631
     52          6           0        7.562374   -2.004319    0.620203
     53          6           0        8.923231   -2.038376   -0.130049
     54          6           0        9.501226   -3.460245    0.067084
     55          6           0        9.839158   -0.885183    0.317034
     56          6           0       11.135501   -0.776543   -0.401393
     57          6           0       12.032122    0.370911    0.082573
     58          6           0       13.351914    0.582253   -0.726383
     59          6           0       14.334579   -0.551800   -0.475875
     60          6           0       14.069993    1.837380   -0.247476
     61          6           0       15.186670    2.269699   -1.062950
     62          6           0       15.891680    3.602545   -0.514720
     63          6           0       17.105484    4.024437   -1.254772
     64          6           0       16.918256    4.104473   -2.789708
     65          6           0       17.653104    5.357109   -0.757130
     66          1           0       -2.721757    1.191881    3.584085
     67          1           0       -6.333620    5.727521    0.874353
     68          1           0       -8.809979    1.184837   -3.244255
     69          1           0       -3.576278   -3.092148    1.658091
     70          1           0       -1.815835   -1.103630    2.620461
     71          1           0       -3.369703   -2.593751    4.617950
     72          1           0       -3.435563   -0.710600    4.643344
     73          1           0       -4.677575   -1.888801    3.676317
     74          1           0       -2.243784   -3.188758   -0.307602
     75          1           0       -1.403165   -1.786458    0.253647
     76          1           0       -0.627801   -2.941466    2.317048
     77          1           0       -1.427074   -4.564338    1.861948
     78          1           0       -1.921155    2.963913    4.436832
     79          1           0       -2.527877    4.948366    4.453563
     80          1           0       -3.448772    3.623584    5.554737
     81          1           0       -5.308896    6.665345    2.270147
     82          1           0      -10.101578    3.079182   -3.276039
     83          1           0       -9.742664    4.915153   -2.842114
     84          1           0       -9.185822    3.580638   -5.391816
     85          1           0       -8.024134    4.721973   -4.703970
     86          1           0       -7.817684    3.032867   -4.637573
     87          1           0       -7.862537   -0.931102   -4.681381
     88          1           0       -8.195688   -2.633326   -4.212116
     89          1           0       -9.409617   -1.319000   -3.664752
     90          1           0       -4.269989   -3.781193   -1.299602
     91          1           0        2.729672   -6.241376    1.247146
     92          1           0        2.376655   -5.381321   -0.311978
     93          1           0        3.733043   -4.219499    2.143482
     94          1           0        2.479210   -3.631473   -1.337799
     95          1           0        3.639998   -2.201613   -1.544300
     96          1           0        4.108355   -3.917879   -1.960698
     97          1           0        4.851927   -1.589785    0.933252
     98          1           0        5.491185   -2.876077    1.879727
     99          1           0        6.680047   -3.876760    0.277469
    100          1           0        6.584718   -2.954181   -0.934717
    101          1           0        7.368926   -0.908593    0.543624
    102          1           0        7.636738   -2.062996    1.745558
    103          1           0        8.804910   -2.057200   -1.284212
    104          1           0        8.828122   -4.085973   -0.288969
    105          1           0       10.525809   -3.409609   -0.238644
    106          1           0        9.417034   -3.745516    1.172724
    107          1           0        9.208306   -0.076644    0.181951
    108          1           0       10.130883   -0.910651    1.446440
    109          1           0       11.638845   -1.791328   -0.161004
    110          1           0       11.016633   -0.581183   -1.399531
    111          1           0       11.371552    1.197991    0.327515
    112          1           0       12.223491    0.341980    1.221185
    113          1           0       13.033891    0.596904   -1.750424
    114          1           0       14.742690   -0.494074    0.559388
    115          1           0       13.690550   -1.664531   -0.755919
    116          1           0       14.983803   -0.703130   -1.187786
    117          1           0       13.300229    2.641582   -0.258121
    118          1           0       14.209623    1.746028    0.922091
    119          1           0       15.999142    1.272482   -0.898100
    120          1           0       14.669237    2.160508   -2.029358
    121          1           0       15.306795    4.540686   -0.412438
    122          1           0       16.315269    3.447463    0.610473
    123          1           0       17.744375    3.187021   -0.807711
    124          1           0       16.024937    4.760331   -3.043563
    125          1           0       17.843856    4.264304   -3.218906
    126          1           0       16.405535    3.184242   -3.282760
    127          1           0       17.775070    5.519821    0.257353
    128          1           0       18.689183    5.565491   -1.080563
    129          1           0       16.779130    5.959372   -1.109337
    130          1           0       -4.968545   -7.914717    0.162601
    131          1           0       -6.237194   -6.906787    0.697832
    132          1           0       -4.877636   -6.707373    1.606856
    133          8           0       -7.730121    6.801212   -0.413755
    134          1           0       -9.102561    6.351945   -1.768525
 ---------------------------------------------------------------------

 SCF Done:  E(RCAM-B3LYP) =  -3043.35151834     A.U. after   15 cycles

 Excitation energies and oscillator strengths:

 Excited State   1:      Singlet-A      2.0478 eV  605.44 nm  f=0.2385  <S**2>=0.000
     243 -> 246       -0.18444
     244 -> 245        0.67439
 This state for optimization and/or second-order correction.
 Total Energy, E(TD-HF/TD-KS) =  -3043.27626198
 Copying the excited state density for this state as the 1-particle RhoCI density.

 The electronic state is 1-A.
 Alpha  occ. eigenvalues --  -46.80556 -19.23912 -19.22744 -19.18452 -19.17668
 Alpha  occ. eigenvalues --  -19.17343 -19.16896 -19.15265 -14.39423 -14.36971
 Alpha  occ. eigenvalues --  -14.36575 -14.36148 -10.35879 -10.35452 -10.30460
 Alpha  occ. eigenvalues --  -10.30394 -10.29513 -10.29101 -10.28313 -10.27017
 Alpha  occ. eigenvalues --  -10.26722 -10.26436 -10.26436 -10.26424 -10.26378
 Alpha  occ. eigenvalues --  -10.26195 -10.26101 -10.25944 -10.25682 -10.25450
 Alpha  occ. eigenvalues --  -10.25317 -10.25162 -10.25040 -10.25026 -10.24253
 Alpha  occ. eigenvalues --  -10.24220 -10.24037 -10.23639 -10.23328 -10.23010
 Alpha  occ. eigenvalues --  -10.22969 -10.22748 -10.22695 -10.22564 -10.22457
 Alpha  occ. eigenvalues --  -10.22429 -10.22301 -10.22259 -10.22070 -10.21962
 Alpha  occ. eigenvalues --  -10.21910 -10.21705 -10.21568 -10.21312 -10.21015
 Alpha  occ. eigenvalues --  -10.20856 -10.20813 -10.20778 -10.20636 -10.20625
 Alpha  occ. eigenvalues --  -10.20584 -10.20375 -10.20275 -10.19700 -10.19377
 Alpha  occ. eigenvalues --  -10.18624  -3.09405  -1.84327  -1.83913  -1.83796
 Alpha  occ. eigenvalues --   -1.14569  -1.12998  -1.07111  -1.06175  -1.06018
 Alpha  occ. eigenvalues --   -1.04079  -1.03709  -1.01714  -1.00877  -1.00240
 Alpha  occ. eigenvalues --   -0.97338  -0.89743  -0.87793  -0.86700  -0.86305
 Alpha  occ. eigenvalues --   -0.86128  -0.85195  -0.84718  -0.83944  -0.82955
 Alpha  occ. eigenvalues --   -0.82598  -0.82346  -0.82252  -0.80923  -0.79988
 Alpha  occ. eigenvalues --   -0.78878  -0.78653  -0.78398  -0.77166  -0.76471
 Alpha  occ. eigenvalues --   -0.75634  -0.74653  -0.74200  -0.73465  -0.71630
 Alpha  occ. eigenvalues --   -0.71267  -0.71106  -0.70652  -0.70327  -0.69760
 Alpha  occ. eigenvalues --   -0.69474  -0.68709  -0.67807  -0.67708  -0.67006
 Alpha  occ. eigenvalues --   -0.65923  -0.65201  -0.64397  -0.63579  -0.63017
 Alpha  occ. eigenvalues --   -0.62261  -0.60765  -0.60718  -0.59779  -0.59506
 Alpha  occ. eigenvalues --   -0.59209  -0.57856  -0.57838  -0.57387  -0.57015
 Alpha  occ. eigenvalues --   -0.56148  -0.55703  -0.55618  -0.55154  -0.54871
 Alpha  occ. eigenvalues --   -0.54611  -0.53169  -0.52592  -0.52388  -0.52063
 Alpha  occ. eigenvalues --   -0.51943  -0.51674  -0.51576  -0.51163  -0.51142
 Alpha  occ. eigenvalues --   -0.50873  -0.50256  -0.50149  -0.49889  -0.49545
 Alpha  occ. eigenvalues --   -0.49437  -0.49037  -0.48698  -0.48364  -0.48117
 Alpha  occ. eigenvalues --   -0.47925  -0.47872  -0.47464  -0.47322  -0.47151
 Alpha  occ. eigenvalues --   -0.46976  -0.46660  -0.46564  -0.46252  -0.46029
 Alpha  occ. eigenvalues --   -0.45591  -0.45499  -0.45294  -0.44943  -0.44639
 Alpha  occ. eigenvalues --   -0.44588  -0.44449  -0.44422  -0.43666  -0.43542
 Alpha  occ. eigenvalues --   -0.43424  -0.43213  -0.43034  -0.42819  -0.42545
 Alpha  occ. eigenvalues --   -0.42361  -0.42216  -0.42072  -0.41852  -0.41711
 Alpha  occ. eigenvalues --   -0.41500  -0.41244  -0.41095  -0.41054  -0.40866
 Alpha  occ. eigenvalues --   -0.40849  -0.40551  -0.40440  -0.40153  -0.39967
 Alpha  occ. eigenvalues --   -0.39929  -0.39791  -0.39535  -0.39368  -0.39246
 Alpha  occ. eigenvalues --   -0.39140  -0.38931  -0.38652  -0.38341  -0.38160
 Alpha  occ. eigenvalues --   -0.37974  -0.37794  -0.37480  -0.37350  -0.37088
 Alpha  occ. eigenvalues --   -0.36960  -0.36842  -0.36711  -0.36527  -0.35652
 Alpha  occ. eigenvalues --   -0.35351  -0.35198  -0.34910  -0.34643  -0.34569
 Alpha  occ. eigenvalues --   -0.34251  -0.34188  -0.33814  -0.33635  -0.33361
 Alpha  occ. eigenvalues --   -0.32935  -0.32108  -0.32096  -0.31882  -0.31596
 Alpha  occ. eigenvalues --   -0.31244  -0.31070  -0.30740  -0.30615  -0.30022
 Alpha  occ. eigenvalues --   -0.28936  -0.28530  -0.28088  -0.27629  -0.27480
 Alpha  occ. eigenvalues --   -0.27344  -0.26663  -0.23509  -0.21001
 Alpha virt. eigenvalues --   -0.08152  -0.05856  -0.02089  -0.00886   0.00975
 Alpha virt. eigenvalues --    0.02347   0.03747   0.03928   0.04293   0.04462
 Alpha virt. eigenvalues --    0.04765   0.06226   0.07812   0.08440   0.08611

 Mulliken charges:
               1
     1  Mg   0.816779
     2  C    0.119705
     3  C   -0.210700
     4  C   -0.196019
     5  C   -0.177990
     6  N   -0.593021
     7  C    0.257013
     8  C   -0.124350
     9  C   -0.146655
    10  C    0.359484
    11  C   -0.298632
    12  C   -0.194573
    13  C   -0.269092
    14  C    0.628430
    15  O   -0.484926
    16  O   -0.452732
    17  N   -0.752195
    18  C    0.384260
    19  C    0.087299
    20  C   -0.049546
    21  C    0.337738
    22  C   -0.375296
    23  C    0.254515
    24  O   -0.427814
    25  N   -0.681663
    26  C    0.349667
    27  C   -0.037861
    28  C    0.033341
    29  C    0.253695
    30  C    0.236897
    31  C   -0.238850
    32  C   -0.317077
    33  N   -0.714606
    34  C    0.266119
    35  C   -0.004857
    36  C    0.072523
    37  C    0.234313
    38  C   -0.365511
    39  C    0.300963
    40  O   -0.494017
    41  C   -0.274476
    42  C    0.588961
    43  O   -0.427233
    44  O   -0.446284
    45  C   -0.097774
    46  C   -0.018299
    47  C   -0.136422
    48  C    0.205950
    49  C   -0.409764
    50  C   -0.242787
    51  C   -0.159558
    52  C   -0.174804
    53  C   -0.074121
    54  C   -0.296285
    55  C   -0.174877
    56  C   -0.162027
    57  C   -0.181533
    58  C   -0.062555
    59  C   -0.274109
    60  C   -0.167689
    61  C   -0.142551
    62  C   -0.163733
    63  C   -0.055623
    64  C   -0.303910
    65  C   -0.303021
    66  H    0.069058
    67  H    0.145734
    68  H    0.095061
    69  H    0.116229
    70  H    0.113697
    71  H    0.087459
    72  H    0.135667
    73  H    0.135597
    74  H    0.128389
    75  H    0.113704
    76  H    0.130029
    77  H    0.136029
    78  H    0.069196
    79  H    0.170786
    80  H    0.111073
    81  H    0.084550
    82  H    0.123277
    83  H    0.089899
    84  H    0.099984
    85  H    0.126942
    86  H    0.135408
    87  H    0.121468
    88  H    0.153355
    89  H    0.130860
    90  H    0.123665
    91  H    0.099518
    92  H    0.140587
    93  H    0.078641
    94  H    0.156063
    95  H    0.109529
    96  H    0.093335
    97  H    0.075234
    98  H    0.093905
    99  H    0.114911
   100  H    0.106387
   101  H    0.080718
   102  H    0.083301
   103  H    0.071807
   104  H    0.106696
   105  H    0.099576
   106  H    0.077477
   107  H    0.094396
   108  H    0.076591
   109  H    0.093415
   110  H    0.096742
   111  H    0.088099
   112  H    0.064175
   113  H    0.083920
   114  H    0.107733
   115  H    0.036270
   116  H    0.125026
   117  H    0.082430
   118  H    0.069929
   119  H    0.054415
   120  H    0.101281
   121  H    0.078467
   122  H    0.073018
   123  H    0.075874
   124  H    0.094653
   125  H    0.116807
   126  H    0.090036
   127  H    0.104927
   128  H    0.099764
   129  H    0.095316
   130  H    0.134074
   131  H    0.140147
   132  H    0.112077
   133  O   -0.431900
   134  H    0.077282
 Sum of Mulliken charges =   0.00000

 Dipole moment (field-independent basis, Debye):
    X=              1.8662    Y=             -3.7889    Z=              0.1401  Tot=              4.2259
 Quadrupole moment (field-independent basis, Debye-Ang):
   XX=           -383.4231   YY=           -438.8689   ZZ=           -389.8850
   XY=              3.5567   XZ=             13.9715   YZ=            -35.3083

 Normal termination of Gaussian 09 at Fri Oct  4 23:05:33 2019.
