 Gaussian 09, Revision D.01,
 Gaussian 09:  ES64L-G09RevD.01 24-Apr-2013

 ----------------------------------------------------------------------
 # td=(NStates=1) iop(3/107=0140000000,3/108=0140000000) iop(3/107=0140
 000000,3/108=0140000000) CAM-B3LYP/6-31G(d,p)
 ----------------------------------------------------------------------

 --
 TD
 --
 Symbolic Z-matrix:
 Charge =  0 Multiplicity = 1

                         Standard orientation:
 ---------------------------------------------------------------------
 Center     Atomic      Atomic             Coordinates (Angstroms)
 Number     Number       Type             X           Y           Z
 ---------------------------------------------------------------------
      1         12           0       -5.695657    1.211887    0.170750
      2          6           0       -4.849128   -2.163665   -0.455223
      3          6           0       -3.498431    1.298988    2.790190
      4          6           0       -6.107399    4.566172    0.513744
      5          6           0       -8.058978    1.064776   -2.386528
      6          7           0       -4.303144   -0.273501    0.949043
      7          6           0       -4.232529   -1.661901    0.714977
      8          6           0       -3.180537   -2.314295    1.569710
      9          6           0       -2.885104   -1.294760    2.707954
     10          6           0       -3.667556   -0.011097    2.142789
     11          6           0       -3.548262   -1.603171    4.091112
     12          6           0       -1.908621   -2.636013    0.705072
     13          6           0       -0.990820   -3.511712    1.466866
     14          6           0        0.122243   -3.869514    0.661958
     15          8           0        0.365418   -3.365226   -0.482361
     16          8           0        1.116318   -4.553733    1.280719
     17          7           0       -4.953196    2.602324    1.486509
     18          6           0       -4.055314    2.469754    2.521165
     19          6           0       -3.743350    3.670569    3.213148
     20          6           0       -4.579109    4.670098    2.524103
     21          6           0       -5.323383    3.953841    1.470661
     22          6           0       -2.788116    3.846729    4.310543
     23          6           0       -4.650948    6.119671    2.803081
     24          8           0       -4.171232    6.629855    3.843124
     25          7           0       -6.898540    2.598013   -0.744373
     26          6           0       -6.933135    3.927915   -0.488093
     27          6           0       -7.962944    4.587845   -1.361467
     28          6           0       -8.518419    3.576355   -2.072918
     29          6           0       -7.777386    2.275159   -1.755192
     30          6           0       -8.313485    5.974969   -1.308837
     31          6           0       -9.653482    3.673978   -3.103631
     32          6           0       -8.896040    3.976701   -4.495931
     33          7           0       -6.298609   -0.204402   -1.075724
     34          6           0       -7.330475   -0.094340   -1.993184
     35          6           0       -7.494249   -1.349699   -2.669138
     36          6           0       -6.673347   -2.300380   -2.013770
     37          6           0       -5.966451   -1.472564   -1.050018
     38          6           0       -8.624972   -1.659171   -3.670039
     39          6           0       -6.216429   -3.634445   -1.951859
     40          8           0       -6.495645   -4.637983   -2.589415
     41          6           0       -5.046649   -3.673435   -0.808096
     42          6           0       -5.208939   -4.718120    0.199168
     43          8           0       -5.772835   -4.454696    1.232007
     44          8           0       -4.850215   -5.889845   -0.299678
     45          6           0       -5.223508   -7.012385    0.533177
     46          6           0        2.332248   -4.944304    0.500282
     47          6           0        3.430775   -3.935103    0.904322
     48          6           0        4.122272   -3.196363    0.026610
     49          6           0        3.735118   -3.044313   -1.464155
     50          6           0        5.259042   -2.381448    0.542061
     51          6           0        6.629926   -2.868262    0.083517
     52          6           0        7.730540   -1.765476    0.622218
     53          6           0        9.060429   -2.043874   -0.071763
     54          6           0        9.544442   -3.486155    0.327273
     55          6           0       10.047069   -0.897584    0.394236
     56          6           0       11.324866   -0.869179   -0.317243
     57          6           0       12.126381    0.370293    0.102336
     58          6           0       13.563339    0.522147   -0.567824
     59          6           0       14.485163   -0.670008   -0.329734
     60          6           0       14.243144    1.838905   -0.138230
     61          6           0       15.462761    2.151651   -1.040932
     62          6           0       16.023783    3.526493   -0.680615
     63          6           0       17.352693    3.860958   -1.342584
     64          6           0       17.098418    4.101061   -2.869468
     65          6           0       17.910950    5.110919   -0.738169
     66          1           0       -2.867876    1.203400    3.732618
     67          1           0       -6.275948    5.570094    0.727497
     68          1           0       -8.948909    1.081996   -2.883669
     69          1           0       -3.539903   -3.392250    2.068532
     70          1           0       -1.918513   -1.028968    2.802111
     71          1           0       -2.882247   -2.327475    4.372757
     72          1           0       -3.293290   -0.574839    4.789966
     73          1           0       -4.396513   -1.777605    4.012040
     74          1           0       -2.241729   -3.273601   -0.036048
     75          1           0       -1.355078   -1.926199    0.189411
     76          1           0       -0.443626   -2.865855    2.370603
     77          1           0       -1.367823   -4.419123    2.062254
     78          1           0       -1.880459    3.492790    3.760077
     79          1           0       -2.805041    4.873103    4.591238
     80          1           0       -2.824718    3.052311    5.229638
     81          1           0       -5.104846    6.811386    2.042880
     82          1           0      -10.310640    2.751080   -3.062424
     83          1           0      -10.319600    4.473964   -2.810112
     84          1           0       -9.882139    4.393638   -5.218988
     85          1           0       -8.250495    4.766864   -4.404871
     86          1           0       -8.339783    3.124901   -4.852439
     87          1           0       -8.512870   -1.151170   -4.584597
     88          1           0       -8.477193   -2.719614   -3.938267
     89          1           0       -9.620486   -1.569862   -3.187927
     90          1           0       -4.189865   -4.112033   -1.294003
     91          1           0        2.412207   -5.896499    0.840439
     92          1           0        2.041722   -4.880926   -0.585396
     93          1           0        3.709020   -4.010918    1.912429
     94          1           0        2.839778   -3.448305   -1.622125
     95          1           0        3.687567   -2.044864   -1.630763
     96          1           0        4.402162   -3.393037   -2.428598
     97          1           0        5.118686   -1.276526    0.137254
     98          1           0        5.352828   -2.240461    1.568202
     99          1           0        6.962761   -3.857267    0.617428
    100          1           0        6.782310   -3.020267   -1.228724
    101          1           0        7.258719   -0.823202    0.378797
    102          1           0        7.658751   -1.850416    1.675174
    103          1           0        8.952275   -1.929157   -1.141877
    104          1           0        8.862470   -4.451394    0.145199
    105          1           0       10.626707   -3.580842   -0.085004
    106          1           0        9.623975   -3.485696    1.487633
    107          1           0        9.487372   -0.000533    0.220165
    108          1           0       10.252506   -1.135255    1.576377
    109          1           0       12.065671   -1.752055   -0.312646
    110          1           0       11.113326   -0.724150   -1.344423
    111          1           0       11.501143    1.438770   -0.025522
    112          1           0       12.468340    0.349759    1.175026
    113          1           0       13.310324    0.643349   -1.609079
    114          1           0       14.745721   -0.669605    0.814209
    115          1           0       14.050847   -1.721421   -0.238282
    116          1           0       15.480211   -0.766253   -0.708618
    117          1           0       13.518364    2.712959   -0.262376
    118          1           0       14.496809    1.724771    0.939537
    119          1           0       16.224150    1.343551   -1.036228
    120          1           0       15.036743    2.278865   -2.163285
    121          1           0       15.312942    4.383570   -1.053046
    122          1           0       16.248662    3.418982    0.443196
    123          1           0       18.164879    3.023257   -1.168241
    124          1           0       16.510094    4.923315   -3.140435
    125          1           0       18.032128    4.134691   -3.467217
    126          1           0       16.632635    3.181830   -3.153922
    127          1           0       18.035937    4.801817    0.360895
    128          1           0       18.741342    5.595443   -1.250929
    129          1           0       17.142287    5.799310   -0.751686
    130          1           0       -5.176488   -7.941845   -0.181719
    131          1           0       -6.150220   -6.991096    0.924879
    132          1           0       -4.272566   -7.170474    1.330047
    133          8           0       -7.786233    6.852870   -0.562389
    134          1           0       -9.126443    6.282380   -1.954043
 ---------------------------------------------------------------------

 SCF Done:  E(RCAM-B3LYP) =  -3043.46263008     A.U. after   16 cycles

 Excitation energies and oscillator strengths:

 Excited State   1:      Singlet-A      1.9801 eV  626.16 nm  f=0.1795  <S**2>=0.000
     243 -> 246        0.25179
     244 -> 245        0.65185
 This state for optimization and/or second-order correction.
 Total Energy, E(TD-HF/TD-KS) =  -3043.38986383
 Copying the excited state density for this state as the 1-particle RhoCI density.

 The electronic state is 1-A.
 Alpha  occ. eigenvalues --  -46.81540 -19.23878 -19.21104 -19.16978 -19.16898
 Alpha  occ. eigenvalues --  -19.16370 -19.16286 -19.15812 -14.39508 -14.37715
 Alpha  occ. eigenvalues --  -14.36998 -14.36396 -10.34374 -10.34279 -10.30890
 Alpha  occ. eigenvalues --  -10.30625 -10.30367 -10.29192 -10.28761 -10.27736
 Alpha  occ. eigenvalues --  -10.27705 -10.27130 -10.26798 -10.26708 -10.26094
 Alpha  occ. eigenvalues --  -10.25879 -10.25861 -10.25858 -10.25695 -10.25591
 Alpha  occ. eigenvalues --  -10.25255 -10.25064 -10.24744 -10.24536 -10.24343
 Alpha  occ. eigenvalues --  -10.24308 -10.24179 -10.24064 -10.23931 -10.23501
 Alpha  occ. eigenvalues --  -10.23387 -10.23374 -10.23270 -10.23256 -10.22621
 Alpha  occ. eigenvalues --  -10.22612 -10.22266 -10.22062 -10.22056 -10.21960
 Alpha  occ. eigenvalues --  -10.21948 -10.21929 -10.21861 -10.21717 -10.21655
 Alpha  occ. eigenvalues --  -10.21653 -10.21622 -10.21540 -10.21395 -10.21288
 Alpha  occ. eigenvalues --  -10.21265 -10.20785 -10.20703 -10.20445 -10.19058
 Alpha  occ. eigenvalues --  -10.19003  -3.10151  -1.85086  -1.84622  -1.84566
 Alpha  occ. eigenvalues --   -1.14814  -1.11046  -1.05922  -1.05542  -1.04575
 Alpha  occ. eigenvalues --   -1.04088  -1.01148  -1.00969  -0.99509  -0.98899
 Alpha  occ. eigenvalues --   -0.97941  -0.87319  -0.86777  -0.85788  -0.85504
 Alpha  occ. eigenvalues --   -0.85222  -0.84701  -0.84459  -0.83887  -0.83466
 Alpha  occ. eigenvalues --   -0.82915  -0.82818  -0.82381  -0.80296  -0.79886
 Alpha  occ. eigenvalues --   -0.79010  -0.78200  -0.77800  -0.77270  -0.76360
 Alpha  occ. eigenvalues --   -0.75344  -0.74970  -0.74432  -0.72684  -0.72265
 Alpha  occ. eigenvalues --   -0.71547  -0.71311  -0.70127  -0.69842  -0.69588
 Alpha  occ. eigenvalues --   -0.69060  -0.68922  -0.67896  -0.67135  -0.67054
 Alpha  occ. eigenvalues --   -0.66255  -0.64810  -0.64269  -0.62669  -0.61675
 Alpha  occ. eigenvalues --   -0.61063  -0.60976  -0.59654  -0.59503  -0.58964
 Alpha  occ. eigenvalues --   -0.58298  -0.57961  -0.57735  -0.57093  -0.57057
 Alpha  occ. eigenvalues --   -0.56618  -0.56140  -0.55520  -0.55203  -0.54865
 Alpha  occ. eigenvalues --   -0.53736  -0.52931  -0.52800  -0.52527  -0.52229
 Alpha  occ. eigenvalues --   -0.51873  -0.51570  -0.50950  -0.50893  -0.50559
 Alpha  occ. eigenvalues --   -0.50343  -0.50175  -0.49786  -0.49299  -0.49027
 Alpha  occ. eigenvalues --   -0.48722  -0.48620  -0.48162  -0.47767  -0.47579
 Alpha  occ. eigenvalues --   -0.47504  -0.47345  -0.47173  -0.46858  -0.46753
 Alpha  occ. eigenvalues --   -0.46403  -0.46145  -0.46018  -0.45789  -0.45766
 Alpha  occ. eigenvalues --   -0.45653  -0.45486  -0.45275  -0.44995  -0.44529
 Alpha  occ. eigenvalues --   -0.44444  -0.44234  -0.44019  -0.43697  -0.43615
 Alpha  occ. eigenvalues --   -0.43411  -0.43133  -0.43057  -0.42947  -0.42531
 Alpha  occ. eigenvalues --   -0.42490  -0.42239  -0.42037  -0.42016  -0.41825
 Alpha  occ. eigenvalues --   -0.41747  -0.41363  -0.41202  -0.41085  -0.40945
 Alpha  occ. eigenvalues --   -0.40807  -0.40679  -0.40376  -0.40155  -0.40052
 Alpha  occ. eigenvalues --   -0.39848  -0.39561  -0.39437  -0.39251  -0.39086
 Alpha  occ. eigenvalues --   -0.38932  -0.38872  -0.38490  -0.38445  -0.38394
 Alpha  occ. eigenvalues --   -0.38176  -0.37804  -0.37381  -0.37146  -0.36747
 Alpha  occ. eigenvalues --   -0.36641  -0.36490  -0.36247  -0.36149  -0.35575
 Alpha  occ. eigenvalues --   -0.35267  -0.35204  -0.35161  -0.34800  -0.34763
 Alpha  occ. eigenvalues --   -0.34617  -0.34409  -0.34199  -0.33940  -0.33681
 Alpha  occ. eigenvalues --   -0.32618  -0.32481  -0.32050  -0.32008  -0.31675
 Alpha  occ. eigenvalues --   -0.31501  -0.30220  -0.29743  -0.29495  -0.29068
 Alpha  occ. eigenvalues --   -0.29024  -0.28311  -0.28093  -0.27779  -0.27452
 Alpha  occ. eigenvalues --   -0.27145  -0.27087  -0.22947  -0.21458
 Alpha virt. eigenvalues --   -0.08706  -0.06638  -0.02303  -0.01603   0.00483
 Alpha virt. eigenvalues --    0.01672   0.03261   0.03511   0.03732   0.03842
 Alpha virt. eigenvalues --    0.04315   0.05638   0.07508   0.07977   0.08980

 Mulliken charges:
               1
     1  Mg   0.839703
     2  C    0.003837
     3  C   -0.229681
     4  C   -0.159261
     5  C   -0.111215
     6  N   -0.583386
     7  C    0.295926
     8  C   -0.172564
     9  C   -0.144201
    10  C    0.306384
    11  C   -0.240421
    12  C   -0.155690
    13  C   -0.270738
    14  C    0.611499
    15  O   -0.513106
    16  O   -0.492870
    17  N   -0.725441
    18  C    0.379286
    19  C    0.083893
    20  C   -0.059372
    21  C    0.327933
    22  C   -0.380266
    23  C    0.225034
    24  O   -0.432883
    25  N   -0.705286
    26  C    0.283799
    27  C    0.040150
    28  C   -0.032252
    29  C    0.290202
    30  C    0.225428
    31  C   -0.247187
    32  C   -0.296762
    33  N   -0.700761
    34  C    0.265257
    35  C   -0.016624
    36  C    0.063035
    37  C    0.283286
    38  C   -0.381917
    39  C    0.331109
    40  O   -0.465366
    41  C   -0.283326
    42  C    0.608754
    43  O   -0.481426
    44  O   -0.425335
    45  C   -0.084967
    46  C    0.000282
    47  C   -0.118412
    48  C    0.140106
    49  C   -0.357609
    50  C   -0.227992
    51  C   -0.157611
    52  C   -0.176658
    53  C   -0.053086
    54  C   -0.306593
    55  C   -0.150059
    56  C   -0.169135
    57  C   -0.171446
    58  C   -0.050459
    59  C   -0.328976
    60  C   -0.165000
    61  C   -0.171766
    62  C   -0.146362
    63  C   -0.061460
    64  C   -0.323658
    65  C   -0.283262
    66  H    0.072260
    67  H    0.112232
    68  H    0.097625
    69  H    0.101810
    70  H    0.115387
    71  H    0.119359
    72  H    0.070197
    73  H    0.120663
    74  H    0.132221
    75  H    0.148011
    76  H    0.120406
    77  H    0.131442
    78  H    0.132097
    79  H    0.166462
    80  H    0.114563
    81  H    0.100502
    82  H    0.110806
    83  H    0.120735
    84  H    0.074847
    85  H    0.138208
    86  H    0.129811
    87  H    0.128866
    88  H    0.142359
    89  H    0.129304
    90  H    0.143570
    91  H    0.124446
    92  H    0.135529
    93  H    0.085782
    94  H    0.142774
    95  H    0.129076
    96  H    0.088558
    97  H    0.079646
    98  H    0.107270
    99  H    0.089011
   100  H    0.050291
   101  H    0.089118
   102  H    0.099723
   103  H    0.088671
   104  H    0.099965
   105  H    0.092654
   106  H    0.089147
   107  H    0.100666
   108  H    0.064530
   109  H    0.092254
   110  H    0.099404
   111  H    0.058358
   112  H    0.082920
   113  H    0.086499
   114  H    0.076807
   115  H    0.096918
   116  H    0.119312
   117  H    0.083338
   118  H    0.087049
   119  H    0.096328
   120  H    0.074608
   121  H    0.082747
   122  H    0.079936
   123  H    0.065469
   124  H    0.106170
   125  H    0.094612
   126  H    0.104979
   127  H    0.080719
   128  H    0.097314
   129  H    0.102570
   130  H    0.123707
   131  H    0.159568
   132  H    0.098177
   133  O   -0.446908
   134  H    0.073480
 Sum of Mulliken charges =   0.00000

 Dipole moment (field-independent basis, Debye):
    X=              1.7544    Y=             -4.7389    Z=             -0.1689  Tot=              5.0560
 Quadrupole moment (field-independent basis, Debye-Ang):
   XX=           -374.4682   YY=           -438.4533   ZZ=           -397.9991
   XY=              4.5272   XZ=             20.1507   YZ=            -41.3397

 Normal termination of Gaussian 09 at Thu Oct  3 11:47:32 2019.
