 Gaussian 09, Revision D.01,
 Gaussian 09:  ES64L-G09RevD.01 24-Apr-2013

 ----------------------------------------------------------------------
 # td=(NStates=1) iop(3/107=0140000000,3/108=0140000000) iop(3/107=0140
 000000,3/108=0140000000) CAM-B3LYP/6-31G(d,p)
 ----------------------------------------------------------------------

 --
 TD
 --
 Symbolic Z-matrix:
 Charge =  0 Multiplicity = 1

                         Standard orientation:
 ---------------------------------------------------------------------
 Center     Atomic      Atomic             Coordinates (Angstroms)
 Number     Number       Type             X           Y           Z
 ---------------------------------------------------------------------
      1         12           0       -5.561031    1.224036    0.104549
      2          6           0       -5.021462   -2.192027   -0.446334
      3          6           0       -3.612034    1.100557    2.886582
      4          6           0       -6.332505    4.561179    0.642496
      5          6           0       -7.994610    1.080153   -2.316674
      6          7           0       -4.324564   -0.228204    1.005322
      7          6           0       -4.200506   -1.570444    0.617775
      8          6           0       -3.145496   -2.229531    1.446482
      9          6           0       -2.929380   -1.301609    2.642198
     10          6           0       -3.702109   -0.042872    2.154811
     11          6           0       -3.452850   -1.811168    4.093423
     12          6           0       -1.940778   -2.628770    0.583093
     13          6           0       -0.985832   -3.463917    1.433512
     14          6           0        0.283997   -3.776783    0.537824
     15          8           0        0.455337   -3.424370   -0.574192
     16          8           0        1.101232   -4.694047    1.223749
     17          7           0       -5.036809    2.651996    1.461848
     18          6           0       -4.142866    2.410745    2.443277
     19          6           0       -3.816478    3.631768    3.151965
     20          6           0       -4.673323    4.608339    2.637126
     21          6           0       -5.387681    3.960947    1.521902
     22          6           0       -2.728182    3.824969    4.247343
     23          6           0       -4.761255    6.106328    2.935540
     24          8           0       -4.164074    6.599455    3.829996
     25          7           0       -6.739539    2.613342   -0.846389
     26          6           0       -7.027416    3.903100   -0.435933
     27          6           0       -8.054780    4.572715   -1.162381
     28          6           0       -8.538389    3.592386   -1.969276
     29          6           0       -7.800553    2.334780   -1.703957
     30          6           0       -8.509005    5.957718   -1.169931
     31          6           0       -9.600768    3.711346   -3.078516
     32          6           0       -8.775203    3.943281   -4.474005
     33          7           0       -6.289009   -0.131998   -1.077516
     34          6           0       -7.230066   -0.116542   -2.034957
     35          6           0       -7.374844   -1.433259   -2.767099
     36          6           0       -6.621783   -2.220263   -2.108950
     37          6           0       -5.893242   -1.437978   -1.107813
     38          6           0       -8.373260   -1.690619   -3.830413
     39          6           0       -6.227003   -3.611499   -2.016949
     40          8           0       -6.443068   -4.613175   -2.621290
     41          6           0       -4.959196   -3.612919   -0.984166
     42          6           0       -5.259056   -4.648475    0.128281
     43          8           0       -5.718275   -4.568917    1.218892
     44          8           0       -4.977341   -5.849486   -0.315308
     45          6           0       -5.059586   -6.952832    0.544503
     46          6           0        2.299953   -4.996934    0.602088
     47          6           0        3.385765   -4.032553    0.971207
     48          6           0        4.099614   -3.288456    0.137996
     49          6           0        3.869423   -3.080093   -1.377859
     50          6           0        5.159547   -2.422777    0.725248
     51          6           0        6.557639   -2.694658   -0.025720
     52          6           0        7.709445   -1.824479    0.690190
     53          6           0        9.106583   -2.099354    0.107107
     54          6           0        9.682157   -3.474286    0.438449
     55          6           0       10.088640   -0.991140    0.595015
     56          6           0       11.388287   -0.875571   -0.195803
     57          6           0       12.216780    0.274468    0.184491
     58          6           0       13.564568    0.611664   -0.509475
     59          6           0       14.455278   -0.710405   -0.337835
     60          6           0       14.173302    1.879106   -0.164693
     61          6           0       15.305383    2.185895   -1.075853
     62          6           0       15.967001    3.611929   -0.666893
     63          6           0       17.288904    3.946981   -1.460758
     64          6           0       17.143108    4.088727   -2.870831
     65          6           0       17.773551    5.378329   -0.902056
     66          1           0       -2.923670    1.243318    3.810794
     67          1           0       -6.530275    5.546240    1.005325
     68          1           0       -8.731541    0.963408   -2.956139
     69          1           0       -3.684836   -3.292573    1.713396
     70          1           0       -1.726911   -0.750892    2.787318
     71          1           0       -2.979400   -2.848535    4.309766
     72          1           0       -2.959811   -1.107356    4.828206
     73          1           0       -4.655353   -1.879440    4.273084
     74          1           0       -2.459428   -3.189117   -0.070275
     75          1           0       -1.513843   -1.760943    0.370063
     76          1           0       -0.672535   -2.782087    2.352841
     77          1           0       -1.363231   -4.461634    1.605199
     78          1           0       -1.846485    3.419995    4.001643
     79          1           0       -2.610812    4.842226    4.584704
     80          1           0       -2.973120    3.175954    5.239868
     81          1           0       -5.531769    6.692551    2.293894
     82          1           0      -10.281292    2.639678   -3.346283
     83          1           0      -10.528925    4.518012   -3.042570
     84          1           0       -9.432313    3.947697   -5.382385
     85          1           0       -8.395285    5.109316   -4.288508
     86          1           0       -8.003460    3.226796   -4.743952
     87          1           0       -8.262822   -0.845560   -4.803323
     88          1           0       -8.108756   -2.588681   -4.106154
     89          1           0       -9.356130   -1.755250   -3.663818
     90          1           0       -4.055047   -3.798397   -1.472238
     91          1           0        2.511974   -6.031774    1.009356
     92          1           0        2.108446   -5.150203   -0.589364
     93          1           0        3.569811   -3.980791    2.093130
     94          1           0        2.686635   -3.174542   -1.845986
     95          1           0        4.191857   -1.928615   -1.669447
     96          1           0        4.480587   -3.593548   -2.088557
     97          1           0        4.946356   -1.429203    0.540799
     98          1           0        5.433102   -2.840585    1.687020
     99          1           0        6.835422   -3.740552    0.027904
    100          1           0        6.526987   -2.622071   -1.191117
    101          1           0        7.434449   -0.930253    0.395774
    102          1           0        7.503741   -2.026593    1.811044
    103          1           0        8.864309   -1.765367   -1.007547
    104          1           0        9.156863   -4.321962    0.205715
    105          1           0       10.509573   -3.519251   -0.023752
    106          1           0        9.843994   -3.563804    1.465314
    107          1           0        9.840352    0.122543    0.529606
    108          1           0       10.447819   -1.207401    1.734184
    109          1           0       11.710683   -1.766325   -0.202133
    110          1           0       11.092760   -0.771398   -1.452713
    111          1           0       11.600799    1.188658    0.158769
    112          1           0       12.319515    0.224350    1.292792
    113          1           0       13.392773    0.596254   -1.773243
    114          1           0       14.703678   -0.965652    0.825313
    115          1           0       13.987625   -1.710859   -0.681379
    116          1           0       15.457227   -0.438512   -0.760639
    117          1           0       13.408033    2.632309   -0.412253
    118          1           0       14.375322    1.931108    0.828949
    119          1           0       16.125228    1.364232   -0.861823
    120          1           0       15.108484    2.393136   -2.159543
    121          1           0       15.160133    4.317004   -0.838492
    122          1           0       16.203053    3.842322    0.537753
    123          1           0       17.908516    3.147804   -1.225028
    124          1           0       16.364994    4.724545   -3.271580
    125          1           0       18.178036    4.309540   -3.462315
    126          1           0       16.743003    3.295574   -3.465460
    127          1           0       17.822250    5.426559    0.344702
    128          1           0       18.836169    5.620530   -1.171398
    129          1           0       17.213189    6.132926   -1.318310
    130          1           0       -4.547286   -7.879335   -0.061158
    131          1           0       -6.078717   -7.329664    0.825369
    132          1           0       -4.474942   -6.922984    1.606333
    133          8           0       -7.942431    6.880643   -0.540300
    134          1           0       -9.269554    6.140716   -1.945600
 ---------------------------------------------------------------------

 SCF Done:  E(RCAM-B3LYP) =  -3043.32944151     A.U. after   16 cycles

 Excitation energies and oscillator strengths:

 Excited State   1:      Singlet-A      1.9350 eV  640.76 nm  f=0.2060  <S**2>=0.000
     243 -> 246        0.24105
     244 -> 245        0.65776
 This state for optimization and/or second-order correction.
 Total Energy, E(TD-HF/TD-KS) =  -3043.25833334
 Copying the excited state density for this state as the 1-particle RhoCI density.

 The electronic state is 1-A.
 Alpha  occ. eigenvalues --  -46.81102 -19.22961 -19.21469 -19.19191 -19.18598
 Alpha  occ. eigenvalues --  -19.17465 -19.17368 -19.17285 -14.39319 -14.37581
 Alpha  occ. eigenvalues --  -14.37355 -14.36490 -10.35307 -10.35233 -10.33029
 Alpha  occ. eigenvalues --  -10.30950 -10.30809 -10.29685 -10.28812 -10.27638
 Alpha  occ. eigenvalues --  -10.27498 -10.26987 -10.26957 -10.26835 -10.26607
 Alpha  occ. eigenvalues --  -10.26546 -10.26399 -10.26197 -10.25657 -10.25543
 Alpha  occ. eigenvalues --  -10.25256 -10.25174 -10.24931 -10.24895 -10.24764
 Alpha  occ. eigenvalues --  -10.24353 -10.24108 -10.23955 -10.23523 -10.23484
 Alpha  occ. eigenvalues --  -10.23430 -10.23160 -10.23137 -10.23036 -10.22966
 Alpha  occ. eigenvalues --  -10.22952 -10.22812 -10.22812 -10.22811 -10.22290
 Alpha  occ. eigenvalues --  -10.22068 -10.21994 -10.21903 -10.21875 -10.21664
 Alpha  occ. eigenvalues --  -10.21537 -10.21535 -10.21402 -10.21162 -10.21128
 Alpha  occ. eigenvalues --  -10.20669 -10.20368 -10.20347 -10.20329 -10.19893
 Alpha  occ. eigenvalues --  -10.18202  -3.09917  -1.84834  -1.84385  -1.84358
 Alpha  occ. eigenvalues --   -1.16576  -1.13726  -1.10300  -1.08686  -1.06714
 Alpha  occ. eigenvalues --   -1.05948  -1.05091  -1.02084  -1.00572  -0.99703
 Alpha  occ. eigenvalues --   -0.98826  -0.89751  -0.86865  -0.86305  -0.86163
 Alpha  occ. eigenvalues --   -0.85482  -0.84530  -0.84394  -0.83625  -0.83325
 Alpha  occ. eigenvalues --   -0.82448  -0.81707  -0.80829  -0.80546  -0.79921
 Alpha  occ. eigenvalues --   -0.78769  -0.78021  -0.77206  -0.76742  -0.75871
 Alpha  occ. eigenvalues --   -0.75210  -0.74758  -0.73522  -0.73191  -0.71961
 Alpha  occ. eigenvalues --   -0.71444  -0.70756  -0.70125  -0.69759  -0.69599
 Alpha  occ. eigenvalues --   -0.69231  -0.69117  -0.67597  -0.66746  -0.65840
 Alpha  occ. eigenvalues --   -0.65171  -0.64762  -0.64399  -0.62791  -0.62160
 Alpha  occ. eigenvalues --   -0.61014  -0.60836  -0.60576  -0.59578  -0.59446
 Alpha  occ. eigenvalues --   -0.58729  -0.57862  -0.57485  -0.57138  -0.57026
 Alpha  occ. eigenvalues --   -0.56367  -0.55864  -0.55644  -0.55470  -0.55022
 Alpha  occ. eigenvalues --   -0.54437  -0.54124  -0.53128  -0.52589  -0.51961
 Alpha  occ. eigenvalues --   -0.51812  -0.51737  -0.51632  -0.51059  -0.50905
 Alpha  occ. eigenvalues --   -0.50723  -0.50366  -0.50188  -0.49463  -0.49055
 Alpha  occ. eigenvalues --   -0.48932  -0.48616  -0.48570  -0.48205  -0.47901
 Alpha  occ. eigenvalues --   -0.47465  -0.47220  -0.47171  -0.47053  -0.46923
 Alpha  occ. eigenvalues --   -0.46686  -0.46509  -0.46326  -0.46154  -0.45947
 Alpha  occ. eigenvalues --   -0.45463  -0.45298  -0.45238  -0.44968  -0.44673
 Alpha  occ. eigenvalues --   -0.44455  -0.44391  -0.44153  -0.44042  -0.43664
 Alpha  occ. eigenvalues --   -0.43478  -0.43340  -0.43222  -0.43026  -0.42955
 Alpha  occ. eigenvalues --   -0.42710  -0.42326  -0.42090  -0.42045  -0.41953
 Alpha  occ. eigenvalues --   -0.41849  -0.41680  -0.41434  -0.41387  -0.41101
 Alpha  occ. eigenvalues --   -0.40750  -0.40554  -0.40416  -0.40373  -0.40231
 Alpha  occ. eigenvalues --   -0.40201  -0.39813  -0.39672  -0.39271  -0.39165
 Alpha  occ. eigenvalues --   -0.38986  -0.38909  -0.38333  -0.38277  -0.38027
 Alpha  occ. eigenvalues --   -0.37822  -0.37576  -0.37561  -0.37133  -0.36786
 Alpha  occ. eigenvalues --   -0.36440  -0.36353  -0.35984  -0.35735  -0.35718
 Alpha  occ. eigenvalues --   -0.35547  -0.35265  -0.35066  -0.34789  -0.34733
 Alpha  occ. eigenvalues --   -0.34287  -0.33990  -0.33756  -0.33534  -0.33011
 Alpha  occ. eigenvalues --   -0.32589  -0.32531  -0.32321  -0.31774  -0.31680
 Alpha  occ. eigenvalues --   -0.31454  -0.31423  -0.31067  -0.30517  -0.30497
 Alpha  occ. eigenvalues --   -0.29535  -0.28905  -0.28747  -0.28346  -0.27731
 Alpha  occ. eigenvalues --   -0.27543  -0.27276  -0.23004  -0.20626
 Alpha virt. eigenvalues --   -0.08019  -0.06423  -0.02645  -0.00898   0.00657
 Alpha virt. eigenvalues --    0.03021   0.03451   0.03799   0.04378   0.04437
 Alpha virt. eigenvalues --    0.04589   0.05235   0.06657   0.07533   0.08458

 Mulliken charges:
               1
     1  Mg   0.835110
     2  C    0.055451
     3  C   -0.176095
     4  C   -0.137390
     5  C   -0.159666
     6  N   -0.629721
     7  C    0.294289
     8  C   -0.200172
     9  C   -0.137036
    10  C    0.362574
    11  C   -0.297257
    12  C   -0.098807
    13  C   -0.272220
    14  C    0.586986
    15  O   -0.419075
    16  O   -0.463899
    17  N   -0.693399
    18  C    0.291918
    19  C    0.023417
    20  C   -0.052831
    21  C    0.271263
    22  C   -0.375752
    23  C    0.254322
    24  O   -0.386202
    25  N   -0.660905
    26  C    0.249908
    27  C    0.064404
    28  C    0.026882
    29  C    0.294794
    30  C    0.242162
    31  C   -0.260632
    32  C   -0.296785
    33  N   -0.728885
    34  C    0.251962
    35  C   -0.006496
    36  C    0.092317
    37  C    0.310662
    38  C   -0.356124
    39  C    0.365202
    40  O   -0.417142
    41  C   -0.342565
    42  C    0.596728
    43  O   -0.458342
    44  O   -0.397228
    45  C   -0.087660
    46  C   -0.001594
    47  C   -0.150450
    48  C    0.180830
    49  C   -0.371172
    50  C   -0.223426
    51  C   -0.228029
    52  C   -0.147096
    53  C   -0.063236
    54  C   -0.313062
    55  C   -0.178428
    56  C   -0.127228
    57  C   -0.173257
    58  C   -0.031328
    59  C   -0.309994
    60  C   -0.143051
    61  C   -0.186261
    62  C   -0.180740
    63  C   -0.031414
    64  C   -0.311257
    65  C   -0.303491
    66  H    0.085623
    67  H    0.110695
    68  H    0.058202
    69  H    0.110436
    70  H    0.071066
    71  H    0.108813
    72  H    0.113145
    73  H    0.120831
    74  H    0.106287
    75  H    0.121246
    76  H    0.127143
    77  H    0.140356
    78  H    0.133064
    79  H    0.156338
    80  H    0.093158
    81  H    0.077962
    82  H    0.074593
    83  H    0.107235
    84  H    0.106568
    85  H    0.088426
    86  H    0.128683
    87  H    0.086210
    88  H    0.145036
    89  H    0.150385
    90  H    0.169662
    91  H    0.102336
    92  H    0.099241
    93  H    0.082033
    94  H    0.116511
    95  H    0.080944
    96  H    0.132659
    97  H    0.117471
    98  H    0.106952
    99  H    0.096489
   100  H    0.074932
   101  H    0.106557
   102  H    0.074211
   103  H    0.075529
   104  H    0.109150
   105  H    0.118133
   106  H    0.112002
   107  H    0.083643
   108  H    0.062172
   109  H    0.101023
   110  H    0.026730
   111  H    0.079821
   112  H    0.083993
   113  H    0.041423
   114  H    0.065959
   115  H    0.107214
   116  H    0.096038
   117  H    0.094877
   118  H    0.107793
   119  H    0.083497
   120  H    0.104025
   121  H    0.090441
   122  H    0.055876
   123  H    0.101296
   124  H    0.101655
   125  H    0.080654
   126  H    0.100305
   127  H    0.066163
   128  H    0.094031
   129  H    0.119850
   130  H    0.103991
   131  H    0.133162
   132  H    0.105388
   133  O   -0.430943
   134  H    0.079224
 Sum of Mulliken charges =   0.00000

 Dipole moment (field-independent basis, Debye):
    X=              1.3981    Y=             -5.0974    Z=             -1.7480  Tot=              5.5672
 Quadrupole moment (field-independent basis, Debye-Ang):
   XX=           -379.2286   YY=           -442.5782   ZZ=           -394.5423
   XY=             14.2438   XZ=             25.3721   YZ=            -29.7553

 Normal termination of Gaussian 09 at Wed Oct  9 06:49:41 2019.
