 Gaussian 09, Revision D.01,
 Gaussian 09:  ES64L-G09RevD.01 24-Apr-2013

 ----------------------------------------------------------------------
 # td=(NStates=1) iop(3/107=0140000000,3/108=0140000000) iop(3/107=0140
 000000,3/108=0140000000) CAM-B3LYP/6-31G(d,p)
 ----------------------------------------------------------------------

 --
 TD
 --
 Symbolic Z-matrix:
 Charge =  0 Multiplicity = 1

                         Standard orientation:
 ---------------------------------------------------------------------
 Center     Atomic      Atomic             Coordinates (Angstroms)
 Number     Number       Type             X           Y           Z
 ---------------------------------------------------------------------
      1         12           0       -5.504022    1.199934    0.165253
      2          6           0       -4.960867   -2.080984   -0.323594
      3          6           0       -3.295459    1.237718    2.801647
      4          6           0       -6.237591    4.478750    0.657240
      5          6           0       -7.960705    1.085283   -2.422269
      6          7           0       -4.410967   -0.198927    1.107761
      7          6           0       -4.224550   -1.547504    0.678990
      8          6           0       -3.253443   -2.258922    1.498296
      9          6           0       -2.855883   -1.347936    2.599276
     10          6           0       -3.554960    0.029131    2.174113
     11          6           0       -3.535742   -1.758957    4.032133
     12          6           0       -2.005207   -2.721434    0.666053
     13          6           0       -1.003211   -3.594290    1.591106
     14          6           0        0.237785   -3.856465    0.721820
     15          8           0        0.445437   -3.553037   -0.428354
     16          8           0        1.012413   -4.761475    1.378229
     17          7           0       -4.906021    2.632311    1.490419
     18          6           0       -3.993154    2.479016    2.505781
     19          6           0       -3.642015    3.725955    3.243486
     20          6           0       -4.604556    4.670178    2.528408
     21          6           0       -5.261932    3.961731    1.489356
     22          6           0       -2.745862    3.954842    4.361536
     23          6           0       -4.588591    6.071960    2.743425
     24          8           0       -3.967076    6.679749    3.729869
     25          7           0       -6.731503    2.569113   -0.727617
     26          6           0       -6.943444    3.921164   -0.401356
     27          6           0       -7.833222    4.527931   -1.205087
     28          6           0       -8.387937    3.629750   -2.113892
     29          6           0       -7.678290    2.422186   -1.813736
     30          6           0       -8.449274    5.898354   -1.176912
     31          6           0       -9.454747    3.754015   -3.176285
     32          6           0       -8.842211    4.047699   -4.563327
     33          7           0       -6.315220   -0.086264   -1.087362
     34          6           0       -7.288134   -0.061179   -2.169817
     35          6           0       -7.548302   -1.428313   -2.683697
     36          6           0       -6.578124   -2.193836   -2.056034
     37          6           0       -5.958489   -1.443332   -1.113768
     38          6           0       -8.374417   -1.810610   -3.782935
     39          6           0       -6.149615   -3.576038   -2.095636
     40          8           0       -6.515069   -4.556627   -2.682553
     41          6           0       -5.009347   -3.556348   -0.913893
     42          6           0       -5.247502   -4.535325    0.141521
     43          8           0       -5.607068   -4.395316    1.322835
     44          8           0       -5.022915   -5.795951   -0.338442
     45          6           0       -5.229190   -6.853208    0.589817
     46          6           0        2.271304   -5.154653    0.792322
     47          6           0        3.305698   -4.059753    1.095619
     48          6           0        3.934469   -3.291684    0.216277
     49          6           0        3.777646   -3.337714   -1.296066
     50          6           0        5.170778   -2.353269    0.503391
     51          6           0        6.514009   -2.784884   -0.000071
     52          6           0        7.569828   -1.745583    0.460285
     53          6           0        8.922736   -1.989764   -0.099538
     54          6           0        9.583184   -3.375674    0.101966
     55          6           0        9.824346   -0.882671    0.350155
     56          6           0       11.206586   -0.780181   -0.304993
     57          6           0       12.102255    0.443403    0.160496
     58          6           0       13.451129    0.501949   -0.528930
     59          6           0       14.326876   -0.765722   -0.458881
     60          6           0       14.149482    1.765638   -0.105157
     61          6           0       15.403847    2.190564   -0.891329
     62          6           0       15.994583    3.601479   -0.596510
     63          6           0       17.324825    3.890044   -1.338913
     64          6           0       17.107002    3.807470   -2.800847
     65          6           0       17.925828    5.225855   -0.899292
     66          1           0       -2.510514    1.466607    3.501756
     67          1           0       -6.553495    5.620845    0.780677
     68          1           0       -8.803966    1.080743   -3.198025
     69          1           0       -3.703628   -3.190719    1.920835
     70          1           0       -1.741590   -1.286986    2.662822
     71          1           0       -3.165837   -2.857589    4.155780
     72          1           0       -3.101648   -1.159961    4.970321
     73          1           0       -4.661652   -1.696330    3.979352
     74          1           0       -2.457816   -3.418497   -0.137216
     75          1           0       -1.419748   -1.902083    0.212546
     76          1           0       -0.821422   -3.068608    2.553338
     77          1           0       -1.551446   -4.432195    1.729360
     78          1           0       -1.695668    3.724702    3.875733
     79          1           0       -2.667069    5.213350    4.552045
     80          1           0       -3.047247    3.445198    5.285613
     81          1           0       -5.102318    6.709334    2.244053
     82          1           0      -10.145121    2.759713   -3.301473
     83          1           0      -10.194502    4.443466   -2.912584
     84          1           0       -9.695670    4.081344   -5.319778
     85          1           0       -8.057288    4.792227   -4.701265
     86          1           0       -8.184682    3.195530   -4.965937
     87          1           0       -8.198900   -1.398245   -4.712454
     88          1           0       -8.563203   -2.832945   -3.807830
     89          1           0       -9.372901   -1.266982   -3.643972
     90          1           0       -4.050063   -3.847991   -1.462194
     91          1           0        2.753332   -6.005222    1.661985
     92          1           0        2.251518   -5.408122   -0.219501
     93          1           0        3.870735   -3.879273    2.227706
     94          1           0        2.640194   -3.736495   -1.769245
     95          1           0        3.897964   -2.326151   -1.863641
     96          1           0        4.433037   -4.060696   -1.620564
     97          1           0        4.923695   -1.370587    0.080839
     98          1           0        5.296371   -2.390144    1.590459
     99          1           0        6.917658   -3.907625    0.334175
    100          1           0        6.519002   -2.996504   -1.008097
    101          1           0        7.235406   -0.706658   -0.103818
    102          1           0        7.660676   -1.642116    1.547740
    103          1           0        8.925566   -1.856486   -1.390670
    104          1           0        8.879011   -4.112020   -0.299303
    105          1           0       10.384877   -3.690451   -0.491755
    106          1           0        9.571663   -3.571808    1.092124
    107          1           0        9.150492   -0.040593    0.232699
    108          1           0        9.754125   -1.116885    1.404936
    109          1           0       11.968986   -1.786111   -0.107660
    110          1           0       10.990607   -0.856336   -1.369303
    111          1           0       11.356385    1.257381   -0.013718
    112          1           0       12.245879    0.350742    1.223523
    113          1           0       13.367351    0.853117   -1.436452
    114          1           0       14.421600   -0.831595    0.662085
    115          1           0       13.810876   -1.567845   -0.905263
    116          1           0       15.302213   -0.597144   -0.913796
    117          1           0       13.370344    2.617474   -0.135277
    118          1           0       14.509779    1.664854    0.924324
    119          1           0       16.221466    1.437620   -0.894631
    120          1           0       15.238898    2.146859   -2.052953
    121          1           0       15.356328    4.434870   -0.754337
    122          1           0       16.385206    3.621502    0.417681
    123          1           0       18.057443    3.047748   -1.084245
    124          1           0       16.265093    4.597512   -3.039144
    125          1           0       17.988217    4.200120   -3.324484
    126          1           0       16.668307    2.911018   -3.227310
    127          1           0       18.109612    5.239514    0.209700
    128          1           0       19.043532    5.344563   -1.214754
    129          1           0       17.425128    6.241728   -1.123564
    130          1           0       -5.266966   -7.825401    0.046206
    131          1           0       -6.234705   -6.657634    1.190323
    132          1           0       -4.323717   -6.831652    1.477965
    133          8           0       -7.914637    6.833718   -0.475872
    134          1           0       -9.179573    6.154664   -1.964127
 ---------------------------------------------------------------------

 SCF Done:  E(RCAM-B3LYP) =  -3043.45385845     A.U. after   16 cycles

 Excitation energies and oscillator strengths:

 Excited State   1:      Singlet-A      2.0162 eV  614.94 nm  f=0.1448  <S**2>=0.000
     243 -> 245       -0.14925
     243 -> 246       -0.25743
     244 -> 245        0.61811
     244 -> 246       -0.13347
 This state for optimization and/or second-order correction.
 Total Energy, E(TD-HF/TD-KS) =  -3043.37976475
 Copying the excited state density for this state as the 1-particle RhoCI density.

 The electronic state is 1-A.
 Alpha  occ. eigenvalues --  -46.79944 -19.22598 -19.22111 -19.19313 -19.17826
 Alpha  occ. eigenvalues --  -19.17438 -19.17379 -19.15071 -14.38757 -14.37099
 Alpha  occ. eigenvalues --  -14.37018 -14.36853 -10.35518 -10.35389 -10.33157
 Alpha  occ. eigenvalues --  -10.31322 -10.29971 -10.29237 -10.27915 -10.27769
 Alpha  occ. eigenvalues --  -10.27601 -10.27046 -10.26939 -10.26915 -10.26573
 Alpha  occ. eigenvalues --  -10.26498 -10.26073 -10.26030 -10.25941 -10.25813
 Alpha  occ. eigenvalues --  -10.25478 -10.25451 -10.24725 -10.24593 -10.24374
 Alpha  occ. eigenvalues --  -10.24150 -10.24101 -10.24011 -10.23943 -10.23529
 Alpha  occ. eigenvalues --  -10.23432 -10.23404 -10.23171 -10.23079 -10.22945
 Alpha  occ. eigenvalues --  -10.22926 -10.22885 -10.22848 -10.22708 -10.22680
 Alpha  occ. eigenvalues --  -10.22585 -10.22358 -10.22322 -10.22050 -10.22017
 Alpha  occ. eigenvalues --  -10.21889 -10.21639 -10.21636 -10.20926 -10.20748
 Alpha  occ. eigenvalues --  -10.20231 -10.20123 -10.19975 -10.19925 -10.19614
 Alpha  occ. eigenvalues --  -10.18860  -3.08847  -1.83752  -1.83342  -1.83277
 Alpha  occ. eigenvalues --   -1.13419  -1.13283  -1.09564  -1.05068  -1.03696
 Alpha  occ. eigenvalues --   -1.03491  -1.00551  -0.99460  -0.98770  -0.98228
 Alpha  occ. eigenvalues --   -0.97462  -0.88535  -0.86592  -0.85755  -0.85610
 Alpha  occ. eigenvalues --   -0.85541  -0.85135  -0.84528  -0.83774  -0.83658
 Alpha  occ. eigenvalues --   -0.82817  -0.82169  -0.81156  -0.80542  -0.79671
 Alpha  occ. eigenvalues --   -0.79543  -0.78321  -0.77710  -0.77039  -0.76140
 Alpha  occ. eigenvalues --   -0.75804  -0.74995  -0.73876  -0.72396  -0.72221
 Alpha  occ. eigenvalues --   -0.71669  -0.70952  -0.70618  -0.70047  -0.69652
 Alpha  occ. eigenvalues --   -0.69181  -0.68640  -0.67596  -0.66872  -0.66627
 Alpha  occ. eigenvalues --   -0.66118  -0.65104  -0.64389  -0.62841  -0.62222
 Alpha  occ. eigenvalues --   -0.61391  -0.60180  -0.59927  -0.59468  -0.59055
 Alpha  occ. eigenvalues --   -0.58576  -0.57931  -0.57799  -0.57702  -0.57167
 Alpha  occ. eigenvalues --   -0.56925  -0.56051  -0.55509  -0.54983  -0.54433
 Alpha  occ. eigenvalues --   -0.53879  -0.53643  -0.53115  -0.52671  -0.52250
 Alpha  occ. eigenvalues --   -0.51769  -0.51608  -0.51126  -0.50569  -0.50467
 Alpha  occ. eigenvalues --   -0.50121  -0.49975  -0.49572  -0.49090  -0.48927
 Alpha  occ. eigenvalues --   -0.48780  -0.48466  -0.48453  -0.48008  -0.47749
 Alpha  occ. eigenvalues --   -0.47543  -0.47443  -0.47256  -0.47078  -0.46611
 Alpha  occ. eigenvalues --   -0.46529  -0.46084  -0.45940  -0.45861  -0.45681
 Alpha  occ. eigenvalues --   -0.45474  -0.45194  -0.44975  -0.44824  -0.44685
 Alpha  occ. eigenvalues --   -0.44520  -0.44294  -0.44098  -0.43811  -0.43569
 Alpha  occ. eigenvalues --   -0.43323  -0.43086  -0.43019  -0.42819  -0.42653
 Alpha  occ. eigenvalues --   -0.42562  -0.42519  -0.42245  -0.41954  -0.41856
 Alpha  occ. eigenvalues --   -0.41601  -0.41494  -0.41167  -0.41121  -0.40694
 Alpha  occ. eigenvalues --   -0.40508  -0.40465  -0.40198  -0.39917  -0.39562
 Alpha  occ. eigenvalues --   -0.39502  -0.39338  -0.39228  -0.38886  -0.38827
 Alpha  occ. eigenvalues --   -0.38591  -0.38257  -0.38011  -0.37883  -0.37824
 Alpha  occ. eigenvalues --   -0.37629  -0.37515  -0.37404  -0.36964  -0.36913
 Alpha  occ. eigenvalues --   -0.36865  -0.36584  -0.36210  -0.36120  -0.35887
 Alpha  occ. eigenvalues --   -0.35433  -0.35167  -0.34942  -0.34781  -0.34664
 Alpha  occ. eigenvalues --   -0.34311  -0.34017  -0.33774  -0.33075  -0.32713
 Alpha  occ. eigenvalues --   -0.32633  -0.32231  -0.32117  -0.31919  -0.31577
 Alpha  occ. eigenvalues --   -0.31498  -0.31229  -0.31096  -0.30648  -0.29879
 Alpha  occ. eigenvalues --   -0.29226  -0.28729  -0.28161  -0.27791  -0.27766
 Alpha  occ. eigenvalues --   -0.26529  -0.25898  -0.23406  -0.21969
 Alpha virt. eigenvalues --   -0.09050  -0.07306  -0.02206  -0.01883   0.00225
 Alpha virt. eigenvalues --    0.01778   0.02993   0.03691   0.04254   0.04405
 Alpha virt. eigenvalues --    0.04537   0.05648   0.07008   0.08086   0.08198

 Mulliken charges:
               1
     1  Mg   0.812819
     2  C    0.056168
     3  C   -0.184104
     4  C   -0.202595
     5  C   -0.176026
     6  N   -0.658121
     7  C    0.333422
     8  C   -0.156536
     9  C   -0.144966
    10  C    0.335531
    11  C   -0.303050
    12  C   -0.197041
    13  C   -0.268450
    14  C    0.601959
    15  O   -0.452070
    16  O   -0.453469
    17  N   -0.695471
    18  C    0.284409
    19  C    0.082380
    20  C   -0.043610
    21  C    0.351234
    22  C   -0.414875
    23  C    0.228444
    24  O   -0.474382
    25  N   -0.668059
    26  C    0.327377
    27  C   -0.022862
    28  C    0.063610
    29  C    0.219099
    30  C    0.228884
    31  C   -0.241014
    32  C   -0.315338
    33  N   -0.710639
    34  C    0.264935
    35  C    0.062912
    36  C    0.045195
    37  C    0.300438
    38  C   -0.392750
    39  C    0.370949
    40  O   -0.425699
    41  C   -0.364774
    42  C    0.645633
    43  O   -0.492585
    44  O   -0.437586
    45  C   -0.071262
    46  C    0.018503
    47  C   -0.143107
    48  C    0.140700
    49  C   -0.370620
    50  C   -0.214614
    51  C   -0.165400
    52  C   -0.163314
    53  C   -0.056641
    54  C   -0.306276
    55  C   -0.146906
    56  C   -0.175645
    57  C   -0.174137
    58  C   -0.040435
    59  C   -0.313713
    60  C   -0.177766
    61  C   -0.193987
    62  C   -0.153965
    63  C   -0.049131
    64  C   -0.292576
    65  C   -0.320770
    66  H    0.084348
    67  H    0.142185
    68  H    0.088709
    69  H    0.139222
    70  H    0.103050
    71  H    0.097865
    72  H    0.101832
    73  H    0.135914
    74  H    0.099709
    75  H    0.128510
    76  H    0.135688
    77  H    0.154692
    78  H    0.116854
    79  H    0.166613
    80  H    0.142268
    81  H    0.089593
    82  H    0.094203
    83  H    0.124017
    84  H    0.106005
    85  H    0.128978
    86  H    0.102386
    87  H    0.156500
    88  H    0.154852
    89  H    0.111772
    90  H    0.167704
    91  H    0.097605
    92  H    0.137585
    93  H    0.056852
    94  H    0.094162
    95  H    0.103184
    96  H    0.139053
    97  H    0.108754
    98  H    0.091594
    99  H    0.063970
   100  H    0.111999
   101  H    0.081509
   102  H    0.099098
   103  H    0.016604
   104  H    0.089463
   105  H    0.116343
   106  H    0.105839
   107  H    0.085163
   108  H    0.079732
   109  H    0.053791
   110  H    0.095587
   111  H    0.091672
   112  H    0.096550
   113  H    0.095371
   114  H    0.096542
   115  H    0.115796
   116  H    0.105847
   117  H    0.082111
   118  H    0.080826
   119  H    0.090668
   120  H    0.067150
   121  H    0.095551
   122  H    0.090002
   123  H    0.078170
   124  H    0.071982
   125  H    0.096865
   126  H    0.107413
   127  H    0.098533
   128  H    0.089050
   129  H    0.100882
   130  H    0.129783
   131  H    0.128528
   132  H    0.084805
   133  O   -0.439707
   134  H    0.095995
 Sum of Mulliken charges =   0.00000

 Dipole moment (field-independent basis, Debye):
    X=              0.9078    Y=             -5.5904    Z=             -3.2154  Tot=              6.5127
 Quadrupole moment (field-independent basis, Debye-Ang):
   XX=           -362.1094   YY=           -449.5493   ZZ=           -393.1796
   XY=             10.1628   XZ=             39.1052   YZ=            -33.3163

 Normal termination of Gaussian 09 at Mon Oct  7 18:57:07 2019.
