 Gaussian 09, Revision D.01,
 Gaussian 09:  ES64L-G09RevD.01 24-Apr-2013

 ----------------------------------------------------------------------
 # td=(NStates=1) iop(3/107=0140000000,3/108=0140000000) iop(3/107=0140
 000000,3/108=0140000000) CAM-B3LYP/6-31G(d,p)
 ----------------------------------------------------------------------

 --
 TD
 --
 Symbolic Z-matrix:
 Charge =  0 Multiplicity = 1

                         Standard orientation:
 ---------------------------------------------------------------------
 Center     Atomic      Atomic             Coordinates (Angstroms)
 Number     Number       Type             X           Y           Z
 ---------------------------------------------------------------------
      1         12           0       -5.522178    1.240085    0.259598
      2          6           0       -5.003484   -2.149516   -0.388199
      3          6           0       -3.327498    1.160794    2.761695
      4          6           0       -6.066250    4.624836    0.544657
      5          6           0       -7.930447    1.203373   -2.303885
      6          7           0       -4.423614   -0.289787    0.983068
      7          6           0       -4.266945   -1.596745    0.655071
      8          6           0       -3.126558   -2.354536    1.382225
      9          6           0       -2.905702   -1.336036    2.619852
     10          6           0       -3.559309   -0.074020    2.121822
     11          6           0       -3.467078   -1.812382    3.967514
     12          6           0       -1.903100   -2.658347    0.573993
     13          6           0       -1.029931   -3.550305    1.373033
     14          6           0        0.184257   -3.976434    0.516469
     15          8           0        0.496823   -3.404623   -0.472230
     16          8           0        0.998207   -4.867591    1.182342
     17          7           0       -4.752691    2.619629    1.406680
     18          6           0       -3.800680    2.371679    2.423287
     19          6           0       -3.535570    3.673383    3.091782
     20          6           0       -4.454851    4.660936    2.549374
     21          6           0       -5.150819    3.983919    1.468348
     22          6           0       -2.715285    3.742040    4.371659
     23          6           0       -4.703583    5.963235    3.011874
     24          8           0       -4.053922    6.537968    3.917104
     25          7           0       -6.799247    2.612497   -0.614660
     26          6           0       -6.834730    4.024372   -0.405582
     27          6           0       -7.844104    4.688095   -1.284282
     28          6           0       -8.407674    3.696069   -2.049250
     29          6           0       -7.727299    2.411449   -1.658122
     30          6           0       -8.423465    5.989566   -1.254269
     31          6           0       -9.522476    3.783952   -3.084118
     32          6           0       -8.858392    3.977803   -4.486770
     33          7           0       -6.281848   -0.116619   -1.120524
     34          6           0       -7.258124   -0.015656   -2.063257
     35          6           0       -7.602314   -1.307683   -2.610703
     36          6           0       -6.653201   -2.145453   -1.982524
     37          6           0       -6.000251   -1.446737   -1.106474
     38          6           0       -8.585680   -1.605416   -3.724377
     39          6           0       -6.245139   -3.572364   -2.014200
     40          8           0       -6.615302   -4.545469   -2.610172
     41          6           0       -5.037092   -3.645256   -0.908449
     42          6           0       -5.419368   -4.592336    0.138331
     43          8           0       -5.696220   -4.319854    1.322973
     44          8           0       -5.224841   -5.802382   -0.341048
     45          6           0       -5.384405   -6.912506    0.619655
     46          6           0        2.265887   -5.073831    0.618086
     47          6           0        3.372783   -4.169319    0.932279
     48          6           0        4.010331   -3.372208    0.108579
     49          6           0        3.675152   -3.185868   -1.398378
     50          6           0        5.041865   -2.398685    0.587194
     51          6           0        6.446075   -2.643404   -0.027411
     52          6           0        7.587092   -1.705555    0.441270
     53          6           0        8.911797   -1.966931   -0.170600
     54          6           0        9.497557   -3.243794    0.115201
     55          6           0        9.864837   -0.841651    0.344925
     56          6           0       11.303207   -0.915798   -0.161297
     57          6           0       12.235899    0.229972    0.320594
     58          6           0       13.592148    0.530443   -0.465200
     59          6           0       14.452928   -0.810572   -0.224482
     60          6           0       14.238926    1.784719   -0.043773
     61          6           0       15.446209    2.065700   -0.977482
     62          6           0       15.957406    3.503694   -0.738442
     63          6           0       17.384477    3.845868   -1.374763
     64          6           0       17.302426    4.073118   -2.854876
     65          6           0       18.029643    5.135663   -0.842518
     66          1           0       -2.541978    1.067103    3.392892
     67          1           0       -6.218284    5.661137    0.684658
     68          1           0       -8.759334    1.249830   -3.112082
     69          1           0       -3.724185   -3.262744    1.856131
     70          1           0       -1.779843   -1.139932    2.691165
     71          1           0       -2.881279   -2.622895    4.263883
     72          1           0       -3.278315   -1.141378    4.782642
     73          1           0       -4.518439   -1.831152    4.144790
     74          1           0       -2.365019   -3.114311   -0.286522
     75          1           0       -1.245516   -1.818757    0.252701
     76          1           0       -0.747580   -3.230724    2.289184
     77          1           0       -1.725901   -4.332402    1.714839
     78          1           0       -1.513238    3.413988    4.401953
     79          1           0       -2.697562    4.860700    4.545844
     80          1           0       -3.258299    3.254177    5.316436
     81          1           0       -5.313661    6.568425    2.194475
     82          1           0      -10.009581    2.899801   -3.065623
     83          1           0      -10.418154    4.711061   -2.884035
     84          1           0       -9.648025    4.507244   -5.077460
     85          1           0       -8.157050    4.939583   -4.445726
     86          1           0       -8.317572    3.151613   -4.916955
     87          1           0       -7.893055   -0.972372   -4.671954
     88          1           0       -8.675555   -2.690981   -3.794150
     89          1           0       -9.640506   -1.000776   -3.592004
     90          1           0       -4.246624   -4.177087   -1.371114
     91          1           0        2.442215   -6.134376    0.897397
     92          1           0        2.208805   -5.261814   -0.547675
     93          1           0        3.471380   -4.132109    2.029519
     94          1           0        2.661716   -3.495832   -1.759340
     95          1           0        3.905701   -2.223844   -1.742575
     96          1           0        4.163646   -3.835340   -2.144528
     97          1           0        4.672000   -1.416074    0.486099
     98          1           0        5.113446   -2.581968    1.850029
     99          1           0        6.656744   -3.783942    0.046401
    100          1           0        6.342746   -2.324505   -0.971033
    101          1           0        7.274597   -0.619306    0.434394
    102          1           0        7.718464   -1.975024    1.285437
    103          1           0        8.826760   -1.749174   -1.143761
    104          1           0        8.756376   -4.110261   -0.267075
    105          1           0       10.441255   -3.414057   -0.275380
    106          1           0        9.523809   -3.353088    1.338138
    107          1           0        9.290811   -0.066346    0.116812
    108          1           0        9.780056   -1.032459    1.402101
    109          1           0       11.661358   -1.990965    0.306384
    110          1           0       11.197567   -0.954373   -1.295928
    111          1           0       11.747114    1.217622   -0.043589
    112          1           0       12.477575    0.446139    1.398408
    113          1           0       13.280961    0.481539   -1.529870
    114          1           0       14.865627   -1.018990    0.767877
    115          1           0       14.011947   -1.766520   -0.584343
    116          1           0       15.358645   -0.614363   -0.836033
    117          1           0       13.536887    2.624479   -0.008332
    118          1           0       14.420988    1.803109    0.917229
    119          1           0       16.139072    1.305106   -0.641149
    120          1           0       15.092010    1.674538   -2.127035
    121          1           0       15.092671    4.342074   -0.954946
    122          1           0       16.169759    3.601087    0.305440
    123          1           0       18.140897    3.034267   -1.105511
    124          1           0       16.683838    5.138489   -3.113271
    125          1           0       18.371540    4.064571   -3.295450
    126          1           0       16.657391    3.305367   -3.035938
    127          1           0       17.900382    5.103004    0.225541
    128          1           0       19.162365    5.182076   -1.163264
    129          1           0       17.527361    5.945266   -1.139176
    130          1           0       -5.015086   -7.804780    0.153346
    131          1           0       -6.380222   -7.105191    0.904452
    132          1           0       -4.760562   -6.632264    1.470835
    133          8           0       -7.876937    6.913482   -0.522288
    134          1           0       -9.471192    6.153764   -1.765707
 ---------------------------------------------------------------------

 SCF Done:  E(RCAM-B3LYP) =  -3043.40117538     A.U. after   16 cycles

 Excitation energies and oscillator strengths:

 Excited State   1:      Singlet-A      1.8621 eV  665.82 nm  f=0.2375  <S**2>=0.000
     243 -> 246       -0.21716
     244 -> 245        0.66318
 This state for optimization and/or second-order correction.
 Total Energy, E(TD-HF/TD-KS) =  -3043.33274374
 Copying the excited state density for this state as the 1-particle RhoCI density.

 The electronic state is 1-A.
 Alpha  occ. eigenvalues --  -46.80210 -19.23464 -19.22330 -19.18329 -19.18248
 Alpha  occ. eigenvalues --  -19.16922 -19.16673 -19.16557 -14.39508 -14.37744
 Alpha  occ. eigenvalues --  -14.36896 -14.35912 -10.35388 -10.34804 -10.32334
 Alpha  occ. eigenvalues --  -10.31279 -10.30003 -10.28073 -10.27566 -10.27468
 Alpha  occ. eigenvalues --  -10.27286 -10.27268 -10.27151 -10.27045 -10.26531
 Alpha  occ. eigenvalues --  -10.26483 -10.25934 -10.25879 -10.25814 -10.25646
 Alpha  occ. eigenvalues --  -10.25180 -10.25081 -10.24895 -10.24668 -10.24485
 Alpha  occ. eigenvalues --  -10.24483 -10.24149 -10.23816 -10.23751 -10.23713
 Alpha  occ. eigenvalues --  -10.23415 -10.23347 -10.23185 -10.23098 -10.23094
 Alpha  occ. eigenvalues --  -10.22806 -10.22749 -10.22732 -10.22540 -10.22339
 Alpha  occ. eigenvalues --  -10.21930 -10.21691 -10.21669 -10.21518 -10.21403
 Alpha  occ. eigenvalues --  -10.21222 -10.21072 -10.20984 -10.20789 -10.20450
 Alpha  occ. eigenvalues --  -10.20106 -10.19584 -10.19308 -10.19041 -10.18909
 Alpha  occ. eigenvalues --  -10.18802  -3.09070  -1.83982  -1.83572  -1.83483
 Alpha  occ. eigenvalues --   -1.14249  -1.14188  -1.08715  -1.06655  -1.04206
 Alpha  occ. eigenvalues --   -1.03515  -1.02531  -1.01134  -0.98683  -0.97714
 Alpha  occ. eigenvalues --   -0.96587  -0.88377  -0.87606  -0.86742  -0.85683
 Alpha  occ. eigenvalues --   -0.85492  -0.85122  -0.84944  -0.83716  -0.83054
 Alpha  occ. eigenvalues --   -0.82888  -0.82140  -0.81606  -0.80782  -0.80430
 Alpha  occ. eigenvalues --   -0.79323  -0.78586  -0.77967  -0.77658  -0.76544
 Alpha  occ. eigenvalues --   -0.75108  -0.74642  -0.74268  -0.73691  -0.71948
 Alpha  occ. eigenvalues --   -0.71373  -0.70954  -0.70769  -0.70345  -0.70057
 Alpha  occ. eigenvalues --   -0.69757  -0.68447  -0.67647  -0.66620  -0.66441
 Alpha  occ. eigenvalues --   -0.65883  -0.65150  -0.64670  -0.63049  -0.61861
 Alpha  occ. eigenvalues --   -0.61618  -0.61235  -0.60745  -0.59842  -0.59204
 Alpha  occ. eigenvalues --   -0.58980  -0.58591  -0.57564  -0.57155  -0.57051
 Alpha  occ. eigenvalues --   -0.56438  -0.55844  -0.55245  -0.54742  -0.54377
 Alpha  occ. eigenvalues --   -0.54065  -0.53956  -0.52884  -0.52278  -0.52177
 Alpha  occ. eigenvalues --   -0.51965  -0.51737  -0.51598  -0.51374  -0.51008
 Alpha  occ. eigenvalues --   -0.50292  -0.50154  -0.49784  -0.49522  -0.48822
 Alpha  occ. eigenvalues --   -0.48698  -0.48634  -0.48007  -0.47903  -0.47889
 Alpha  occ. eigenvalues --   -0.47738  -0.47186  -0.47137  -0.47010  -0.46843
 Alpha  occ. eigenvalues --   -0.46615  -0.46335  -0.46161  -0.45932  -0.45853
 Alpha  occ. eigenvalues --   -0.45446  -0.45350  -0.45303  -0.45115  -0.45085
 Alpha  occ. eigenvalues --   -0.44573  -0.44200  -0.44136  -0.43985  -0.43554
 Alpha  occ. eigenvalues --   -0.43197  -0.42931  -0.42829  -0.42500  -0.42251
 Alpha  occ. eigenvalues --   -0.42110  -0.41881  -0.41650  -0.41523  -0.41444
 Alpha  occ. eigenvalues --   -0.41271  -0.41193  -0.41138  -0.40942  -0.40809
 Alpha  occ. eigenvalues --   -0.40658  -0.40416  -0.40290  -0.40143  -0.39925
 Alpha  occ. eigenvalues --   -0.39880  -0.39809  -0.39740  -0.39522  -0.39436
 Alpha  occ. eigenvalues --   -0.39113  -0.39067  -0.38829  -0.38753  -0.38580
 Alpha  occ. eigenvalues --   -0.38428  -0.38372  -0.37904  -0.37386  -0.37237
 Alpha  occ. eigenvalues --   -0.37220  -0.37028  -0.36985  -0.36156  -0.35913
 Alpha  occ. eigenvalues --   -0.35551  -0.35423  -0.35123  -0.34955  -0.34644
 Alpha  occ. eigenvalues --   -0.34530  -0.34301  -0.34093  -0.33658  -0.33491
 Alpha  occ. eigenvalues --   -0.32882  -0.32506  -0.32504  -0.31846  -0.31528
 Alpha  occ. eigenvalues --   -0.31441  -0.31288  -0.30564  -0.29965  -0.29237
 Alpha  occ. eigenvalues --   -0.28717  -0.28152  -0.27947  -0.27888  -0.27659
 Alpha  occ. eigenvalues --   -0.27363  -0.26905  -0.23039  -0.21420
 Alpha virt. eigenvalues --   -0.09392  -0.06467  -0.02268  -0.01808  -0.00091
 Alpha virt. eigenvalues --    0.02795   0.03152   0.03833   0.04136   0.04225
 Alpha virt. eigenvalues --    0.04533   0.05851   0.06610   0.07547   0.08201

 Mulliken charges:
               1
     1  Mg   0.821995
     2  C    0.029247
     3  C   -0.161195
     4  C   -0.178402
     5  C   -0.190311
     6  N   -0.628207
     7  C    0.304436
     8  C   -0.176536
     9  C   -0.156221
    10  C    0.306152
    11  C   -0.317672
    12  C   -0.149680
    13  C   -0.271855
    14  C    0.599937
    15  O   -0.422100
    16  O   -0.465926
    17  N   -0.738632
    18  C    0.336430
    19  C    0.029076
    20  C    0.020480
    21  C    0.302889
    22  C   -0.390699
    23  C    0.207664
    24  O   -0.433627
    25  N   -0.672234
    26  C    0.295542
    27  C    0.031955
    28  C    0.043908
    29  C    0.306258
    30  C    0.207520
    31  C   -0.235866
    32  C   -0.313554
    33  N   -0.704498
    34  C    0.285956
    35  C    0.005717
    36  C    0.030256
    37  C    0.325500
    38  C   -0.345369
    39  C    0.362997
    40  O   -0.434106
    41  C   -0.343227
    42  C    0.639679
    43  O   -0.507191
    44  O   -0.438188
    45  C   -0.094266
    46  C    0.002501
    47  C   -0.137296
    48  C    0.177598
    49  C   -0.388366
    50  C   -0.239739
    51  C   -0.181513
    52  C   -0.150067
    53  C   -0.070660
    54  C   -0.288521
    55  C   -0.155914
    56  C   -0.171112
    57  C   -0.171313
    58  C   -0.063675
    59  C   -0.330031
    60  C   -0.164381
    61  C   -0.169752
    62  C   -0.182220
    63  C   -0.072845
    64  C   -0.264568
    65  C   -0.293680
    66  H    0.085648
    67  H    0.123922
    68  H    0.080526
    69  H    0.137809
    70  H    0.099899
    71  H    0.117414
    72  H    0.112091
    73  H    0.136745
    74  H    0.117695
    75  H    0.128096
    76  H    0.143821
    77  H    0.121910
    78  H    0.094857
    79  H    0.161964
    80  H    0.121112
    81  H    0.073272
    82  H    0.127685
    83  H    0.087217
    84  H    0.117201
    85  H    0.104467
    86  H    0.132203
    87  H    0.099680
    88  H    0.155124
    89  H    0.112505
    90  H    0.164177
    91  H    0.105469
    92  H    0.088086
    93  H    0.082433
    94  H    0.140467
    95  H    0.116258
    96  H    0.112803
    97  H    0.114474
    98  H    0.049537
    99  H    0.094581
   100  H    0.110315
   101  H    0.080057
   102  H    0.097815
   103  H    0.086343
   104  H    0.073687
   105  H    0.119827
   106  H    0.067287
   107  H    0.088853
   108  H    0.084671
   109  H    0.076354
   110  H    0.088448
   111  H    0.069472
   112  H    0.087622
   113  H    0.082849
   114  H    0.099508
   115  H    0.104374
   116  H    0.088244
   117  H    0.084705
   118  H    0.105770
   119  H    0.112964
   120  H    0.070397
   121  H    0.074056
   122  H    0.102400
   123  H    0.082271
   124  H    0.064042
   125  H    0.092429
   126  H    0.108444
   127  H    0.085296
   128  H    0.084061
   129  H    0.112157
   130  H    0.132033
   131  H    0.145708
   132  H    0.134081
   133  O   -0.450289
   134  H    0.084123
 Sum of Mulliken charges =   0.00000

 Dipole moment (field-independent basis, Debye):
    X=              0.8240    Y=             -6.4161    Z=             -1.6325  Tot=              6.6716
 Quadrupole moment (field-independent basis, Debye-Ang):
   XX=           -370.6387   YY=           -444.9299   ZZ=           -396.0140
   XY=             16.5041   XZ=             32.0023   YZ=            -35.7631

 Normal termination of Gaussian 09 at Fri Oct  4 15:22:21 2019.
