 Gaussian 09, Revision D.01,
 Gaussian 09:  ES64L-G09RevD.01 24-Apr-2013

 ----------------------------------------------------------------------
 # td=(NStates=1) iop(3/107=0140000000,3/108=0140000000) iop(3/107=0140
 000000,3/108=0140000000) CAM-B3LYP/6-31G(d,p)
 ----------------------------------------------------------------------

 --
 TD
 --
 Symbolic Z-matrix:
 Charge =  0 Multiplicity = 1

                         Standard orientation:
 ---------------------------------------------------------------------
 Center     Atomic      Atomic             Coordinates (Angstroms)
 Number     Number       Type             X           Y           Z
 ---------------------------------------------------------------------
      1         12           0       -5.638086    1.283052    0.225347
      2          6           0       -5.018177   -2.172857   -0.391376
      3          6           0       -3.243319    1.137653    2.695298
      4          6           0       -6.136940    4.507757    0.657068
      5          6           0       -8.043147    1.229960   -2.349986
      6          7           0       -4.430939   -0.276622    1.074812
      7          6           0       -4.319152   -1.613883    0.603243
      8          6           0       -3.199391   -2.309880    1.352893
      9          6           0       -2.901855   -1.339441    2.495376
     10          6           0       -3.537176   -0.046167    2.081135
     11          6           0       -3.484257   -1.912916    3.860455
     12          6           0       -1.952616   -2.763249    0.547164
     13          6           0       -0.956603   -3.583652    1.367047
     14          6           0        0.341818   -3.918364    0.575023
     15          8           0        0.635866   -3.465559   -0.542184
     16          8           0        1.123429   -4.753091    1.181307
     17          7           0       -4.770375    2.573254    1.391970
     18          6           0       -3.940304    2.397033    2.467523
     19          6           0       -3.662152    3.637087    3.155699
     20          6           0       -4.426485    4.594775    2.583108
     21          6           0       -5.226809    3.912596    1.568269
     22          6           0       -2.703394    3.800167    4.335435
     23          6           0       -4.578610    6.000508    3.016559
     24          8           0       -4.053755    6.520928    4.010838
     25          7           0       -6.835064    2.629863   -0.752911
     26          6           0       -6.836753    3.935667   -0.381441
     27          6           0       -7.778520    4.635307   -1.173879
     28          6           0       -8.316834    3.700121   -2.110642
     29          6           0       -7.748511    2.439517   -1.686448
     30          6           0       -8.321584    6.040729   -1.106658
     31          6           0       -9.383116    3.977114   -3.141552
     32          6           0       -8.666252    4.155595   -4.454935
     33          7           0       -6.423971   -0.089626   -1.067860
     34          6           0       -7.390610   -0.005925   -2.121110
     35          6           0       -7.513377   -1.274984   -2.775648
     36          6           0       -6.715547   -2.165721   -2.107829
     37          6           0       -6.014056   -1.413737   -1.163032
     38          6           0       -8.539463   -1.566216   -3.840136
     39          6           0       -6.241785   -3.526708   -2.035657
     40          8           0       -6.647237   -4.501676   -2.600752
     41          6           0       -5.086450   -3.538255   -0.925820
     42          6           0       -5.391304   -4.600465    0.126342
     43          8           0       -5.748483   -4.354202    1.252685
     44          8           0       -5.191851   -5.828586   -0.340532
     45          6           0       -5.640797   -6.913839    0.534041
     46          6           0        2.402443   -5.191205    0.651532
     47          6           0        3.454973   -4.198771    1.044414
     48          6           0        4.029024   -3.325736    0.170268
     49          6           0        3.722213   -3.157286   -1.233877
     50          6           0        5.105437   -2.498563    0.861820
     51          6           0        6.464455   -2.783198    0.247896
     52          6           0        7.558828   -1.756292    0.759074
     53          6           0        8.920384   -1.937679    0.015082
     54          6           0        9.538580   -3.330477   -0.113357
     55          6           0        9.972480   -0.936106    0.576718
     56          6           0       11.235200   -0.753895   -0.269515
     57          6           0       12.226044    0.353683    0.284493
     58          6           0       13.420080    0.519622   -0.518862
     59          6           0       14.254442   -0.798777   -0.478732
     60          6           0       14.287708    1.863640   -0.096001
     61          6           0       15.420515    2.077955   -1.088232
     62          6           0       16.050508    3.499086   -0.623798
     63          6           0       17.443537    3.876671   -1.475478
     64          6           0       17.011754    4.077090   -2.938798
     65          6           0       18.123593    5.102383   -0.814172
     66          1           0       -2.342563    1.027560    3.240445
     67          1           0       -6.173505    5.673185    0.545357
     68          1           0       -8.925951    1.044738   -3.293927
     69          1           0       -3.802307   -3.401259    1.772736
     70          1           0       -1.791964   -0.995547    2.851584
     71          1           0       -2.859304   -2.888462    4.111188
     72          1           0       -3.128971   -1.236483    4.612551
     73          1           0       -4.557597   -1.827353    3.745272
     74          1           0       -2.360191   -3.390542   -0.365507
     75          1           0       -1.393393   -1.900356    0.137741
     76          1           0       -0.659336   -2.817555    2.114560
     77          1           0       -1.216151   -4.599358    1.833436
     78          1           0       -1.657158    3.566362    4.040154
     79          1           0       -2.794765    4.718073    4.698838
     80          1           0       -2.989314    3.246741    5.211025
     81          1           0       -5.476191    6.621555    2.666576
     82          1           0       -9.883157    3.129859   -3.123583
     83          1           0      -10.209973    4.629239   -2.688654
     84          1           0       -9.292149    4.054245   -5.349111
     85          1           0       -8.069977    4.957111   -4.484770
     86          1           0       -7.966943    3.371595   -4.744484
     87          1           0       -8.707894   -0.902519   -4.728760
     88          1           0       -8.331534   -2.568724   -3.994586
     89          1           0       -9.504998   -1.498118   -3.495473
     90          1           0       -4.283369   -3.891793   -1.359699
     91          1           0        2.457651   -6.247435    0.975366
     92          1           0        2.363648   -5.163495   -0.498402
     93          1           0        3.584152   -4.387193    2.020364
     94          1           0        2.618746   -3.317756   -1.408087
     95          1           0        3.829140   -2.013503   -1.582729
     96          1           0        4.480368   -3.876066   -1.686608
     97          1           0        4.885737   -1.383889    0.659555
     98          1           0        5.032522   -2.594028    1.917449
     99          1           0        6.755132   -3.962686    0.359440
    100          1           0        6.355348   -2.702488   -0.954565
    101          1           0        7.325407   -0.780189    0.696809
    102          1           0        7.819106   -2.077347    1.855722
    103          1           0        8.740805   -1.427761   -1.023318
    104          1           0        8.819529   -4.211058   -0.618788
    105          1           0       10.617020   -3.332656   -0.594254
    106          1           0        9.864366   -3.878578    0.975246
    107          1           0        9.506441    0.093484    0.765242
    108          1           0       10.541439   -1.300835    1.690703
    109          1           0       11.661919   -1.704430   -0.206854
    110          1           0       10.810588   -0.655017   -1.188826
    111          1           0       11.494904    1.156144    0.237993
    112          1           0       12.642033   -0.021654    1.270123
    113          1           0       13.074854    0.873287   -1.612928
    114          1           0       14.590032   -1.042464    0.464934
    115          1           0       13.522514   -1.562772   -0.967929
    116          1           0       15.165550   -0.801970   -1.125370
    117          1           0       13.620847    2.708270   -0.248548
    118          1           0       14.717734    1.862838    0.889904
    119          1           0       16.181784    1.521325   -1.211406
    120          1           0       15.074491    2.264134   -2.073928
    121          1           0       15.211492    4.390305   -0.726510
    122          1           0       16.317297    3.495356    0.403940
    123          1           0       18.064896    2.891157   -1.440704
    124          1           0       16.128747    4.636093   -2.941039
    125          1           0       17.976881    4.318131   -3.400336
    126          1           0       16.650336    3.249402   -3.454330
    127          1           0       18.437231    4.832862    0.194389
    128          1           0       18.908146    5.451428   -1.254621
    129          1           0       17.258838    5.925903   -0.837515
    130          1           0       -5.361772   -7.885831   -0.078343
    131          1           0       -6.658675   -6.964830    0.755943
    132          1           0       -5.106607   -6.965473    1.577231
    133          8           0       -7.879282    6.884901   -0.364261
    134          1           0       -9.043982    6.367860   -1.826379
 ---------------------------------------------------------------------

 SCF Done:  E(RCAM-B3LYP) =  -3043.44271566     A.U. after   15 cycles

 Excitation energies and oscillator strengths:

 Excited State   1:      Singlet-A      2.0197 eV  613.89 nm  f=0.1857  <S**2>=0.000
     243 -> 246       -0.25133
     244 -> 245        0.64439
 This state for optimization and/or second-order correction.
 Total Energy, E(TD-HF/TD-KS) =  -3043.36849456
 Copying the excited state density for this state as the 1-particle RhoCI density.

 The electronic state is 1-A.
 Alpha  occ. eigenvalues --  -46.80548 -19.23595 -19.21988 -19.17641 -19.17305
 Alpha  occ. eigenvalues --  -19.17135 -19.17035 -19.15429 -14.38041 -14.37527
 Alpha  occ. eigenvalues --  -14.36682 -14.36488 -10.35071 -10.34396 -10.31761
 Alpha  occ. eigenvalues --  -10.30950 -10.30198 -10.28831 -10.27468 -10.27364
 Alpha  occ. eigenvalues --  -10.27162 -10.27029 -10.26930 -10.26604 -10.26338
 Alpha  occ. eigenvalues --  -10.26068 -10.26025 -10.25789 -10.25357 -10.24911
 Alpha  occ. eigenvalues --  -10.24563 -10.24454 -10.24416 -10.24223 -10.24142
 Alpha  occ. eigenvalues --  -10.24117 -10.23932 -10.23772 -10.23764 -10.23718
 Alpha  occ. eigenvalues --  -10.23419 -10.23230 -10.23192 -10.23017 -10.22580
 Alpha  occ. eigenvalues --  -10.22566 -10.22518 -10.22490 -10.22306 -10.22282
 Alpha  occ. eigenvalues --  -10.22092 -10.22062 -10.21740 -10.21653 -10.21585
 Alpha  occ. eigenvalues --  -10.21350 -10.21127 -10.20768 -10.20573 -10.20557
 Alpha  occ. eigenvalues --  -10.20504 -10.20201 -10.19824 -10.19005 -10.18829
 Alpha  occ. eigenvalues --  -10.18679  -3.09302  -1.84229  -1.83795  -1.83710
 Alpha  occ. eigenvalues --   -1.14444  -1.13955  -1.08564  -1.07376  -1.05785
 Alpha  occ. eigenvalues --   -1.05267  -1.02483  -1.01238  -0.99379  -0.98775
 Alpha  occ. eigenvalues --   -0.97732  -0.88928  -0.86284  -0.85641  -0.85135
 Alpha  occ. eigenvalues --   -0.84559  -0.84300  -0.84194  -0.83789  -0.83430
 Alpha  occ. eigenvalues --   -0.82811  -0.82033  -0.81079  -0.80311  -0.79450
 Alpha  occ. eigenvalues --   -0.79101  -0.78382  -0.77962  -0.77222  -0.76813
 Alpha  occ. eigenvalues --   -0.75550  -0.74706  -0.73890  -0.73193  -0.72340
 Alpha  occ. eigenvalues --   -0.71982  -0.71181  -0.70306  -0.69831  -0.69775
 Alpha  occ. eigenvalues --   -0.69240  -0.68061  -0.67875  -0.66955  -0.66592
 Alpha  occ. eigenvalues --   -0.65485  -0.64208  -0.64083  -0.62877  -0.62166
 Alpha  occ. eigenvalues --   -0.61082  -0.60557  -0.59754  -0.59219  -0.58409
 Alpha  occ. eigenvalues --   -0.58266  -0.57712  -0.57319  -0.56879  -0.56758
 Alpha  occ. eigenvalues --   -0.56203  -0.56071  -0.55653  -0.55036  -0.54720
 Alpha  occ. eigenvalues --   -0.54147  -0.53406  -0.53101  -0.52588  -0.52031
 Alpha  occ. eigenvalues --   -0.51896  -0.51567  -0.51471  -0.50657  -0.50196
 Alpha  occ. eigenvalues --   -0.49897  -0.49701  -0.49499  -0.49037  -0.48856
 Alpha  occ. eigenvalues --   -0.48611  -0.48443  -0.48355  -0.47859  -0.47824
 Alpha  occ. eigenvalues --   -0.47562  -0.47237  -0.47031  -0.46925  -0.46836
 Alpha  occ. eigenvalues --   -0.46471  -0.46287  -0.46193  -0.46032  -0.45894
 Alpha  occ. eigenvalues --   -0.45690  -0.45381  -0.45250  -0.45206  -0.44844
 Alpha  occ. eigenvalues --   -0.44599  -0.44437  -0.44273  -0.44177  -0.43850
 Alpha  occ. eigenvalues --   -0.43814  -0.43515  -0.43134  -0.42752  -0.42706
 Alpha  occ. eigenvalues --   -0.42469  -0.42363  -0.42154  -0.41983  -0.41865
 Alpha  occ. eigenvalues --   -0.41702  -0.41607  -0.41186  -0.41118  -0.40922
 Alpha  occ. eigenvalues --   -0.40706  -0.40679  -0.40530  -0.40352  -0.40031
 Alpha  occ. eigenvalues --   -0.39884  -0.39700  -0.39417  -0.39342  -0.39129
 Alpha  occ. eigenvalues --   -0.38974  -0.38659  -0.38168  -0.38149  -0.37994
 Alpha  occ. eigenvalues --   -0.37729  -0.37397  -0.37387  -0.37191  -0.36768
 Alpha  occ. eigenvalues --   -0.36352  -0.36275  -0.36176  -0.35743  -0.35595
 Alpha  occ. eigenvalues --   -0.35338  -0.35259  -0.34936  -0.34825  -0.34192
 Alpha  occ. eigenvalues --   -0.33982  -0.33696  -0.33332  -0.33287  -0.33261
 Alpha  occ. eigenvalues --   -0.32994  -0.32272  -0.32065  -0.31696  -0.31176
 Alpha  occ. eigenvalues --   -0.31163  -0.30692  -0.29678  -0.29220  -0.29043
 Alpha  occ. eigenvalues --   -0.28584  -0.28393  -0.28186  -0.27996  -0.27663
 Alpha  occ. eigenvalues --   -0.27470  -0.26824  -0.22926  -0.21885
 Alpha virt. eigenvalues --   -0.08917  -0.06348  -0.01347  -0.01014   0.00864
 Alpha virt. eigenvalues --    0.03349   0.03707   0.04080   0.04484   0.04561
 Alpha virt. eigenvalues --    0.05009   0.05454   0.07113   0.08135   0.08640

 Mulliken charges:
               1
     1  Mg   0.822012
     2  C    0.125050
     3  C   -0.192140
     4  C   -0.188554
     5  C   -0.168240
     6  N   -0.657763
     7  C    0.302661
     8  C   -0.154676
     9  C   -0.177843
    10  C    0.379887
    11  C   -0.287445
    12  C   -0.159173
    13  C   -0.253126
    14  C    0.582783
    15  O   -0.498366
    16  O   -0.432406
    17  N   -0.675109
    18  C    0.299102
    19  C    0.023884
    20  C    0.007932
    21  C    0.251787
    22  C   -0.369312
    23  C    0.225016
    24  O   -0.409628
    25  N   -0.702623
    26  C    0.328930
    27  C   -0.053085
    28  C   -0.013806
    29  C    0.302533
    30  C    0.249819
    31  C   -0.216669
    32  C   -0.328709
    33  N   -0.708455
    34  C    0.277046
    35  C   -0.008934
    36  C    0.080887
    37  C    0.248747
    38  C   -0.386426
    39  C    0.344040
    40  O   -0.438959
    41  C   -0.325259
    42  C    0.614920
    43  O   -0.469820
    44  O   -0.430657
    45  C   -0.096044
    46  C   -0.027424
    47  C   -0.102660
    48  C    0.130177
    49  C   -0.386520
    50  C   -0.202656
    51  C   -0.170853
    52  C   -0.151322
    53  C   -0.041129
    54  C   -0.292287
    55  C   -0.165735
    56  C   -0.191003
    57  C   -0.141320
    58  C   -0.049890
    59  C   -0.320850
    60  C   -0.177224
    61  C   -0.164732
    62  C   -0.193756
    63  C   -0.076552
    64  C   -0.300600
    65  C   -0.290913
    66  H    0.082679
    67  H    0.141223
    68  H    0.088150
    69  H    0.104062
    70  H    0.077179
    71  H    0.106349
    72  H    0.107790
    73  H    0.135664
    74  H    0.092213
    75  H    0.128211
    76  H    0.135554
    77  H    0.126113
    78  H    0.119788
    79  H    0.156890
    80  H    0.125263
    81  H    0.091367
    82  H    0.118445
    83  H    0.110797
    84  H    0.103921
    85  H    0.133146
    86  H    0.119150
    87  H    0.119362
    88  H    0.147459
    89  H    0.143224
    90  H    0.157531
    91  H    0.114953
    92  H    0.112422
    93  H    0.084698
    94  H    0.172675
    95  H    0.098097
    96  H    0.124241
    97  H    0.081332
    98  H    0.106665
    99  H    0.080483
   100  H    0.075857
   101  H    0.104457
   102  H    0.088518
   103  H    0.075315
   104  H    0.082362
   105  H    0.103220
   106  H    0.072777
   107  H    0.071077
   108  H    0.033124
   109  H    0.104824
   110  H    0.093905
   111  H    0.091023
   112  H    0.084093
   113  H    0.055093
   114  H    0.114305
   115  H    0.099308
   116  H    0.098427
   117  H    0.095513
   118  H    0.091284
   119  H    0.101997
   120  H    0.094189
   121  H    0.053770
   122  H    0.091295
   123  H    0.066604
   124  H    0.107451
   125  H    0.096402
   126  H    0.106033
   127  H    0.103495
   128  H    0.111297
   129  H    0.084891
   130  H    0.118529
   131  H    0.151066
   132  H    0.121287
   133  O   -0.413511
   134  H    0.077067
 Sum of Mulliken charges =   0.00000

 Dipole moment (field-independent basis, Debye):
    X=              1.0689    Y=             -4.6724    Z=             -1.3791  Tot=              4.9876
 Quadrupole moment (field-independent basis, Debye-Ang):
   XX=           -360.8097   YY=           -431.9437   ZZ=           -397.2097
   XY=              5.2136   XZ=             25.5107   YZ=            -35.6306

 Normal termination of Gaussian 09 at Tue Oct  8 05:26:22 2019.
