 Gaussian 09, Revision D.01,
 Gaussian 09:  ES64L-G09RevD.01 24-Apr-2013

 ----------------------------------------------------------------------
 # td=(NStates=1) iop(3/107=0140000000,3/108=0140000000) iop(3/107=0140
 000000,3/108=0140000000) CAM-B3LYP/6-31G(d,p)
 ----------------------------------------------------------------------

 --
 TD
 --
 Symbolic Z-matrix:
 Charge =  0 Multiplicity = 1

                         Standard orientation:
 ---------------------------------------------------------------------
 Center     Atomic      Atomic             Coordinates (Angstroms)
 Number     Number       Type             X           Y           Z
 ---------------------------------------------------------------------
      1         12           0       -5.678359    1.217130    0.175556
      2          6           0       -5.088488   -2.203356   -0.238225
      3          6           0       -3.258674    1.230339    2.754740
      4          6           0       -6.185002    4.548664    0.612359
      5          6           0       -7.923177    1.169810   -2.363293
      6          7           0       -4.407713   -0.309043    1.119457
      7          6           0       -4.318708   -1.626294    0.764405
      8          6           0       -3.213549   -2.382523    1.477337
      9          6           0       -2.983548   -1.342075    2.692672
     10          6           0       -3.612513   -0.027642    2.228205
     11          6           0       -3.506328   -1.739684    4.069768
     12          6           0       -1.939336   -2.668326    0.582279
     13          6           0       -0.980228   -3.486519    1.499377
     14          6           0        0.270385   -3.834893    0.553201
     15          8           0        0.496787   -3.434779   -0.546520
     16          8           0        1.134416   -4.634650    1.228418
     17          7           0       -4.848331    2.584782    1.447662
     18          6           0       -3.963168    2.419070    2.439997
     19          6           0       -3.684000    3.666278    3.124732
     20          6           0       -4.467654    4.583593    2.519731
     21          6           0       -5.203400    3.968679    1.500821
     22          6           0       -2.852039    3.811438    4.428386
     23          6           0       -4.715921    6.007818    2.811073
     24          8           0       -4.055973    6.696823    3.641713
     25          7           0       -7.055181    2.608087   -0.653642
     26          6           0       -7.021124    3.944421   -0.417240
     27          6           0       -8.065244    4.543805   -1.219285
     28          6           0       -8.523308    3.644368   -2.166914
     29          6           0       -7.718657    2.395125   -1.763488
     30          6           0       -8.456004    5.897255   -1.306988
     31          6           0       -9.554679    3.752787   -3.175224
     32          6           0       -8.808496    4.101847   -4.486387
     33          7           0       -6.379966   -0.136156   -1.104925
     34          6           0       -7.374814   -0.045669   -2.108711
     35          6           0       -7.595566   -1.370239   -2.705752
     36          6           0       -6.731729   -2.183440   -1.993276
     37          6           0       -6.007965   -1.453161   -1.025109
     38          6           0       -8.645827   -1.675709   -3.827105
     39          6           0       -6.241743   -3.645107   -1.906062
     40          8           0       -6.615084   -4.613098   -2.519078
     41          6           0       -5.076855   -3.612250   -0.793310
     42          6           0       -5.396093   -4.663856    0.191231
     43          8           0       -5.681671   -4.381636    1.321630
     44          8           0       -5.089634   -5.936484   -0.330875
     45          6           0       -5.380964   -6.941596    0.695311
     46          6           0        2.378440   -5.008410    0.593872
     47          6           0        3.442355   -3.986147    0.914122
     48          6           0        4.065491   -3.279052   -0.043767
     49          6           0        3.817921   -3.158306   -1.500424
     50          6           0        5.213954   -2.349165    0.402161
     51          6           0        6.579156   -2.673543   -0.061421
     52          6           0        7.728340   -1.916105    0.568856
     53          6           0        9.070317   -1.981083    0.000863
     54          6           0        9.762894   -3.363500    0.194337
     55          6           0       10.053247   -0.853703    0.558544
     56          6           0       11.256935   -0.698854   -0.345464
     57          6           0       12.143984    0.493249    0.091784
     58          6           0       13.448761    0.516405   -0.665311
     59          6           0       14.333168   -0.750956   -0.552875
     60          6           0       14.212508    1.784756   -0.160960
     61          6           0       15.606097    2.073264   -0.851149
     62          6           0       16.155241    3.571712   -0.593540
     63          6           0       17.569424    3.834697   -1.162708
     64          6           0       17.580666    3.690220   -2.648537
     65          6           0       17.891754    5.278794   -0.718111
     66          1           0       -2.550530    1.365766    3.589941
     67          1           0       -6.682202    5.494469    0.958556
     68          1           0       -8.728708    1.323469   -3.144569
     69          1           0       -3.582635   -3.348327    1.850652
     70          1           0       -1.770707   -1.185974    2.828292
     71          1           0       -3.234045   -2.638882    4.523271
     72          1           0       -3.390818   -0.908422    4.785226
     73          1           0       -4.563804   -2.036786    4.182310
     74          1           0       -2.191985   -3.412334   -0.300943
     75          1           0       -1.546578   -1.746627    0.266936
     76          1           0       -0.604028   -2.979296    2.297032
     77          1           0       -1.517709   -4.468927    1.949874
     78          1           0       -1.770898    3.830572    4.011531
     79          1           0       -2.773074    4.853695    4.810895
     80          1           0       -3.200424    3.284097    5.318202
     81          1           0       -5.810457    6.508469    2.153868
     82          1           0      -10.206306    2.938457   -3.414492
     83          1           0      -10.278001    4.597878   -3.033667
     84          1           0       -9.277232    4.396851   -5.340932
     85          1           0       -8.028039    4.970395   -4.503821
     86          1           0       -8.163067    3.393568   -4.746141
     87          1           0       -8.394521   -0.879694   -4.629015
     88          1           0       -8.324091   -2.874243   -4.015634
     89          1           0       -9.515039   -1.627495   -3.176342
     90          1           0       -4.157084   -3.775746   -1.372043
     91          1           0        2.486250   -6.042839    1.046313
     92          1           0        2.176535   -5.006930   -0.398929
     93          1           0        3.863046   -4.026796    2.032810
     94          1           0        2.734928   -3.659355   -1.610583
     95          1           0        3.677716   -2.022346   -2.107800
     96          1           0        4.681928   -3.797212   -1.991941
     97          1           0        4.967137   -1.367559    0.012099
     98          1           0        5.274287   -2.138783    1.422386
     99          1           0        6.652947   -3.737478   -0.063678
    100          1           0        6.570580   -2.453529   -1.001055
    101          1           0        7.466657   -0.774816    0.534536
    102          1           0        7.809335   -2.158646    1.642324
    103          1           0        9.086437   -1.900472   -1.099009
    104          1           0        9.020068   -4.093817   -0.437494
    105          1           0       10.913555   -3.423633   -0.352230
    106          1           0        9.567725   -3.760176    1.283971
    107          1           0        9.225123    0.109631    0.762884
    108          1           0       10.184190   -1.055129    1.559476
    109          1           0       11.876007   -1.524449   -0.353201
    110          1           0       10.923444   -0.559484   -1.439551
    111          1           0       11.641851    1.489324   -0.077080
    112          1           0       12.406272    0.508274    1.212367
    113          1           0       13.214223    0.612776   -1.670234
    114          1           0       14.806978   -0.766269    0.442490
    115          1           0       13.784595   -1.782363   -0.596230
    116          1           0       15.168897   -0.728567   -1.328818
    117          1           0       13.598024    2.661193   -0.156243
    118          1           0       14.280162    1.760661    0.942097
    119          1           0       16.351396    1.261509   -0.760144
    120          1           0       15.347135    1.944397   -1.973436
    121          1           0       15.413447    4.292181   -0.918621
    122          1           0       16.223704    3.433040    0.618544
    123          1           0       18.415749    3.039646   -0.840569
    124          1           0       16.898301    4.412215   -3.144771
    125          1           0       18.505521    3.889256   -3.105160
    126          1           0       17.252178    2.705626   -2.863662
    127          1           0       17.910180    5.416711    0.280772
    128          1           0       18.811408    5.695586   -1.202612
    129          1           0       17.008479    5.922257   -1.373804
    130          1           0       -5.256060   -7.839024    0.083407
    131          1           0       -6.445501   -6.696891    1.105679
    132          1           0       -4.638907   -6.859632    1.641501
    133          8           0       -7.912326    6.791754   -0.577010
    134          1           0       -9.344791    6.160885   -1.935741
 ---------------------------------------------------------------------

 SCF Done:  E(RCAM-B3LYP) =  -3043.46529666     A.U. after   16 cycles

 Excitation energies and oscillator strengths:

 Excited State   1:      Singlet-A      2.0311 eV  610.43 nm  f=0.1685  <S**2>=0.000
     243 -> 246       -0.27995
     244 -> 245        0.63973
 This state for optimization and/or second-order correction.
 Total Energy, E(TD-HF/TD-KS) =  -3043.39065531
 Copying the excited state density for this state as the 1-particle RhoCI density.

 The electronic state is 1-A.
 Alpha  occ. eigenvalues --  -46.81866 -19.22950 -19.21027 -19.18812 -19.18560
 Alpha  occ. eigenvalues --  -19.17656 -19.17534 -19.16023 -14.38846 -14.37142
 Alpha  occ. eigenvalues --  -14.36968 -14.36488 -10.35628 -10.34964 -10.32736
 Alpha  occ. eigenvalues --  -10.32038 -10.29687 -10.28928 -10.27910 -10.27349
 Alpha  occ. eigenvalues --  -10.26907 -10.26794 -10.26710 -10.26299 -10.26174
 Alpha  occ. eigenvalues --  -10.26100 -10.25911 -10.25697 -10.25599 -10.25492
 Alpha  occ. eigenvalues --  -10.25309 -10.25249 -10.24732 -10.24700 -10.24658
 Alpha  occ. eigenvalues --  -10.24593 -10.24322 -10.24192 -10.24125 -10.24075
 Alpha  occ. eigenvalues --  -10.23847 -10.23736 -10.23579 -10.23201 -10.23005
 Alpha  occ. eigenvalues --  -10.22875 -10.22832 -10.22748 -10.22690 -10.22565
 Alpha  occ. eigenvalues --  -10.22364 -10.21671 -10.21631 -10.21451 -10.21387
 Alpha  occ. eigenvalues --  -10.21351 -10.21288 -10.21101 -10.21073 -10.20980
 Alpha  occ. eigenvalues --  -10.20959 -10.20857 -10.20605 -10.19895 -10.18980
 Alpha  occ. eigenvalues --  -10.18876  -3.10316  -1.85265  -1.84796  -1.84708
 Alpha  occ. eigenvalues --   -1.13354  -1.13122  -1.08577  -1.05940  -1.05183
 Alpha  occ. eigenvalues --   -1.03987  -1.03076  -1.01126  -0.99729  -0.99140
 Alpha  occ. eigenvalues --   -0.98122  -0.88333  -0.86722  -0.86487  -0.85194
 Alpha  occ. eigenvalues --   -0.84568  -0.84204  -0.84094  -0.83679  -0.83383
 Alpha  occ. eigenvalues --   -0.83107  -0.82583  -0.81130  -0.80573  -0.79816
 Alpha  occ. eigenvalues --   -0.79178  -0.78060  -0.77368  -0.76661  -0.76120
 Alpha  occ. eigenvalues --   -0.74720  -0.74469  -0.73483  -0.72429  -0.71715
 Alpha  occ. eigenvalues --   -0.71381  -0.70428  -0.70143  -0.69938  -0.69288
 Alpha  occ. eigenvalues --   -0.68835  -0.68600  -0.67983  -0.67275  -0.66442
 Alpha  occ. eigenvalues --   -0.65553  -0.64823  -0.63810  -0.62964  -0.61512
 Alpha  occ. eigenvalues --   -0.61089  -0.60770  -0.60744  -0.59264  -0.59014
 Alpha  occ. eigenvalues --   -0.58963  -0.58386  -0.58020  -0.57462  -0.56137
 Alpha  occ. eigenvalues --   -0.55875  -0.55708  -0.55269  -0.55033  -0.54243
 Alpha  occ. eigenvalues --   -0.53945  -0.53262  -0.53138  -0.52568  -0.51426
 Alpha  occ. eigenvalues --   -0.51234  -0.51069  -0.50598  -0.50470  -0.50108
 Alpha  occ. eigenvalues --   -0.50050  -0.49682  -0.49385  -0.49285  -0.49054
 Alpha  occ. eigenvalues --   -0.48922  -0.48546  -0.48137  -0.48038  -0.47998
 Alpha  occ. eigenvalues --   -0.47408  -0.47222  -0.47078  -0.46893  -0.46745
 Alpha  occ. eigenvalues --   -0.46603  -0.46538  -0.46153  -0.45886  -0.45630
 Alpha  occ. eigenvalues --   -0.45222  -0.45116  -0.44997  -0.44738  -0.44628
 Alpha  occ. eigenvalues --   -0.44460  -0.44174  -0.44081  -0.43923  -0.43558
 Alpha  occ. eigenvalues --   -0.43183  -0.43053  -0.42837  -0.42784  -0.42503
 Alpha  occ. eigenvalues --   -0.42479  -0.42100  -0.42022  -0.41883  -0.41688
 Alpha  occ. eigenvalues --   -0.41543  -0.41214  -0.41118  -0.40797  -0.40470
 Alpha  occ. eigenvalues --   -0.40369  -0.40272  -0.40237  -0.40186  -0.39884
 Alpha  occ. eigenvalues --   -0.39837  -0.39750  -0.39449  -0.39224  -0.39074
 Alpha  occ. eigenvalues --   -0.39051  -0.38853  -0.38650  -0.38379  -0.38110
 Alpha  occ. eigenvalues --   -0.38042  -0.37704  -0.37505  -0.37152  -0.37083
 Alpha  occ. eigenvalues --   -0.36834  -0.36789  -0.35923  -0.35514  -0.35348
 Alpha  occ. eigenvalues --   -0.35257  -0.34834  -0.34795  -0.34599  -0.34506
 Alpha  occ. eigenvalues --   -0.34186  -0.34010  -0.33722  -0.33642  -0.33572
 Alpha  occ. eigenvalues --   -0.33456  -0.32675  -0.32251  -0.32008  -0.31976
 Alpha  occ. eigenvalues --   -0.31750  -0.31486  -0.30944  -0.29971  -0.29664
 Alpha  occ. eigenvalues --   -0.28837  -0.28287  -0.28222  -0.27942  -0.27834
 Alpha  occ. eigenvalues --   -0.27360  -0.26957  -0.22748  -0.21604
 Alpha virt. eigenvalues --   -0.08419  -0.06298  -0.01610  -0.01226   0.00290
 Alpha virt. eigenvalues --    0.02387   0.02893   0.03586   0.03958   0.04125
 Alpha virt. eigenvalues --    0.04628   0.05340   0.07660   0.08225   0.08993

 Mulliken charges:
               1
     1  Mg   0.829660
     2  C    0.086221
     3  C   -0.174411
     4  C   -0.170344
     5  C   -0.198766
     6  N   -0.642003
     7  C    0.322466
     8  C   -0.153793
     9  C   -0.152605
    10  C    0.335633
    11  C   -0.322652
    12  C   -0.157891
    13  C   -0.256849
    14  C    0.583310
    15  O   -0.451524
    16  O   -0.471787
    17  N   -0.702378
    18  C    0.319401
    19  C    0.009054
    20  C    0.045306
    21  C    0.270043
    22  C   -0.395636
    23  C    0.238746
    24  O   -0.428056
    25  N   -0.639402
    26  C    0.263974
    27  C   -0.010706
    28  C    0.073201
    29  C    0.288280
    30  C    0.217033
    31  C   -0.274509
    32  C   -0.336367
    33  N   -0.766384
    34  C    0.300979
    35  C   -0.019900
    36  C   -0.014523
    37  C    0.329812
    38  C   -0.346901
    39  C    0.368584
    40  O   -0.431416
    41  C   -0.346769
    42  C    0.648511
    43  O   -0.448947
    44  O   -0.467516
    45  C   -0.083204
    46  C    0.001272
    47  C   -0.122388
    48  C    0.134149
    49  C   -0.355727
    50  C   -0.229515
    51  C   -0.161071
    52  C   -0.177661
    53  C   -0.049389
    54  C   -0.290898
    55  C   -0.147203
    56  C   -0.175635
    57  C   -0.174030
    58  C   -0.045463
    59  C   -0.318286
    60  C   -0.183387
    61  C   -0.199983
    62  C   -0.148242
    63  C   -0.055726
    64  C   -0.300159
    65  C   -0.277998
    66  H    0.098056
    67  H    0.135352
    68  H    0.078092
    69  H    0.119431
    70  H    0.079741
    71  H    0.116631
    72  H    0.111320
    73  H    0.117515
    74  H    0.109355
    75  H    0.132277
    76  H    0.148354
    77  H    0.115795
    78  H    0.125615
    79  H    0.155419
    80  H    0.137831
    81  H    0.051116
    82  H    0.131218
    83  H    0.122243
    84  H    0.117759
    85  H    0.099686
    86  H    0.128784
    87  H    0.134557
    88  H    0.136579
    89  H    0.154449
    90  H    0.173155
    91  H    0.114918
    92  H    0.119630
    93  H    0.084744
    94  H    0.128850
    95  H    0.101032
    96  H    0.117071
    97  H    0.095244
    98  H    0.092905
    99  H    0.092318
   100  H    0.107703
   101  H    0.075981
   102  H    0.085434
   103  H    0.080491
   104  H    0.074930
   105  H    0.082110
   106  H    0.092603
   107  H    0.036153
   108  H    0.105075
   109  H    0.106163
   110  H    0.087190
   111  H    0.090731
   112  H    0.077810
   113  H    0.093638
   114  H    0.105852
   115  H    0.087391
   116  H    0.100408
   117  H    0.090749
   118  H    0.080707
   119  H    0.096388
   120  H    0.074654
   121  H    0.103146
   122  H    0.072197
   123  H    0.066992
   124  H    0.086662
   125  H    0.105203
   126  H    0.108137
   127  H    0.116179
   128  H    0.091992
   129  H    0.057035
   130  H    0.135076
   131  H    0.133059
   132  H    0.109167
   133  O   -0.458179
   134  H    0.076493
 Sum of Mulliken charges =   0.00000

 Dipole moment (field-independent basis, Debye):
    X=              1.2095    Y=             -6.0521    Z=             -1.2474  Tot=              6.2965
 Quadrupole moment (field-independent basis, Debye-Ang):
   XX=           -366.2882   YY=           -451.5191   ZZ=           -387.4136
   XY=             14.7084   XZ=             19.8628   YZ=            -35.0918

 Normal termination of Gaussian 09 at Wed Oct  9 08:09:46 2019.
