 Gaussian 09, Revision D.01,
 Gaussian 09:  ES64L-G09RevD.01 24-Apr-2013

 ----------------------------------------------------------------------
 # td=(NStates=1) iop(3/107=0140000000,3/108=0140000000) iop(3/107=0140
 000000,3/108=0140000000) CAM-B3LYP/6-31G(d,p)
 ----------------------------------------------------------------------

 --
 TD
 --
 Symbolic Z-matrix:
 Charge =  0 Multiplicity = 1

                         Standard orientation:
 ---------------------------------------------------------------------
 Center     Atomic      Atomic             Coordinates (Angstroms)
 Number     Number       Type             X           Y           Z
 ---------------------------------------------------------------------
      1         12           0       -5.535183    1.293313    0.212774
      2          6           0       -4.996300   -2.115841   -0.387682
      3          6           0       -3.382266    1.246255    2.748395
      4          6           0       -6.273979    4.579442    0.642582
      5          6           0       -7.982049    1.153833   -2.338438
      6          7           0       -4.422584   -0.228752    1.003959
      7          6           0       -4.240374   -1.595089    0.705987
      8          6           0       -3.198825   -2.278094    1.460490
      9          6           0       -2.923644   -1.263622    2.585622
     10          6           0       -3.627844   -0.040232    2.136893
     11          6           0       -3.477469   -1.722208    3.949753
     12          6           0       -1.939314   -2.686343    0.650111
     13          6           0       -0.959640   -3.653938    1.398315
     14          6           0        0.261641   -3.957607    0.603760
     15          8           0        0.552696   -3.400642   -0.452874
     16          8           0        0.954203   -4.813357    1.322607
     17          7           0       -4.925969    2.651958    1.446272
     18          6           0       -4.037150    2.436768    2.448257
     19          6           0       -3.761692    3.627835    3.253613
     20          6           0       -4.510482    4.630260    2.637040
     21          6           0       -5.249605    3.988939    1.532723
     22          6           0       -2.668107    3.660196    4.394072
     23          6           0       -4.608140    6.048982    2.904892
     24          8           0       -4.036973    6.582012    3.815163
     25          7           0       -6.900354    2.645483   -0.611194
     26          6           0       -6.979167    3.960104   -0.416515
     27          6           0       -8.032435    4.605438   -1.215086
     28          6           0       -8.434185    3.648023   -2.041798
     29          6           0       -7.757134    2.421989   -1.584768
     30          6           0       -8.217693    6.064911   -1.179165
     31          6           0       -9.437508    3.845578   -3.162666
     32          6           0       -8.768793    3.811472   -4.546974
     33          7           0       -6.290426   -0.096550   -1.206103
     34          6           0       -7.318023    0.007871   -2.101528
     35          6           0       -7.529961   -1.333768   -2.824992
     36          6           0       -6.634607   -2.186834   -2.200751
     37          6           0       -5.912490   -1.382766   -1.223067
     38          6           0       -8.521342   -1.676092   -3.784763
     39          6           0       -6.189553   -3.519873   -1.971648
     40          8           0       -6.615854   -4.580872   -2.539647
     41          6           0       -5.016336   -3.512301   -0.908779
     42          6           0       -5.208073   -4.652059    0.056451
     43          8           0       -5.666551   -4.467888    1.143810
     44          8           0       -4.889446   -5.887917   -0.462330
     45          6           0       -5.171927   -7.008603    0.403064
     46          6           0        2.347290   -5.096715    0.799525
     47          6           0        3.462717   -4.185099    1.115779
     48          6           0        4.044168   -3.297866    0.240217
     49          6           0        3.754862   -3.236601   -1.228214
     50          6           0        5.176430   -2.471942    0.852448
     51          6           0        6.568370   -2.697564    0.187535
     52          6           0        7.692668   -1.881861    0.706986
     53          6           0        8.995464   -2.110594   -0.031642
     54          6           0        9.529905   -3.502647    0.093166
     55          6           0        9.921697   -0.897719    0.439933
     56          6           0       11.316573   -0.883414   -0.253621
     57          6           0       12.081188    0.329300    0.071703
     58          6           0       13.420493    0.522415   -0.621129
     59          6           0       14.270019   -0.763043   -0.516846
     60          6           0       14.089162    1.852503   -0.246603
     61          6           0       15.316761    2.300665   -1.154082
     62          6           0       15.877790    3.604060   -0.653518
     63          6           0       17.237130    4.073964   -1.333016
     64          6           0       17.026598    4.083873   -2.859698
     65          6           0       17.811379    5.359315   -0.754695
     66          1           0       -2.603209    1.144736    3.620887
     67          1           0       -6.421729    5.582878    0.631151
     68          1           0       -8.816020    1.312392   -3.155568
     69          1           0       -3.768253   -3.130087    1.761535
     70          1           0       -1.968731   -1.147532    2.642104
     71          1           0       -2.829964   -2.423153    4.547263
     72          1           0       -3.256424   -0.926231    4.713220
     73          1           0       -4.548081   -1.734958    4.173797
     74          1           0       -2.383374   -3.418295   -0.251913
     75          1           0       -1.422240   -1.743985    0.123422
     76          1           0       -0.589666   -3.160387    2.301935
     77          1           0       -1.170978   -4.694195    1.767846
     78          1           0       -1.700153    3.272419    4.089544
     79          1           0       -2.682943    4.641313    4.711439
     80          1           0       -3.072218    3.150012    5.153151
     81          1           0       -5.249845    6.630872    2.265309
     82          1           0      -10.162405    2.932636   -3.030024
     83          1           0      -10.080670    4.858569   -3.150804
     84          1           0       -9.472032    3.803052   -5.336735
     85          1           0       -8.023961    4.774366   -4.735270
     86          1           0       -8.196167    2.959439   -4.692799
     87          1           0       -8.593622   -0.961235   -4.632919
     88          1           0       -8.420168   -2.687513   -4.002469
     89          1           0       -9.473706   -1.502329   -3.331006
     90          1           0       -4.117378   -3.655262   -1.419519
     91          1           0        2.665789   -6.234315    1.197811
     92          1           0        2.276721   -5.155346   -0.246212
     93          1           0        3.886836   -4.172378    2.138194
     94          1           0        2.902026   -3.617342   -1.687973
     95          1           0        3.881010   -2.071141   -1.519539
     96          1           0        4.325756   -3.922141   -1.859042
     97          1           0        5.095545   -1.420858    0.644651
     98          1           0        5.026374   -2.581863    1.993803
     99          1           0        7.001784   -3.681841    0.189458
    100          1           0        6.583059   -2.462065   -0.919299
    101          1           0        7.449605   -0.904668    0.555537
    102          1           0        7.839684   -2.104603    1.863553
    103          1           0        8.900079   -1.900027   -1.069057
    104          1           0        9.064052   -4.248247   -0.342608
    105          1           0       10.620403   -3.435240   -0.445245
    106          1           0       10.071651   -3.887539    1.086652
    107          1           0        9.566605    0.069444    0.162771
    108          1           0       10.051408   -0.998231    1.368840
    109          1           0       11.815899   -1.987667   -0.293990
    110          1           0       11.218695   -0.857308   -1.289668
    111          1           0       11.456576    1.204157    0.095764
    112          1           0       12.336951    0.461393    1.022293
    113          1           0       13.264634    0.400710   -1.605681
    114          1           0       14.616668   -0.780475    0.594094
    115          1           0       13.838993   -1.640991   -0.694972
    116          1           0       15.261544   -0.690438   -1.122899
    117          1           0       13.255003    2.721023    0.055814
    118          1           0       14.637825    1.741182    0.837945
    119          1           0       16.087810    1.417017   -1.137393
    120          1           0       15.222075    2.324725   -2.288251
    121          1           0       15.300057    4.553276   -0.788630
    122          1           0       16.180372    3.581822    0.341570
    123          1           0       17.802900    3.050791   -1.043077
    124          1           0       16.316683    4.816124   -3.218997
    125          1           0       17.978689    4.151582   -3.475534
    126          1           0       16.454827    3.138822   -3.081953
    127          1           0       17.826507    5.244583    0.313154
    128          1           0       18.659581    5.580124   -1.313766
    129          1           0       17.030215    6.018107   -0.895497
    130          1           0       -5.135978   -7.890738   -0.101694
    131          1           0       -6.324910   -6.979794    0.800701
    132          1           0       -4.591082   -7.081059    1.335442
    133          8           0       -7.645489    6.815656   -0.449914
    134          1           0       -9.135354    6.531304   -1.784760
 ---------------------------------------------------------------------

 SCF Done:  E(RCAM-B3LYP) =  -3043.45104607     A.U. after   16 cycles

 Excitation energies and oscillator strengths:

 Excited State   1:      Singlet-A      1.9486 eV  636.29 nm  f=0.1886  <S**2>=0.000
     243 -> 246        0.23474
     244 -> 245        0.64512
     244 -> 246        0.10126
 This state for optimization and/or second-order correction.
 Total Energy, E(TD-HF/TD-KS) =  -3043.37943790
 Copying the excited state density for this state as the 1-particle RhoCI density.

 The electronic state is 1-A.
 Alpha  occ. eigenvalues --  -46.81359 -19.23246 -19.22856 -19.17758 -19.17537
 Alpha  occ. eigenvalues --  -19.16577 -19.16501 -19.16013 -14.39087 -14.37086
 Alpha  occ. eigenvalues --  -14.36791 -14.36637 -10.35198 -10.34471 -10.31466
 Alpha  occ. eigenvalues --  -10.31306 -10.28984 -10.28723 -10.27680 -10.27432
 Alpha  occ. eigenvalues --  -10.27383 -10.26546 -10.26416 -10.26346 -10.26173
 Alpha  occ. eigenvalues --  -10.26145 -10.25963 -10.25809 -10.25510 -10.25335
 Alpha  occ. eigenvalues --  -10.24885 -10.24591 -10.24368 -10.24096 -10.24034
 Alpha  occ. eigenvalues --  -10.23953 -10.23880 -10.23708 -10.23354 -10.23326
 Alpha  occ. eigenvalues --  -10.23209 -10.22996 -10.22707 -10.22572 -10.22561
 Alpha  occ. eigenvalues --  -10.22544 -10.22460 -10.22348 -10.22256 -10.22064
 Alpha  occ. eigenvalues --  -10.22025 -10.21990 -10.21871 -10.21796 -10.21417
 Alpha  occ. eigenvalues --  -10.21208 -10.20774 -10.20528 -10.20510 -10.20269
 Alpha  occ. eigenvalues --  -10.20254 -10.20181 -10.20157 -10.19549 -10.19011
 Alpha  occ. eigenvalues --  -10.18909  -3.10082  -1.85002  -1.84567  -1.84503
 Alpha  occ. eigenvalues --   -1.13532  -1.13251  -1.08959  -1.06839  -1.05547
 Alpha  occ. eigenvalues --   -1.04061  -1.03481  -1.01994  -1.00065  -0.99424
 Alpha  occ. eigenvalues --   -0.98568  -0.88606  -0.86855  -0.86021  -0.85736
 Alpha  occ. eigenvalues --   -0.85442  -0.84976  -0.84814  -0.83852  -0.83390
 Alpha  occ. eigenvalues --   -0.82936  -0.82300  -0.81848  -0.80460  -0.79727
 Alpha  occ. eigenvalues --   -0.79237  -0.78314  -0.77911  -0.76923  -0.76636
 Alpha  occ. eigenvalues --   -0.75953  -0.75310  -0.74750  -0.72790  -0.72563
 Alpha  occ. eigenvalues --   -0.72218  -0.71825  -0.71734  -0.70118  -0.69595
 Alpha  occ. eigenvalues --   -0.69384  -0.68806  -0.67688  -0.66570  -0.66336
 Alpha  occ. eigenvalues --   -0.65888  -0.65208  -0.64464  -0.63002  -0.62481
 Alpha  occ. eigenvalues --   -0.61904  -0.61069  -0.60960  -0.59756  -0.59410
 Alpha  occ. eigenvalues --   -0.59100  -0.58791  -0.57251  -0.56932  -0.56878
 Alpha  occ. eigenvalues --   -0.56833  -0.55975  -0.55129  -0.54919  -0.54813
 Alpha  occ. eigenvalues --   -0.54361  -0.53370  -0.52751  -0.52546  -0.52227
 Alpha  occ. eigenvalues --   -0.52081  -0.51772  -0.51636  -0.51134  -0.50721
 Alpha  occ. eigenvalues --   -0.50416  -0.49810  -0.49544  -0.49040  -0.48890
 Alpha  occ. eigenvalues --   -0.48749  -0.48532  -0.48245  -0.48107  -0.47807
 Alpha  occ. eigenvalues --   -0.47634  -0.47506  -0.47242  -0.47164  -0.47062
 Alpha  occ. eigenvalues --   -0.46950  -0.46587  -0.46458  -0.46079  -0.45855
 Alpha  occ. eigenvalues --   -0.45668  -0.45614  -0.45155  -0.45020  -0.44795
 Alpha  occ. eigenvalues --   -0.44623  -0.44492  -0.44287  -0.44127  -0.43774
 Alpha  occ. eigenvalues --   -0.43752  -0.43341  -0.43241  -0.43065  -0.42886
 Alpha  occ. eigenvalues --   -0.42759  -0.42491  -0.42352  -0.42210  -0.41905
 Alpha  occ. eigenvalues --   -0.41821  -0.41655  -0.41504  -0.41376  -0.41152
 Alpha  occ. eigenvalues --   -0.40996  -0.40822  -0.40664  -0.40485  -0.40384
 Alpha  occ. eigenvalues --   -0.39965  -0.39765  -0.39498  -0.39180  -0.39103
 Alpha  occ. eigenvalues --   -0.38989  -0.38887  -0.38826  -0.38664  -0.38409
 Alpha  occ. eigenvalues --   -0.38194  -0.38078  -0.37953  -0.37731  -0.37521
 Alpha  occ. eigenvalues --   -0.37326  -0.37072  -0.36842  -0.36754  -0.36167
 Alpha  occ. eigenvalues --   -0.35980  -0.35270  -0.35022  -0.34879  -0.34678
 Alpha  occ. eigenvalues --   -0.34379  -0.34055  -0.33993  -0.33463  -0.33275
 Alpha  occ. eigenvalues --   -0.33226  -0.32594  -0.31939  -0.31702  -0.31174
 Alpha  occ. eigenvalues --   -0.31124  -0.30819  -0.30172  -0.30066  -0.29553
 Alpha  occ. eigenvalues --   -0.28868  -0.28290  -0.28155  -0.27924  -0.27495
 Alpha  occ. eigenvalues --   -0.27272  -0.27113  -0.22522  -0.20423
 Alpha virt. eigenvalues --   -0.07846  -0.06070  -0.01829  -0.00157   0.00679
 Alpha virt. eigenvalues --    0.01745   0.03312   0.03479   0.04243   0.04367
 Alpha virt. eigenvalues --    0.04702   0.06217   0.07721   0.08529   0.09443

 Mulliken charges:
               1
     1  Mg   0.845251
     2  C    0.064615
     3  C   -0.204790
     4  C   -0.154355
     5  C   -0.194197
     6  N   -0.634970
     7  C    0.293399
     8  C   -0.137628
     9  C   -0.114418
    10  C    0.325479
    11  C   -0.332281
    12  C   -0.170499
    13  C   -0.270568
    14  C    0.619277
    15  O   -0.488259
    16  O   -0.461640
    17  N   -0.727066
    18  C    0.331759
    19  C    0.007288
    20  C   -0.027842
    21  C    0.268490
    22  C   -0.357884
    23  C    0.238985
    24  O   -0.414010
    25  N   -0.638704
    26  C    0.241493
    27  C   -0.006464
    28  C    0.041599
    29  C    0.281758
    30  C    0.247517
    31  C   -0.256279
    32  C   -0.303140
    33  N   -0.698395
    34  C    0.308862
    35  C    0.021078
    36  C    0.105313
    37  C    0.255828
    38  C   -0.395782
    39  C    0.325118
    40  O   -0.495164
    41  C   -0.319101
    42  C    0.632657
    43  O   -0.452736
    44  O   -0.455402
    45  C   -0.085772
    46  C    0.000713
    47  C   -0.142618
    48  C    0.171535
    49  C   -0.369761
    50  C   -0.230918
    51  C   -0.186829
    52  C   -0.145525
    53  C   -0.069586
    54  C   -0.309200
    55  C   -0.171898
    56  C   -0.199502
    57  C   -0.171478
    58  C   -0.049808
    59  C   -0.312840
    60  C   -0.167337
    61  C   -0.183322
    62  C   -0.166039
    63  C   -0.070639
    64  C   -0.307619
    65  C   -0.301857
    66  H    0.085717
    67  H    0.114160
    68  H    0.087156
    69  H    0.144143
    70  H    0.103433
    71  H    0.110372
    72  H    0.097301
    73  H    0.136876
    74  H    0.084303
    75  H    0.127492
    76  H    0.137258
    77  H    0.140459
    78  H    0.125583
    79  H    0.152012
    80  H    0.136494
    81  H    0.081749
    82  H    0.102165
    83  H    0.106842
    84  H    0.116591
    85  H    0.090767
    86  H    0.120753
    87  H    0.126135
    88  H    0.157382
    89  H    0.143975
    90  H    0.168173
    91  H    0.094013
    92  H    0.130024
    93  H    0.080358
    94  H    0.149102
    95  H    0.095871
    96  H    0.120310
    97  H    0.107588
    98  H    0.094105
    99  H    0.096026
   100  H    0.088333
   101  H    0.091299
   102  H    0.069509
   103  H    0.092663
   104  H    0.125489
   105  H    0.067970
   106  H    0.090728
   107  H    0.096669
   108  H    0.110455
   109  H    0.066671
   110  H    0.099978
   111  H    0.082728
   112  H    0.098584
   113  H    0.098814
   114  H    0.078284
   115  H    0.118938
   116  H    0.083962
   117  H    0.072785
   118  H    0.070963
   119  H    0.089314
   120  H    0.096285
   121  H    0.082811
   122  H    0.097930
   123  H    0.054470
   124  H    0.100440
   125  H    0.092194
   126  H    0.090228
   127  H    0.103884
   128  H    0.115280
   129  H    0.109700
   130  H    0.136909
   131  H    0.106983
   132  H    0.124288
   133  O   -0.388178
   134  H    0.044058
 Sum of Mulliken charges =   0.00000

 Dipole moment (field-independent basis, Debye):
    X=              2.8153    Y=             -4.6449    Z=             -1.4002  Tot=              5.6091
 Quadrupole moment (field-independent basis, Debye-Ang):
   XX=           -383.2318   YY=           -436.6121   ZZ=           -392.2706
   XY=              1.0039   XZ=             22.7319   YZ=            -35.4532

 Normal termination of Gaussian 09 at Tue Oct  8 18:16:48 2019.
