 Gaussian 09, Revision D.01,
 Gaussian 09:  ES64L-G09RevD.01 24-Apr-2013

 ----------------------------------------------------------------------
 # td=(NStates=1) iop(3/107=0140000000,3/108=0140000000) iop(3/107=0140
 000000,3/108=0140000000) CAM-B3LYP/6-31G(d,p)
 ----------------------------------------------------------------------

 --
 TD
 --
 Symbolic Z-matrix:
 Charge =  0 Multiplicity = 1

                         Standard orientation:
 ---------------------------------------------------------------------
 Center     Atomic      Atomic             Coordinates (Angstroms)
 Number     Number       Type             X           Y           Z
 ---------------------------------------------------------------------
      1         12           0       -5.650773    1.239339    0.276132
      2          6           0       -5.025278   -2.193490   -0.359204
      3          6           0       -3.371766    1.189236    2.689822
      4          6           0       -6.172934    4.505779    0.728225
      5          6           0       -7.939321    1.232880   -2.396918
      6          7           0       -4.429399   -0.292422    1.040321
      7          6           0       -4.354804   -1.649571    0.653034
      8          6           0       -3.309559   -2.359284    1.472783
      9          6           0       -2.902468   -1.325815    2.583218
     10          6           0       -3.601184   -0.065213    2.068585
     11          6           0       -3.401946   -1.693631    3.982724
     12          6           0       -2.101316   -2.690661    0.553201
     13          6           0       -0.984695   -3.411861    1.323482
     14          6           0        0.287507   -3.789650    0.595229
     15          8           0        0.446079   -3.520565   -0.534054
     16          8           0        1.015977   -4.660447    1.279792
     17          7           0       -4.798471    2.641464    1.394874
     18          6           0       -3.856886    2.395262    2.501277
     19          6           0       -3.633069    3.598020    3.238788
     20          6           0       -4.439146    4.570262    2.654052
     21          6           0       -5.250976    3.953684    1.543885
     22          6           0       -2.614340    3.764538    4.302805
     23          6           0       -4.538733    6.015376    2.928234
     24          8           0       -3.946310    6.624395    3.803647
     25          7           0       -6.730949    2.669044   -0.752204
     26          6           0       -6.796444    4.005192   -0.358070
     27          6           0       -7.795782    4.639826   -1.150767
     28          6           0       -8.336879    3.745070   -2.055350
     29          6           0       -7.656235    2.405547   -1.743558
     30          6           0       -8.204593    6.144606   -1.161016
     31          6           0       -9.340764    4.060981   -3.189454
     32          6           0       -8.836583    4.046596   -4.557443
     33          7           0       -6.386135   -0.123056   -1.127478
     34          6           0       -7.417259   -0.033947   -2.098600
     35          6           0       -7.610063   -1.333669   -2.772816
     36          6           0       -6.649110   -2.199624   -2.040063
     37          6           0       -5.977505   -1.353012   -1.055665
     38          6           0       -8.561926   -1.742916   -3.821746
     39          6           0       -6.239331   -3.608798   -1.977319
     40          8           0       -6.611213   -4.574588   -2.584201
     41          6           0       -5.126432   -3.524013   -0.842387
     42          6           0       -5.275414   -4.668829    0.217882
     43          8           0       -5.803465   -4.540402    1.319230
     44          8           0       -4.927026   -5.844919   -0.213403
     45          6           0       -5.258593   -6.981940    0.492027
     46          6           0        2.255809   -5.202376    0.555242
     47          6           0        3.349400   -4.250417    1.025005
     48          6           0        4.013027   -3.333420    0.104820
     49          6           0        3.781238   -3.379988   -1.396260
     50          6           0        5.100844   -2.505031    0.716976
     51          6           0        6.516778   -2.678373    0.056817
     52          6           0        7.606528   -1.751057    0.662867
     53          6           0        8.979590   -1.901081   -0.070680
     54          6           0        9.518456   -3.398934    0.016579
     55          6           0        9.914593   -0.934408    0.466312
     56          6           0       11.269909   -0.827167   -0.278586
     57          6           0       12.208268    0.292182    0.335885
     58          6           0       13.423279    0.448407   -0.575363
     59          6           0       14.282961   -0.740036   -0.473640
     60          6           0       14.261935    1.649609   -0.117150
     61          6           0       15.453089    2.100238   -1.014049
     62          6           0       15.955508    3.519868   -0.754916
     63          6           0       17.204112    3.997810   -1.404779
     64          6           0       17.033404    4.040366   -2.791733
     65          6           0       17.721724    5.295643   -0.814552
     66          1           0       -2.598288    1.152669    3.441615
     67          1           0       -6.457585    5.468015    0.975249
     68          1           0       -8.649156    1.400855   -3.233037
     69          1           0       -3.792392   -3.173466    1.886947
     70          1           0       -1.824932   -1.243403    2.604501
     71          1           0       -3.068642   -2.702208    4.088624
     72          1           0       -3.077592   -0.925219    4.852197
     73          1           0       -4.474424   -1.914662    4.051792
     74          1           0       -2.420486   -3.391508   -0.249586
     75          1           0       -1.881567   -1.755287    0.059024
     76          1           0       -0.752731   -2.652311    2.225091
     77          1           0       -1.300205   -4.456105    1.942411
     78          1           0       -1.566289    3.464749    3.851518
     79          1           0       -2.663235    4.867436    4.685632
     80          1           0       -2.971552    2.916996    5.021495
     81          1           0       -5.203940    6.616524    2.419982
     82          1           0      -10.139332    3.240176   -3.085455
     83          1           0       -9.636836    5.110153   -2.884853
     84          1           0       -9.709019    4.181499   -5.272295
     85          1           0       -8.025810    4.761475   -4.742874
     86          1           0       -8.160456    3.106422   -4.804047
     87          1           0       -8.195453   -1.218576   -4.673036
     88          1           0       -8.270539   -2.653709   -4.138269
     89          1           0       -9.585136   -1.474318   -3.570931
     90          1           0       -4.267833   -3.840942   -1.377925
     91          1           0        2.415589   -6.135836    0.808845
     92          1           0        2.322649   -5.208539   -0.595956
     93          1           0        3.573893   -4.341596    2.124175
     94          1           0        2.923547   -3.776032   -1.850768
     95          1           0        3.555131   -2.343352   -1.705654
     96          1           0        4.614255   -3.910032   -1.746956
     97          1           0        5.045089   -1.251072    0.472911
     98          1           0        4.886985   -2.565801    1.949333
     99          1           0        6.820274   -3.658202    0.233348
    100          1           0        6.310250   -2.640629   -1.114330
    101          1           0        7.197962   -0.698819    0.734843
    102          1           0        7.767201   -2.218785    1.903217
    103          1           0        8.618881   -1.691191   -1.053190
    104          1           0        8.872149   -4.164242   -0.377921
    105          1           0       10.708142   -3.456056   -0.454637
    106          1           0        9.619438   -3.716054    1.104893
    107          1           0        9.338233   -0.146774    0.636661
    108          1           0       10.236850   -1.330447    1.473111
    109          1           0       11.872281   -1.825688   -0.234612
    110          1           0       10.984549   -0.814417   -1.287497
    111          1           0       11.675774    1.283573    0.392430
    112          1           0       12.793830   -0.068912    1.296546
    113          1           0       13.243243    0.551492   -1.621604
    114          1           0       14.584250   -0.705868    0.622178
    115          1           0       13.766137   -1.534621   -0.815041
    116          1           0       15.178242   -0.691107   -1.025422
    117          1           0       13.426140    2.645285   -0.182565
    118          1           0       14.679655    1.547505    0.759131
    119          1           0       16.426392    1.659275   -1.099086
    120          1           0       15.183745    2.111822   -1.913128
    121          1           0       15.052838    4.055143   -0.998477
    122          1           0       16.160097    3.573924    0.348147
    123          1           0       18.099191    3.240997   -1.216104
    124          1           0       15.992075    4.592239   -2.909288
    125          1           0       17.851967    4.500117   -3.141540
    126          1           0       17.057888    3.006192   -3.169072
    127          1           0       18.085361    5.139857    0.156463
    128          1           0       18.877183    5.626521   -1.143386
    129          1           0       17.075400    6.245639   -0.798288
    130          1           0       -5.028651   -7.549144   -0.166763
    131          1           0       -6.380854   -6.838851    0.585337
    132          1           0       -4.751916   -6.876157    1.495110
    133          8           0       -7.679911    6.951453   -0.444640
    134          1           0       -9.106775    6.344112   -1.948338
 ---------------------------------------------------------------------

 SCF Done:  E(RCAM-B3LYP) =  -3043.36384076     A.U. after   15 cycles

 Excitation energies and oscillator strengths:

 Excited State   1:      Singlet-A      1.9765 eV  627.29 nm  f=0.2267  <S**2>=0.000
     243 -> 246       -0.19486
     244 -> 245        0.67366
 This state for optimization and/or second-order correction.
 Total Energy, E(TD-HF/TD-KS) =  -3043.29120575
 Copying the excited state density for this state as the 1-particle RhoCI density.

 The electronic state is 1-A.
 Alpha  occ. eigenvalues --  -46.80567 -19.22410 -19.22011 -19.18657 -19.16967
 Alpha  occ. eigenvalues --  -19.16559 -19.16225 -19.16105 -14.39244 -14.36507
 Alpha  occ. eigenvalues --  -14.36380 -14.35953 -10.34774 -10.33918 -10.32342
 Alpha  occ. eigenvalues --  -10.31083 -10.29220 -10.28250 -10.27413 -10.26422
 Alpha  occ. eigenvalues --  -10.26235 -10.26207 -10.26142 -10.26012 -10.25955
 Alpha  occ. eigenvalues --  -10.25843 -10.25611 -10.25396 -10.25383 -10.25003
 Alpha  occ. eigenvalues --  -10.24997 -10.24971 -10.24767 -10.24542 -10.24416
 Alpha  occ. eigenvalues --  -10.24342 -10.24266 -10.24189 -10.23992 -10.23777
 Alpha  occ. eigenvalues --  -10.23502 -10.23299 -10.23064 -10.23032 -10.22960
 Alpha  occ. eigenvalues --  -10.22937 -10.22886 -10.22571 -10.22551 -10.22342
 Alpha  occ. eigenvalues --  -10.22319 -10.21827 -10.21716 -10.21528 -10.21392
 Alpha  occ. eigenvalues --  -10.21317 -10.21268 -10.21251 -10.21144 -10.21110
 Alpha  occ. eigenvalues --  -10.20299 -10.19528 -10.19380 -10.18778 -10.18543
 Alpha  occ. eigenvalues --  -10.18356  -3.09218  -1.84151  -1.83683  -1.83632
 Alpha  occ. eigenvalues --   -1.16084  -1.13590  -1.08751  -1.07560  -1.06332
 Alpha  occ. eigenvalues --   -1.04971  -1.04183  -1.00208  -0.98964  -0.98076
 Alpha  occ. eigenvalues --   -0.96493  -0.89403  -0.86976  -0.86160  -0.85982
 Alpha  occ. eigenvalues --   -0.85744  -0.85229  -0.84326  -0.84282  -0.83649
 Alpha  occ. eigenvalues --   -0.83490  -0.82697  -0.81380  -0.80820  -0.80059
 Alpha  occ. eigenvalues --   -0.79434  -0.79045  -0.78595  -0.78150  -0.77215
 Alpha  occ. eigenvalues --   -0.75170  -0.75120  -0.74038  -0.73723  -0.72299
 Alpha  occ. eigenvalues --   -0.71653  -0.71428  -0.70807  -0.70366  -0.69755
 Alpha  occ. eigenvalues --   -0.68885  -0.68158  -0.67150  -0.66417  -0.65761
 Alpha  occ. eigenvalues --   -0.65418  -0.64831  -0.63264  -0.63111  -0.62717
 Alpha  occ. eigenvalues --   -0.61855  -0.60847  -0.60669  -0.59453  -0.58779
 Alpha  occ. eigenvalues --   -0.58562  -0.58505  -0.57760  -0.57205  -0.57115
 Alpha  occ. eigenvalues --   -0.56176  -0.55859  -0.55684  -0.55462  -0.55138
 Alpha  occ. eigenvalues --   -0.53817  -0.53129  -0.52501  -0.52275  -0.51956
 Alpha  occ. eigenvalues --   -0.51722  -0.51673  -0.51446  -0.51236  -0.51223
 Alpha  occ. eigenvalues --   -0.51024  -0.50328  -0.50207  -0.49578  -0.49511
 Alpha  occ. eigenvalues --   -0.49098  -0.48984  -0.48644  -0.48538  -0.48000
 Alpha  occ. eigenvalues --   -0.47847  -0.47806  -0.47705  -0.47681  -0.47515
 Alpha  occ. eigenvalues --   -0.47337  -0.47185  -0.46899  -0.46659  -0.46271
 Alpha  occ. eigenvalues --   -0.46166  -0.45734  -0.45692  -0.45602  -0.45021
 Alpha  occ. eigenvalues --   -0.44702  -0.44497  -0.44379  -0.44184  -0.43734
 Alpha  occ. eigenvalues --   -0.43544  -0.43429  -0.43234  -0.43019  -0.42895
 Alpha  occ. eigenvalues --   -0.42790  -0.42694  -0.42516  -0.42248  -0.41931
 Alpha  occ. eigenvalues --   -0.41736  -0.41430  -0.41359  -0.41242  -0.41006
 Alpha  occ. eigenvalues --   -0.40902  -0.40819  -0.40247  -0.40029  -0.39851
 Alpha  occ. eigenvalues --   -0.39758  -0.39648  -0.39529  -0.39005  -0.38953
 Alpha  occ. eigenvalues --   -0.38823  -0.38564  -0.38351  -0.38154  -0.38047
 Alpha  occ. eigenvalues --   -0.37635  -0.37455  -0.37414  -0.37283  -0.37131
 Alpha  occ. eigenvalues --   -0.36664  -0.36611  -0.36061  -0.35754  -0.35562
 Alpha  occ. eigenvalues --   -0.35495  -0.35154  -0.35142  -0.34927  -0.34343
 Alpha  occ. eigenvalues --   -0.34302  -0.34028  -0.33603  -0.33432  -0.33330
 Alpha  occ. eigenvalues --   -0.33122  -0.32857  -0.32644  -0.31976  -0.31658
 Alpha  occ. eigenvalues --   -0.31090  -0.30688  -0.30628  -0.29938  -0.29571
 Alpha  occ. eigenvalues --   -0.28564  -0.28144  -0.27494  -0.27404  -0.27300
 Alpha  occ. eigenvalues --   -0.26839  -0.25733  -0.23545  -0.21009
 Alpha virt. eigenvalues --   -0.08437  -0.05671  -0.01380  -0.00433   0.01004
 Alpha virt. eigenvalues --    0.01540   0.03239   0.03762   0.04594   0.04949
 Alpha virt. eigenvalues --    0.05508   0.06260   0.08182   0.08701   0.08881

 Mulliken charges:
               1
     1  Mg   0.810730
     2  C    0.155754
     3  C   -0.232581
     4  C   -0.175423
     5  C   -0.161127
     6  N   -0.649249
     7  C    0.270394
     8  C   -0.160920
     9  C   -0.147110
    10  C    0.376004
    11  C   -0.311874
    12  C   -0.164126
    13  C   -0.268727
    14  C    0.616209
    15  O   -0.447508
    16  O   -0.472074
    17  N   -0.737877
    18  C    0.343102
    19  C    0.075423
    20  C   -0.044233
    21  C    0.336556
    22  C   -0.374368
    23  C    0.244238
    24  O   -0.423917
    25  N   -0.712274
    26  C    0.321967
    27  C   -0.047068
    28  C   -0.004716
    29  C    0.303948
    30  C    0.268767
    31  C   -0.216901
    32  C   -0.299261
    33  N   -0.733546
    34  C    0.236714
    35  C    0.020403
    36  C   -0.062001
    37  C    0.360434
    38  C   -0.364961
    39  C    0.372369
    40  O   -0.453420
    41  C   -0.348604
    42  C    0.580063
    43  O   -0.499389
    44  O   -0.410293
    45  C   -0.048229
    46  C    0.000322
    47  C   -0.144137
    48  C    0.121931
    49  C   -0.379286
    50  C   -0.198706
    51  C   -0.179635
    52  C   -0.166658
    53  C   -0.049029
    54  C   -0.308064
    55  C   -0.142284
    56  C   -0.193297
    57  C   -0.146985
    58  C   -0.076988
    59  C   -0.291230
    60  C   -0.143612
    61  C   -0.187310
    62  C   -0.169776
    63  C   -0.056356
    64  C   -0.256410
    65  C   -0.307132
    66  H    0.071837
    67  H    0.106173
    68  H    0.093436
    69  H    0.123803
    70  H    0.110729
    71  H    0.120075
    72  H    0.100133
    73  H    0.130124
    74  H    0.115151
    75  H    0.127194
    76  H    0.105490
    77  H    0.111076
    78  H    0.123198
    79  H    0.163277
    80  H    0.116957
    81  H    0.089344
    82  H    0.109918
    83  H    0.097229
    84  H    0.113112
    85  H    0.118528
    86  H    0.095721
    87  H    0.131310
    88  H    0.152577
    89  H    0.137863
    90  H    0.160780
    91  H    0.122015
    92  H    0.124794
    93  H    0.092402
    94  H    0.144918
    95  H    0.123542
    96  H    0.131983
    97  H    0.054284
    98  H    0.084249
    99  H    0.114190
   100  H    0.087125
   101  H    0.091726
   102  H    0.040645
   103  H    0.092003
   104  H    0.109082
   105  H    0.068856
   106  H    0.099451
   107  H    0.092233
   108  H    0.085197
   109  H    0.088140
   110  H    0.100678
   111  H    0.091800
   112  H    0.081729
   113  H    0.084047
   114  H    0.080129
   115  H    0.103703
   116  H    0.107319
   117  H    0.035395
   118  H    0.100078
   119  H    0.085715
   120  H    0.103465
   121  H    0.087232
   122  H    0.073067
   123  H    0.060496
   124  H    0.076972
   125  H    0.104103
   126  H    0.094489
   127  H    0.115183
   128  H    0.059259
   129  H    0.099753
   130  H    0.124076
   131  H    0.124277
   132  H    0.124032
   133  O   -0.395049
   134  H    0.059529
 Sum of Mulliken charges =   0.00000

 Dipole moment (field-independent basis, Debye):
    X=              2.3593    Y=             -4.8817    Z=             -1.5217  Tot=              5.6314
 Quadrupole moment (field-independent basis, Debye-Ang):
   XX=           -374.2098   YY=           -434.9269   ZZ=           -395.0842
   XY=             -7.9574   XZ=             18.7637   YZ=            -27.8951

 Normal termination of Gaussian 09 at Thu Oct  3 11:45:41 2019.
