 Gaussian 09, Revision D.01,
 Gaussian 09:  ES64L-G09RevD.01 24-Apr-2013

 ----------------------------------------------------------------------
 # td=(NStates=1) iop(3/107=0140000000,3/108=0140000000) iop(3/107=0140
 000000,3/108=0140000000) CAM-B3LYP/6-31G(d,p)
 ----------------------------------------------------------------------

 --
 TD
 --
 Symbolic Z-matrix:
 Charge =  0 Multiplicity = 1

                         Standard orientation:
 ---------------------------------------------------------------------
 Center     Atomic      Atomic             Coordinates (Angstroms)
 Number     Number       Type             X           Y           Z
 ---------------------------------------------------------------------
      1         12           0       -5.575651    1.231410    0.153071
      2          6           0       -4.978668   -2.186112   -0.441195
      3          6           0       -3.338058    1.218123    2.693797
      4          6           0       -6.247914    4.566178    0.665873
      5          6           0       -8.068823    1.106692   -2.446131
      6          7           0       -4.373257   -0.272862    1.046164
      7          6           0       -4.212769   -1.569768    0.671334
      8          6           0       -3.162869   -2.246077    1.499680
      9          6           0       -2.965835   -1.326440    2.656227
     10          6           0       -3.574066    0.041328    2.155413
     11          6           0       -3.560142   -1.772411    3.913065
     12          6           0       -1.872266   -2.605870    0.732116
     13          6           0       -0.995666   -3.580527    1.533252
     14          6           0        0.193393   -3.930895    0.751936
     15          8           0        0.467411   -3.488468   -0.337435
     16          8           0        0.986456   -4.827177    1.506807
     17          7           0       -4.905494    2.587610    1.491416
     18          6           0       -3.946883    2.479885    2.494147
     19          6           0       -3.677449    3.723731    3.140118
     20          6           0       -4.571295    4.655031    2.538717
     21          6           0       -5.310966    3.994285    1.489720
     22          6           0       -2.666410    3.846510    4.199008
     23          6           0       -4.803554    6.083295    2.974166
     24          8           0       -4.197432    6.612803    3.908563
     25          7           0       -6.966073    2.547114   -0.631272
     26          6           0       -7.011078    3.875457   -0.339856
     27          6           0       -7.974671    4.525882   -1.220037
     28          6           0       -8.540151    3.532880   -2.074570
     29          6           0       -7.890665    2.353936   -1.685473
     30          6           0       -8.311596    6.041264   -1.261035
     31          6           0       -9.483583    3.742875   -3.245086
     32          6           0       -8.745428    3.800222   -4.579714
     33          7           0       -6.394100   -0.155156   -1.098654
     34          6           0       -7.290463   -0.026682   -2.063493
     35          6           0       -7.479656   -1.325439   -2.791658
     36          6           0       -6.614621   -2.206284   -2.127631
     37          6           0       -5.945899   -1.413386   -1.197535
     38          6           0       -8.431714   -1.709722   -3.935189
     39          6           0       -6.052581   -3.582779   -2.052142
     40          8           0       -6.436479   -4.537693   -2.746444
     41          6           0       -4.982399   -3.560885   -0.893660
     42          6           0       -5.361010   -4.576007    0.143037
     43          8           0       -5.801730   -4.450861    1.283627
     44          8           0       -4.987436   -5.847794   -0.343174
     45          6           0       -5.293992   -6.864621    0.507328
     46          6           0        2.296078   -5.052582    0.806552
     47          6           0        3.282633   -4.037353    1.162440
     48          6           0        4.105597   -3.387784    0.204296
     49          6           0        3.809923   -3.259140   -1.281157
     50          6           0        5.087826   -2.315975    0.738325
     51          6           0        6.546887   -2.599765    0.137378
     52          6           0        7.604421   -1.630546    0.529459
     53          6           0        8.977781   -1.973011   -0.029148
     54          6           0        9.455608   -3.391668    0.230121
     55          6           0       10.033717   -0.740072    0.348257
     56          6           0       11.360137   -0.787116   -0.409182
     57          6           0       12.221496    0.411382    0.079064
     58          6           0       13.631556    0.499009   -0.693289
     59          6           0       14.480658   -0.832398   -0.515068
     60          6           0       14.350773    1.702527   -0.143819
     61          6           0       15.550554    2.105941   -1.034092
     62          6           0       16.166034    3.400499   -0.698792
     63          6           0       17.337658    3.801280   -1.362739
     64          6           0       17.088923    4.118130   -2.858882
     65          6           0       17.848583    5.182767   -0.721415
     66          1           0       -2.819113    1.156832    3.583128
     67          1           0       -6.327674    5.746118    0.567137
     68          1           0       -8.762491    0.880345   -3.157046
     69          1           0       -3.509892   -3.238423    1.852184
     70          1           0       -1.867896   -1.068276    2.773543
     71          1           0       -3.058209   -2.789500    4.273623
     72          1           0       -3.539148   -1.108709    4.732704
     73          1           0       -4.652101   -1.971724    3.702545
     74          1           0       -2.175791   -2.968517   -0.394077
     75          1           0       -1.383893   -1.684474    0.544638
     76          1           0       -0.814871   -2.888831    2.331531
     77          1           0       -1.687373   -4.310192    1.854583
     78          1           0       -1.738021    3.482926    3.843246
     79          1           0       -2.664979    5.009491    4.700978
     80          1           0       -2.934604    3.051359    4.776448
     81          1           0       -5.478663    6.558606    2.326158
     82          1           0      -10.076525    2.839473   -3.200127
     83          1           0      -10.180567    4.674588   -3.060384
     84          1           0       -9.340739    4.444323   -5.559749
     85          1           0       -8.057946    4.536034   -4.414434
     86          1           0       -8.151918    2.753511   -4.841551
     87          1           0       -8.327660   -0.969493   -4.799239
     88          1           0       -8.349153   -2.695855   -4.237968
     89          1           0       -9.501475   -1.485428   -3.547124
     90          1           0       -4.124169   -3.991154   -1.351905
     91          1           0        2.575955   -5.923985    1.107925
     92          1           0        2.154647   -5.348910   -0.362412
     93          1           0        3.517205   -3.940111    2.268016
     94          1           0        2.764438   -3.365215   -1.444579
     95          1           0        4.054554   -2.307442   -1.583895
     96          1           0        4.219282   -4.134934   -1.871738
     97          1           0        4.597439   -1.498124    0.488319
     98          1           0        5.385244   -2.132560    1.737912
     99          1           0        7.102119   -3.565568    0.298640
    100          1           0        6.326105   -2.588670   -1.067931
    101          1           0        7.279417   -0.607833    0.292758
    102          1           0        7.936542   -1.774773    1.800707
    103          1           0        8.669069   -1.893103   -1.166745
    104          1           0        8.563461   -4.237580    0.076841
    105          1           0       10.378203   -3.791204   -0.293468
    106          1           0        9.892869   -3.389080    1.309734
    107          1           0        9.603143    0.356936    0.188020
    108          1           0       10.387333   -0.855128    1.428832
    109          1           0       11.812081   -1.698960   -0.132298
    110          1           0       11.175340   -0.922170   -1.434339
    111          1           0       11.623027    1.316272   -0.001750
    112          1           0       12.583452    0.288518    1.153767
    113          1           0       13.450523    0.722719   -1.678302
    114          1           0       14.660007   -1.129520    0.669604
    115          1           0       13.983879   -1.715421   -1.158932
    116          1           0       15.446267   -0.522320   -0.858276
    117          1           0       13.557684    2.522009   -0.191873
    118          1           0       14.290136    1.505414    0.860897
    119          1           0       16.114287    1.180237   -1.065924
    120          1           0       15.136292    2.190465   -2.134587
    121          1           0       15.281180    4.123992   -0.649924
    122          1           0       16.214516    3.438115    0.429954
    123          1           0       18.233561    3.232175   -1.236759
    124          1           0       16.274570    4.527641   -2.818167
    125          1           0       18.083895    4.470321   -3.337677
    126          1           0       16.956505    3.277106   -3.584168
    127          1           0       18.202144    5.112755    0.426492
    128          1           0       18.908277    5.717326   -1.015820
    129          1           0       17.351431    6.147338   -0.706161
    130          1           0       -4.776625   -7.666142   -0.045914
    131          1           0       -6.334504   -7.204993    0.729676
    132          1           0       -4.906213   -6.800794    1.539593
    133          8           0       -7.933379    6.900353   -0.413821
    134          1           0       -9.005438    6.402264   -1.977311
 ---------------------------------------------------------------------

 SCF Done:  E(RCAM-B3LYP) =  -3043.39303894     A.U. after   16 cycles

 Excitation energies and oscillator strengths:

 Excited State   1:      Singlet-A      2.0294 eV  610.93 nm  f=0.1490  <S**2>=0.000
     243 -> 245       -0.11357
     243 -> 246       -0.26517
     244 -> 245        0.63064
     244 -> 246       -0.10379
 This state for optimization and/or second-order correction.
 Total Energy, E(TD-HF/TD-KS) =  -3043.31845817
 Copying the excited state density for this state as the 1-particle RhoCI density.

 The electronic state is 1-A.
 Alpha  occ. eigenvalues --  -46.81552 -19.22823 -19.21890 -19.18905 -19.18395
 Alpha  occ. eigenvalues --  -19.18133 -19.17545 -19.17544 -14.39050 -14.37498
 Alpha  occ. eigenvalues --  -14.37326 -14.37019 -10.36197 -10.35437 -10.32833
 Alpha  occ. eigenvalues --  -10.31187 -10.30375 -10.29047 -10.27310 -10.26979
 Alpha  occ. eigenvalues --  -10.26924 -10.26861 -10.26702 -10.26667 -10.26616
 Alpha  occ. eigenvalues --  -10.26401 -10.26388 -10.26333 -10.25815 -10.25200
 Alpha  occ. eigenvalues --  -10.24910 -10.24792 -10.24686 -10.24662 -10.24456
 Alpha  occ. eigenvalues --  -10.24378 -10.24240 -10.24179 -10.23992 -10.23857
 Alpha  occ. eigenvalues --  -10.23838 -10.23733 -10.23546 -10.23440 -10.23399
 Alpha  occ. eigenvalues --  -10.23358 -10.22781 -10.22623 -10.22581 -10.22542
 Alpha  occ. eigenvalues --  -10.22534 -10.22327 -10.22274 -10.22205 -10.22198
 Alpha  occ. eigenvalues --  -10.22070 -10.21896 -10.21528 -10.21353 -10.20783
 Alpha  occ. eigenvalues --  -10.20779 -10.20731 -10.20711 -10.19819 -10.19627
 Alpha  occ. eigenvalues --  -10.19329  -3.10124  -1.85063  -1.84594  -1.84536
 Alpha  occ. eigenvalues --   -1.13823  -1.11776  -1.06491  -1.05989  -1.05579
 Alpha  occ. eigenvalues --   -1.04579  -1.04389  -1.02104  -0.99662  -0.98926
 Alpha  occ. eigenvalues --   -0.97352  -0.89973  -0.87198  -0.86470  -0.85842
 Alpha  occ. eigenvalues --   -0.85303  -0.84816  -0.84271  -0.83635  -0.83414
 Alpha  occ. eigenvalues --   -0.83225  -0.82928  -0.82482  -0.80963  -0.80172
 Alpha  occ. eigenvalues --   -0.78774  -0.78244  -0.77736  -0.77257  -0.76469
 Alpha  occ. eigenvalues --   -0.75707  -0.75186  -0.74669  -0.73032  -0.72345
 Alpha  occ. eigenvalues --   -0.71512  -0.71267  -0.69957  -0.69499  -0.69228
 Alpha  occ. eigenvalues --   -0.69038  -0.68530  -0.67335  -0.66532  -0.66157
 Alpha  occ. eigenvalues --   -0.66047  -0.65043  -0.64624  -0.62972  -0.62484
 Alpha  occ. eigenvalues --   -0.61986  -0.61477  -0.60385  -0.60068  -0.59774
 Alpha  occ. eigenvalues --   -0.59490  -0.58914  -0.57977  -0.57198  -0.56931
 Alpha  occ. eigenvalues --   -0.56396  -0.56253  -0.55807  -0.55684  -0.55338
 Alpha  occ. eigenvalues --   -0.54738  -0.54049  -0.53076  -0.52660  -0.52159
 Alpha  occ. eigenvalues --   -0.51822  -0.51493  -0.51388  -0.51200  -0.50822
 Alpha  occ. eigenvalues --   -0.50636  -0.50425  -0.50010  -0.49804  -0.49263
 Alpha  occ. eigenvalues --   -0.49156  -0.48905  -0.48536  -0.48170  -0.47880
 Alpha  occ. eigenvalues --   -0.47854  -0.47367  -0.47315  -0.47282  -0.47010
 Alpha  occ. eigenvalues --   -0.46787  -0.46603  -0.46452  -0.45947  -0.45817
 Alpha  occ. eigenvalues --   -0.45685  -0.45312  -0.45158  -0.44910  -0.44797
 Alpha  occ. eigenvalues --   -0.44443  -0.44304  -0.43987  -0.43951  -0.43821
 Alpha  occ. eigenvalues --   -0.43569  -0.43356  -0.43290  -0.43187  -0.42951
 Alpha  occ. eigenvalues --   -0.42784  -0.42753  -0.42054  -0.41909  -0.41771
 Alpha  occ. eigenvalues --   -0.41662  -0.41612  -0.41421  -0.41262  -0.41030
 Alpha  occ. eigenvalues --   -0.40837  -0.40489  -0.40454  -0.40305  -0.40113
 Alpha  occ. eigenvalues --   -0.40008  -0.39905  -0.39803  -0.39560  -0.39219
 Alpha  occ. eigenvalues --   -0.38869  -0.38854  -0.38633  -0.38573  -0.38146
 Alpha  occ. eigenvalues --   -0.38025  -0.37906  -0.37376  -0.37155  -0.37033
 Alpha  occ. eigenvalues --   -0.36819  -0.36478  -0.36376  -0.36250  -0.36146
 Alpha  occ. eigenvalues --   -0.35556  -0.35535  -0.35202  -0.35049  -0.34890
 Alpha  occ. eigenvalues --   -0.34299  -0.34196  -0.33672  -0.33443  -0.33308
 Alpha  occ. eigenvalues --   -0.32940  -0.32363  -0.32152  -0.32014  -0.31737
 Alpha  occ. eigenvalues --   -0.31732  -0.31596  -0.30491  -0.30129  -0.29412
 Alpha  occ. eigenvalues --   -0.28906  -0.28698  -0.28217  -0.27976  -0.27910
 Alpha  occ. eigenvalues --   -0.27254  -0.26103  -0.23498  -0.21853
 Alpha virt. eigenvalues --   -0.08780  -0.07231  -0.02212  -0.01368  -0.00075
 Alpha virt. eigenvalues --    0.01766   0.02280   0.02686   0.02861   0.03908
 Alpha virt. eigenvalues --    0.04607   0.05481   0.06934   0.08274   0.08966

 Mulliken charges:
               1
     1  Mg   0.825626
     2  C    0.058324
     3  C   -0.177847
     4  C   -0.179753
     5  C   -0.127042
     6  N   -0.648353
     7  C    0.342768
     8  C   -0.165989
     9  C   -0.136699
    10  C    0.326399
    11  C   -0.299595
    12  C   -0.183352
    13  C   -0.261319
    14  C    0.634912
    15  O   -0.443805
    16  O   -0.504503
    17  N   -0.707734
    18  C    0.307808
    19  C    0.062809
    20  C   -0.071438
    21  C    0.307151
    22  C   -0.383955
    23  C    0.282386
    24  O   -0.429895
    25  N   -0.692491
    26  C    0.309630
    27  C   -0.070648
    28  C    0.034415
    29  C    0.251253
    30  C    0.247365
    31  C   -0.235610
    32  C   -0.283642
    33  N   -0.713660
    34  C    0.291513
    35  C   -0.032770
    36  C    0.059670
    37  C    0.286854
    38  C   -0.373548
    39  C    0.361610
    40  O   -0.455721
    41  C   -0.334526
    42  C    0.627502
    43  O   -0.465245
    44  O   -0.434678
    45  C   -0.086582
    46  C    0.014569
    47  C   -0.130733
    48  C    0.093076
    49  C   -0.377365
    50  C   -0.221890
    51  C   -0.169847
    52  C   -0.136567
    53  C   -0.042752
    54  C   -0.315637
    55  C   -0.176062
    56  C   -0.177048
    57  C   -0.181691
    58  C   -0.067016
    59  C   -0.300005
    60  C   -0.174477
    61  C   -0.170363
    62  C   -0.163557
    63  C   -0.046800
    64  C   -0.285237
    65  C   -0.331899
    66  H    0.067498
    67  H    0.154681
    68  H    0.088618
    69  H    0.116657
    70  H    0.097035
    71  H    0.093973
    72  H    0.119401
    73  H    0.126044
    74  H    0.089706
    75  H    0.121254
    76  H    0.147959
    77  H    0.143097
    78  H    0.132568
    79  H    0.152476
    80  H    0.133414
    81  H    0.091981
    82  H    0.117299
    83  H    0.106309
    84  H    0.071995
    85  H    0.135311
    86  H    0.097429
    87  H    0.121518
    88  H    0.158750
    89  H    0.123002
    90  H    0.176972
    91  H    0.122433
    92  H    0.101785
    93  H    0.092261
    94  H    0.156517
    95  H    0.122803
    96  H    0.116622
    97  H    0.120933
    98  H    0.105717
    99  H    0.091839
   100  H    0.061755
   101  H    0.096286
   102  H    0.028280
   103  H    0.064574
   104  H    0.095802
   105  H    0.111015
   106  H    0.094519
   107  H    0.074703
   108  H    0.085434
   109  H    0.099937
   110  H    0.098570
   111  H    0.090295
   112  H    0.081684
   113  H    0.091320
   114  H    0.076387
   115  H    0.094894
   116  H    0.109560
   117  H    0.071491
   118  H    0.094380
   119  H    0.096917
   120  H    0.077131
   121  H    0.090639
   122  H    0.091852
   123  H    0.104952
   124  H    0.111302
   125  H    0.099081
   126  H    0.088313
   127  H    0.074622
   128  H    0.065916
   129  H    0.114065
   130  H    0.113455
   131  H    0.117371
   132  H    0.111999
   133  O   -0.437133
   134  H    0.086481
 Sum of Mulliken charges =   0.00000

 Dipole moment (field-independent basis, Debye):
    X=              2.6352    Y=             -3.5663    Z=             -2.0608  Tot=              4.8897
 Quadrupole moment (field-independent basis, Debye-Ang):
   XX=           -385.7963   YY=           -444.7340   ZZ=           -397.0595
   XY=              3.1052   XZ=             22.4590   YZ=            -31.8764

 Normal termination of Gaussian 09 at Fri Oct  4 13:11:42 2019.
