 Gaussian 09, Revision D.01,
 Gaussian 09:  ES64L-G09RevD.01 24-Apr-2013

 ----------------------------------------------------------------------
 # td=(NStates=1) iop(3/107=0140000000,3/108=0140000000) iop(3/107=0140
 000000,3/108=0140000000) CAM-B3LYP/6-31G(d,p)
 ----------------------------------------------------------------------

 --
 TD
 --
 Symbolic Z-matrix:
 Charge =  0 Multiplicity = 1

                         Standard orientation:
 ---------------------------------------------------------------------
 Center     Atomic      Atomic             Coordinates (Angstroms)
 Number     Number       Type             X           Y           Z
 ---------------------------------------------------------------------
      1         12           0       -5.659858    1.287120    0.270565
      2          6           0       -5.088666   -2.100936   -0.372300
      3          6           0       -3.356778    1.133836    2.736804
      4          6           0       -6.154009    4.547943    0.582177
      5          6           0       -8.006786    1.202743   -2.337833
      6          7           0       -4.397202   -0.268360    1.064498
      7          6           0       -4.276764   -1.639461    0.730599
      8          6           0       -3.214294   -2.412805    1.505587
      9          6           0       -2.876201   -1.283787    2.631301
     10          6           0       -3.535607    0.026520    2.081695
     11          6           0       -3.607382   -1.769601    3.974192
     12          6           0       -2.022350   -2.704008    0.590032
     13          6           0       -1.031703   -3.623083    1.324650
     14          6           0        0.274959   -3.925483    0.601544
     15          8           0        0.552433   -3.396569   -0.377258
     16          8           0        1.088557   -4.741269    1.371955
     17          7           0       -4.882857    2.641681    1.525005
     18          6           0       -3.944397    2.417063    2.571286
     19          6           0       -3.717699    3.639712    3.173290
     20          6           0       -4.562317    4.604753    2.628848
     21          6           0       -5.315306    3.935307    1.471796
     22          6           0       -2.756625    3.844979    4.328807
     23          6           0       -4.732893    5.969646    2.932170
     24          8           0       -4.151567    6.501187    3.916836
     25          7           0       -6.898039    2.646162   -0.684876
     26          6           0       -6.944344    3.993704   -0.395416
     27          6           0       -7.762000    4.747665   -1.350936
     28          6           0       -8.297121    3.747914   -2.099522
     29          6           0       -7.795731    2.396093   -1.676761
     30          6           0       -8.120591    6.144556   -1.330125
     31          6           0       -9.333719    3.860119   -3.137952
     32          6           0       -8.775627    3.969329   -4.589310
     33          7           0       -6.292393   -0.137991   -1.074250
     34          6           0       -7.305623   -0.072298   -1.990052
     35          6           0       -7.594075   -1.332764   -2.610772
     36          6           0       -6.660265   -2.208351   -2.046063
     37          6           0       -5.920440   -1.449623   -1.141900
     38          6           0       -8.556526   -1.742024   -3.724193
     39          6           0       -6.287375   -3.573609   -2.049830
     40          8           0       -6.604335   -4.540909   -2.708500
     41          6           0       -5.120147   -3.578476   -0.931202
     42          6           0       -5.386658   -4.616787    0.113326
     43          8           0       -5.762960   -4.439525    1.220650
     44          8           0       -5.141363   -5.807904   -0.454983
     45          6           0       -5.400251   -6.832068    0.491054
     46          6           0        2.292485   -5.221739    0.812884
     47          6           0        3.400537   -4.059440    1.029720
     48          6           0        4.028174   -3.360451    0.123665
     49          6           0        3.684213   -3.262168   -1.320459
     50          6           0        5.103433   -2.445020    0.653790
     51          6           0        6.530580   -2.698879   -0.096450
     52          6           0        7.703785   -1.896257    0.549304
     53          6           0        9.022521   -1.946373   -0.152501
     54          6           0        9.561257   -3.448974   -0.025887
     55          6           0        9.919346   -0.907223    0.359180
     56          6           0       11.409779   -0.918971   -0.321588
     57          6           0       12.194884    0.306803    0.145708
     58          6           0       13.603826    0.463867   -0.581257
     59          6           0       14.550885   -0.624079   -0.306661
     60          6           0       14.182991    1.809696   -0.193628
     61          6           0       15.418186    2.192257   -0.931884
     62          6           0       15.853043    3.612642   -0.659229
     63          6           0       17.316289    3.914829   -1.195832
     64          6           0       17.254616    4.009087   -2.832591
     65          6           0       18.008297    5.129366   -0.719415
     66          1           0       -2.679683    1.248334    3.591162
     67          1           0       -6.085060    5.684719    0.522631
     68          1           0       -8.740715    1.043643   -3.155299
     69          1           0       -3.663445   -3.278864    2.048895
     70          1           0       -1.844912   -1.137456    2.653859
     71          1           0       -3.111832   -2.665898    4.363538
     72          1           0       -3.626330   -1.014346    4.794991
     73          1           0       -4.585535   -1.904921    3.806338
     74          1           0       -2.464356   -3.034678   -0.398651
     75          1           0       -1.511355   -1.768296    0.623671
     76          1           0       -0.785780   -3.178828    2.353872
     77          1           0       -1.461175   -4.607857    1.600510
     78          1           0       -1.639845    3.432526    4.020686
     79          1           0       -2.908047    4.869455    4.642193
     80          1           0       -2.930267    3.232161    5.159644
     81          1           0       -5.355538    6.582972    2.245898
     82          1           0      -10.056999    3.062257   -3.171837
     83          1           0       -9.895578    4.755108   -2.920622
     84          1           0       -9.527901    3.954731   -5.350713
     85          1           0       -8.326753    4.904417   -4.744325
     86          1           0       -8.029592    3.136008   -4.726095
     87          1           0       -8.376936   -1.075891   -4.515780
     88          1           0       -8.421711   -2.724694   -3.806895
     89          1           0       -9.520183   -1.524013   -3.394308
     90          1           0       -4.281223   -3.811474   -1.425901
     91          1           0        2.612666   -6.119952    1.558080
     92          1           0        2.087360   -5.387116   -0.277478
     93          1           0        3.806024   -4.163434    2.007465
     94          1           0        2.623109   -3.437890   -1.273221
     95          1           0        3.932147   -2.168309   -1.654905
     96          1           0        4.278692   -3.836678   -1.954580
     97          1           0        4.769362   -1.545883    0.373885
     98          1           0        5.296508   -2.720652    1.771849
     99          1           0        6.796712   -3.751513   -0.110869
    100          1           0        6.305595   -2.609797   -1.273596
    101          1           0        7.225427   -0.867655    0.714311
    102          1           0        7.885007   -2.201502    1.470454
    103          1           0        9.018613   -1.948615   -1.204998
    104          1           0        8.860132   -4.158333   -0.268214
    105          1           0       10.487954   -3.455754   -0.454823
    106          1           0        9.919836   -3.475771    1.137657
    107          1           0        9.405950    0.037420    0.054202
    108          1           0       10.115156   -0.794750    1.353016
    109          1           0       12.205482   -1.782506    0.030493
    110          1           0       11.298416   -0.824115   -1.427643
    111          1           0       11.584707    1.116689    0.065170
    112          1           0       12.399775    0.003098    1.225949
    113          1           0       13.357059    0.577061   -1.648435
    114          1           0       14.867024   -0.543634    0.678160
    115          1           0       14.109221   -1.538183   -0.546470
    116          1           0       15.569691   -0.542554   -0.895523
    117          1           0       13.301365    2.460219   -0.145501
    118          1           0       14.552462    1.587474    0.939203
    119          1           0       16.228753    1.500159   -0.743728
    120          1           0       15.149556    2.212585   -2.005265
    121          1           0       15.106436    4.263279   -1.025717
    122          1           0       15.918502    3.751698    0.488967
    123          1           0       17.919650    2.956646   -0.936680
    124          1           0       16.433270    4.763703   -3.118813
    125          1           0       18.067404    4.292141   -3.392195
    126          1           0       16.805735    3.078112   -3.434611
    127          1           0       18.320206    4.953263    0.362732
    128          1           0       18.887209    5.461740   -1.157089
    129          1           0       17.352116    5.933493   -0.875082
    130          1           0       -5.184776   -7.793344    0.031296
    131          1           0       -6.570944   -6.779627    0.612064
    132          1           0       -4.778294   -6.713777    1.543055
    133          8           0       -7.691608    6.939892   -0.563737
    134          1           0       -8.719940    6.504219   -1.840289
 ---------------------------------------------------------------------

 SCF Done:  E(RCAM-B3LYP) =  -3043.49063635     A.U. after   16 cycles

 Excitation energies and oscillator strengths:

 Excited State   1:      Singlet-A      1.9328 eV  641.46 nm  f=0.2800  <S**2>=0.000
     243 -> 246       -0.22572
     244 -> 245        0.66434
 This state for optimization and/or second-order correction.
 Total Energy, E(TD-HF/TD-KS) =  -3043.41960608
 Copying the excited state density for this state as the 1-particle RhoCI density.

 The electronic state is 1-A.
 Alpha  occ. eigenvalues --  -46.81445 -19.22951 -19.21284 -19.18375 -19.17853
 Alpha  occ. eigenvalues --  -19.17666 -19.17308 -19.15427 -14.39476 -14.37501
 Alpha  occ. eigenvalues --  -14.36741 -14.36479 -10.34889 -10.34635 -10.31629
 Alpha  occ. eigenvalues --  -10.29025 -10.28808 -10.28658 -10.28645 -10.28613
 Alpha  occ. eigenvalues --  -10.27130 -10.26999 -10.26749 -10.26493 -10.26378
 Alpha  occ. eigenvalues --  -10.25971 -10.25294 -10.25219 -10.25200 -10.24658
 Alpha  occ. eigenvalues --  -10.24614 -10.24376 -10.24337 -10.23848 -10.23804
 Alpha  occ. eigenvalues --  -10.23779 -10.23571 -10.23405 -10.23240 -10.23144
 Alpha  occ. eigenvalues --  -10.22959 -10.22713 -10.22435 -10.22205 -10.22147
 Alpha  occ. eigenvalues --  -10.22012 -10.21942 -10.21774 -10.21616 -10.21502
 Alpha  occ. eigenvalues --  -10.21374 -10.21292 -10.20747 -10.20726 -10.20689
 Alpha  occ. eigenvalues --  -10.20654 -10.20605 -10.20573 -10.20348 -10.20150
 Alpha  occ. eigenvalues --  -10.20106 -10.20103 -10.20078 -10.19618 -10.19394
 Alpha  occ. eigenvalues --  -10.19197  -3.10012  -1.84955  -1.84486  -1.84414
 Alpha  occ. eigenvalues --   -1.15421  -1.14977  -1.09750  -1.07728  -1.07268
 Alpha  occ. eigenvalues --   -1.06775  -1.03203  -1.01023  -0.99981  -0.98818
 Alpha  occ. eigenvalues --   -0.97669  -0.89274  -0.86195  -0.86088  -0.85875
 Alpha  occ. eigenvalues --   -0.85569  -0.85262  -0.84744  -0.84397  -0.83598
 Alpha  occ. eigenvalues --   -0.82774  -0.82284  -0.80883  -0.80046  -0.79608
 Alpha  occ. eigenvalues --   -0.79412  -0.78256  -0.77678  -0.77453  -0.76566
 Alpha  occ. eigenvalues --   -0.75639  -0.75158  -0.73752  -0.72540  -0.72175
 Alpha  occ. eigenvalues --   -0.71574  -0.71251  -0.70892  -0.70840  -0.70217
 Alpha  occ. eigenvalues --   -0.69805  -0.69264  -0.69131  -0.67762  -0.66640
 Alpha  occ. eigenvalues --   -0.66182  -0.64796  -0.64640  -0.63021  -0.62611
 Alpha  occ. eigenvalues --   -0.62146  -0.61133  -0.60247  -0.59892  -0.59320
 Alpha  occ. eigenvalues --   -0.58652  -0.58422  -0.57982  -0.57789  -0.57001
 Alpha  occ. eigenvalues --   -0.56549  -0.56045  -0.55830  -0.55472  -0.55225
 Alpha  occ. eigenvalues --   -0.54941  -0.54075  -0.53677  -0.52610  -0.52518
 Alpha  occ. eigenvalues --   -0.52358  -0.52130  -0.51274  -0.51192  -0.50826
 Alpha  occ. eigenvalues --   -0.50441  -0.50265  -0.49955  -0.49669  -0.49341
 Alpha  occ. eigenvalues --   -0.49062  -0.48936  -0.48639  -0.48360  -0.48288
 Alpha  occ. eigenvalues --   -0.48089  -0.47894  -0.47608  -0.47257  -0.47024
 Alpha  occ. eigenvalues --   -0.46851  -0.46733  -0.46579  -0.46316  -0.46030
 Alpha  occ. eigenvalues --   -0.45913  -0.45687  -0.45433  -0.45303  -0.45230
 Alpha  occ. eigenvalues --   -0.44849  -0.44554  -0.44475  -0.44333  -0.44196
 Alpha  occ. eigenvalues --   -0.43916  -0.43713  -0.43378  -0.43298  -0.42986
 Alpha  occ. eigenvalues --   -0.42864  -0.42830  -0.42446  -0.42326  -0.42185
 Alpha  occ. eigenvalues --   -0.41985  -0.41713  -0.41599  -0.41299  -0.40937
 Alpha  occ. eigenvalues --   -0.40801  -0.40497  -0.40409  -0.40198  -0.40017
 Alpha  occ. eigenvalues --   -0.39857  -0.39803  -0.39677  -0.39330  -0.39307
 Alpha  occ. eigenvalues --   -0.38972  -0.38910  -0.38770  -0.38612  -0.38396
 Alpha  occ. eigenvalues --   -0.38345  -0.38222  -0.37916  -0.37843  -0.37583
 Alpha  occ. eigenvalues --   -0.37394  -0.36570  -0.36530  -0.35884  -0.35747
 Alpha  occ. eigenvalues --   -0.35280  -0.35214  -0.35065  -0.34646  -0.34513
 Alpha  occ. eigenvalues --   -0.34337  -0.34209  -0.33701  -0.33656  -0.33555
 Alpha  occ. eigenvalues --   -0.32494  -0.32194  -0.31901  -0.31804  -0.31588
 Alpha  occ. eigenvalues --   -0.31391  -0.31289  -0.30967  -0.30866  -0.30025
 Alpha  occ. eigenvalues --   -0.29299  -0.28774  -0.28716  -0.28211  -0.27158
 Alpha  occ. eigenvalues --   -0.27095  -0.26586  -0.23408  -0.21502
 Alpha virt. eigenvalues --   -0.09321  -0.06395  -0.02435  -0.00953   0.00951
 Alpha virt. eigenvalues --    0.03347   0.03983   0.04216   0.04514   0.05016
 Alpha virt. eigenvalues --    0.05474   0.06520   0.08324   0.08838   0.09844

 Mulliken charges:
               1
     1  Mg   0.817251
     2  C    0.045042
     3  C   -0.156826
     4  C   -0.186952
     5  C   -0.179398
     6  N   -0.615964
     7  C    0.281761
     8  C   -0.159182
     9  C   -0.148723
    10  C    0.355956
    11  C   -0.318378
    12  C   -0.150383
    13  C   -0.283040
    14  C    0.591927
    15  O   -0.399361
    16  O   -0.465062
    17  N   -0.755750
    18  C    0.291962
    19  C    0.049904
    20  C   -0.022324
    21  C    0.346613
    22  C   -0.384663
    23  C    0.207745
    24  O   -0.454664
    25  N   -0.692017
    26  C    0.284979
    27  C    0.008362
    28  C   -0.011970
    29  C    0.340876
    30  C    0.334207
    31  C   -0.266644
    32  C   -0.320246
    33  N   -0.704175
    34  C    0.259320
    35  C   -0.013406
    36  C    0.077003
    37  C    0.276439
    38  C   -0.350563
    39  C    0.338734
    40  O   -0.451366
    41  C   -0.341923
    42  C    0.627840
    43  O   -0.460604
    44  O   -0.426860
    45  C   -0.083328
    46  C   -0.015684
    47  C   -0.148428
    48  C    0.153038
    49  C   -0.375230
    50  C   -0.218959
    51  C   -0.201184
    52  C   -0.149079
    53  C   -0.058990
    54  C   -0.316296
    55  C   -0.171959
    56  C   -0.190380
    57  C   -0.180046
    58  C   -0.049800
    59  C   -0.310272
    60  C   -0.155078
    61  C   -0.162321
    62  C   -0.166693
    63  C   -0.042964
    64  C   -0.328464
    65  C   -0.303763
    66  H    0.084688
    67  H    0.138483
    68  H    0.093875
    69  H    0.131173
    70  H    0.100028
    71  H    0.113732
    72  H    0.103811
    73  H    0.141365
    74  H    0.115068
    75  H    0.126506
    76  H    0.132587
    77  H    0.125979
    78  H    0.091479
    79  H    0.166199
    80  H    0.131293
    81  H    0.087546
    82  H    0.118381
    83  H    0.108015
    84  H    0.114299
    85  H    0.120629
    86  H    0.109475
    87  H    0.135280
    88  H    0.151454
    89  H    0.132395
    90  H    0.158232
    91  H    0.107802
    92  H    0.113305
    93  H    0.076782
    94  H    0.150677
    95  H    0.088956
    96  H    0.128880
    97  H    0.117429
    98  H    0.086226
    99  H    0.096105
   100  H    0.067488
   101  H    0.070855
   102  H    0.106973
   103  H    0.093198
   104  H    0.112682
   105  H    0.116800
   106  H    0.060073
   107  H    0.091556
   108  H    0.099986
   109  H    0.074061
   110  H    0.086453
   111  H    0.094234
   112  H    0.079643
   113  H    0.075595
   114  H    0.109954
   115  H    0.106683
   116  H    0.087593
   117  H    0.084533
   118  H    0.051711
   119  H    0.097901
   120  H    0.091539
   121  H    0.097151
   122  H    0.073416
   123  H    0.072741
   124  H    0.084032
   125  H    0.112202
   126  H    0.077684
   127  H    0.088785
   128  H    0.113286
   129  H    0.109195
   130  H    0.125306
   131  H    0.119906
   132  H    0.109020
   133  O   -0.405011
   134  H    0.025040
 Sum of Mulliken charges =   0.00000

 Dipole moment (field-independent basis, Debye):
    X=             -0.0852    Y=             -4.4690    Z=             -2.4999  Tot=              5.1214
 Quadrupole moment (field-independent basis, Debye-Ang):
   XX=           -362.1471   YY=           -437.4213   ZZ=           -397.2787
   XY=              4.1530   XZ=             28.2902   YZ=            -43.8334

 Normal termination of Gaussian 09 at Mon Oct  7 08:53:47 2019.
