 Gaussian 09, Revision D.01,
 Gaussian 09:  ES64L-G09RevD.01 24-Apr-2013

 ----------------------------------------------------------------------
 # td=(NStates=1) iop(3/107=0140000000,3/108=0140000000) iop(3/107=0140
 000000,3/108=0140000000) CAM-B3LYP/6-31G(d,p)
 ----------------------------------------------------------------------

 --
 TD
 --
 Symbolic Z-matrix:
 Charge =  0 Multiplicity = 1

                         Standard orientation:
 ---------------------------------------------------------------------
 Center     Atomic      Atomic             Coordinates (Angstroms)
 Number     Number       Type             X           Y           Z
 ---------------------------------------------------------------------
      1         12           0       -5.666317    1.175346    0.214417
      2          6           0       -5.131102   -2.092638   -0.350119
      3          6           0       -3.384042    1.156268    2.777162
      4          6           0       -6.189531    4.555833    0.676708
      5          6           0       -8.097425    1.101835   -2.226032
      6          7           0       -4.318841   -0.283582    1.063002
      7          6           0       -4.251862   -1.576479    0.690217
      8          6           0       -3.166755   -2.361025    1.464030
      9          6           0       -2.882142   -1.304077    2.618162
     10          6           0       -3.506845   -0.085656    2.070661
     11          6           0       -3.233300   -1.859585    3.994655
     12          6           0       -1.928722   -2.702148    0.557281
     13          6           0       -0.964605   -3.538336    1.232635
     14          6           0        0.266947   -3.947408    0.506897
     15          8           0        0.588110   -3.507151   -0.646279
     16          8           0        1.059438   -4.701325    1.208562
     17          7           0       -4.885055    2.649027    1.434581
     18          6           0       -3.953149    2.419186    2.510059
     19          6           0       -3.833128    3.650243    3.277823
     20          6           0       -4.670606    4.552736    2.651792
     21          6           0       -5.263203    3.935685    1.596633
     22          6           0       -2.741724    3.883697    4.226490
     23          6           0       -4.732585    5.957778    3.038355
     24          8           0       -4.090374    6.521114    3.860744
     25          7           0       -6.976705    2.619342   -0.609916
     26          6           0       -7.017958    4.035449   -0.412885
     27          6           0       -8.061518    4.560573   -1.188883
     28          6           0       -8.541927    3.621107   -2.023424
     29          6           0       -7.835182    2.363818   -1.651752
     30          6           0       -8.254466    5.975045   -1.201499
     31          6           0       -9.455047    3.877209   -3.203488
     32          6           0       -8.843265    3.939852   -4.605770
     33          7           0       -6.335981   -0.249886   -1.021827
     34          6           0       -7.402674   -0.021532   -2.021165
     35          6           0       -7.703590   -1.234145   -2.680575
     36          6           0       -6.869489   -2.178191   -2.019450
     37          6           0       -6.058768   -1.456178   -1.117606
     38          6           0       -8.586958   -1.497960   -3.791682
     39          6           0       -6.346198   -3.539840   -2.011016
     40          8           0       -6.598955   -4.536343   -2.699260
     41          6           0       -5.079807   -3.528920   -0.917313
     42          6           0       -5.397814   -4.613317    0.123836
     43          8           0       -5.632281   -4.465566    1.269450
     44          8           0       -4.919649   -5.820035   -0.377736
     45          6           0       -5.313817   -6.914457    0.465529
     46          6           0        2.355194   -5.121019    0.580857
     47          6           0        3.479347   -4.196401    0.887264
     48          6           0        4.058074   -3.229978    0.137197
     49          6           0        3.658172   -2.899454   -1.290002
     50          6           0        5.100802   -2.376462    0.778857
     51          6           0        6.555306   -2.742346    0.154514
     52          6           0        7.695525   -1.819230    0.636366
     53          6           0        9.056105   -1.989240   -0.097251
     54          6           0        9.500733   -3.435683    0.200373
     55          6           0       10.112787   -0.876440    0.470327
     56          6           0       11.489067   -0.843135   -0.168155
     57          6           0       12.246925    0.414939    0.221631
     58          6           0       13.605997    0.457176   -0.451438
     59          6           0       14.559506   -0.671201   -0.118968
     60          6           0       14.221718    1.859498   -0.155556
     61          6           0       15.536800    2.165925   -0.939152
     62          6           0       16.149768    3.550961   -0.751188
     63          6           0       17.320666    3.937107   -1.537534
     64          6           0       17.037750    4.073003   -3.053598
     65          6           0       17.946445    5.147217   -0.914060
     66          1           0       -2.530492    1.237677    3.716066
     67          1           0       -6.327330    5.503354    0.762470
     68          1           0       -9.028589    1.368847   -2.978409
     69          1           0       -3.433974   -3.421100    1.763755
     70          1           0       -1.761707   -1.232315    2.551567
     71          1           0       -2.756567   -2.872166    3.941649
     72          1           0       -3.215487   -1.363516    4.892477
     73          1           0       -4.284155   -2.013000    4.137076
     74          1           0       -2.315249   -3.328184   -0.369641
     75          1           0       -1.569957   -1.846756    0.165917
     76          1           0       -0.619721   -3.018155    2.149411
     77          1           0       -1.310495   -4.411146    1.707021
     78          1           0       -1.705558    3.564794    3.793800
     79          1           0       -2.692786    4.851272    4.551411
     80          1           0       -2.751460    3.218210    5.171998
     81          1           0       -5.642325    6.428093    2.419117
     82          1           0      -10.317190    3.116049   -3.321468
     83          1           0      -10.050587    4.720420   -3.114029
     84          1           0       -9.546271    3.930399   -5.447901
     85          1           0       -8.164012    4.898472   -4.692903
     86          1           0       -8.221093    2.962546   -4.745508
     87          1           0       -8.377297   -1.026005   -4.695692
     88          1           0       -8.416397   -2.478653   -3.930566
     89          1           0       -9.831858   -1.203340   -3.692928
     90          1           0       -4.167835   -3.870482   -1.540302
     91          1           0        2.814098   -6.053702    0.935536
     92          1           0        2.002681   -5.308104   -0.577781
     93          1           0        3.774096   -4.312172    1.882432
     94          1           0        2.662905   -3.293673   -1.515438
     95          1           0        3.594794   -1.748955   -1.495439
     96          1           0        4.470952   -3.203429   -1.919116
     97          1           0        4.840794   -1.298651    0.455237
     98          1           0        5.029958   -2.576072    1.969635
     99          1           0        6.982682   -3.625198    0.479423
    100          1           0        6.428198   -2.518089   -0.956663
    101          1           0        7.467177   -0.806055    0.703715
    102          1           0        8.011003   -2.122215    1.680473
    103          1           0        8.831084   -2.031721   -1.189535
    104          1           0        8.942014   -4.135052   -0.075386
    105          1           0       10.436039   -3.861853   -0.414097
    106          1           0        9.876471   -3.489971    1.316910
    107          1           0        9.442557    0.092689    0.230000
    108          1           0       10.234196   -0.751435    1.597394
    109          1           0       12.046740   -1.742478    0.222291
    110          1           0       11.408323   -1.109175   -1.367317
    111          1           0       11.537861    1.346929    0.033921
    112          1           0       12.254926    0.401859    1.446719
    113          1           0       13.442121    0.344910   -1.652982
    114          1           0       14.685271   -0.552380    0.872302
    115          1           0       14.177399   -1.579537   -0.513770
    116          1           0       15.592654   -0.524440   -0.705530
    117          1           0       13.462916    2.663022   -0.354345
    118          1           0       14.296241    1.979521    0.930136
    119          1           0       16.309433    1.311139   -0.759166
    120          1           0       15.099474    2.013605   -1.957533
    121          1           0       15.413615    4.406360   -0.899365
    122          1           0       16.207072    3.656403    0.353059
    123          1           0       18.079610    2.963331   -1.545144
    124          1           0       16.442589    4.852039   -3.292408
    125          1           0       17.913679    3.901574   -3.707441
    126          1           0       16.658515    3.122369   -3.482876
    127          1           0       18.239740    5.001164    0.157367
    128          1           0       18.889509    5.293258   -1.433681
    129          1           0       17.498145    6.150068   -0.989051
    130          1           0       -5.287248   -7.794401   -0.216338
    131          1           0       -6.304507   -6.743673    0.882288
    132          1           0       -4.565590   -7.011156    1.354206
    133          8           0       -7.792786    6.797054   -0.404994
    134          1           0       -9.124501    6.189660   -1.875291
 ---------------------------------------------------------------------

 SCF Done:  E(RCAM-B3LYP) =  -3043.45874397     A.U. after   16 cycles

 Excitation energies and oscillator strengths:

 Excited State   1:      Singlet-A      2.0115 eV  616.38 nm  f=0.1406  <S**2>=0.000
     243 -> 245       -0.11351
     243 -> 246       -0.27482
     244 -> 245        0.62093
     244 -> 246       -0.12077
 This state for optimization and/or second-order correction.
 Total Energy, E(TD-HF/TD-KS) =  -3043.38482261
 Copying the excited state density for this state as the 1-particle RhoCI density.

 The electronic state is 1-A.
 Alpha  occ. eigenvalues --  -46.82432 -19.23244 -19.21306 -19.17975 -19.17682
 Alpha  occ. eigenvalues --  -19.17619 -19.17285 -19.15749 -14.39650 -14.37230
 Alpha  occ. eigenvalues --  -14.36856 -14.36660 -10.34988 -10.34696 -10.31858
 Alpha  occ. eigenvalues --  -10.30516 -10.30355 -10.29018 -10.28715 -10.27950
 Alpha  occ. eigenvalues --  -10.27086 -10.26737 -10.26682 -10.26515 -10.26512
 Alpha  occ. eigenvalues --  -10.26100 -10.26021 -10.25591 -10.25413 -10.25347
 Alpha  occ. eigenvalues --  -10.25119 -10.25059 -10.25019 -10.25007 -10.24360
 Alpha  occ. eigenvalues --  -10.24253 -10.23875 -10.23837 -10.23692 -10.23390
 Alpha  occ. eigenvalues --  -10.23142 -10.23134 -10.23087 -10.23072 -10.22881
 Alpha  occ. eigenvalues --  -10.22867 -10.22839 -10.22775 -10.22560 -10.22518
 Alpha  occ. eigenvalues --  -10.22499 -10.22154 -10.21997 -10.21987 -10.21978
 Alpha  occ. eigenvalues --  -10.21917 -10.21160 -10.20818 -10.20787 -10.20619
 Alpha  occ. eigenvalues --  -10.20319 -10.20218 -10.20186 -10.19895 -10.19884
 Alpha  occ. eigenvalues --  -10.19447  -3.10858  -1.85808  -1.85332  -1.85255
 Alpha  occ. eigenvalues --   -1.13752  -1.13586  -1.08768  -1.06283  -1.05785
 Alpha  occ. eigenvalues --   -1.05324  -1.02846  -1.01872  -1.01391  -0.99288
 Alpha  occ. eigenvalues --   -0.98416  -0.88057  -0.87145  -0.86138  -0.85622
 Alpha  occ. eigenvalues --   -0.85483  -0.85203  -0.84263  -0.83996  -0.83886
 Alpha  occ. eigenvalues --   -0.83509  -0.83415  -0.82506  -0.80187  -0.79716
 Alpha  occ. eigenvalues --   -0.79468  -0.78457  -0.77735  -0.76563  -0.76352
 Alpha  occ. eigenvalues --   -0.75997  -0.75413  -0.74693  -0.73362  -0.72003
 Alpha  occ. eigenvalues --   -0.71748  -0.71191  -0.70913  -0.70357  -0.69919
 Alpha  occ. eigenvalues --   -0.69608  -0.69036  -0.67956  -0.67066  -0.66640
 Alpha  occ. eigenvalues --   -0.65825  -0.64828  -0.64110  -0.62662  -0.62421
 Alpha  occ. eigenvalues --   -0.62159  -0.60275  -0.59604  -0.59027  -0.58844
 Alpha  occ. eigenvalues --   -0.58553  -0.58051  -0.58021  -0.57766  -0.56896
 Alpha  occ. eigenvalues --   -0.56441  -0.55896  -0.55690  -0.55581  -0.54585
 Alpha  occ. eigenvalues --   -0.54157  -0.53358  -0.53304  -0.52760  -0.52415
 Alpha  occ. eigenvalues --   -0.51686  -0.51533  -0.51239  -0.51026  -0.50509
 Alpha  occ. eigenvalues --   -0.50195  -0.49748  -0.49581  -0.49384  -0.49125
 Alpha  occ. eigenvalues --   -0.49006  -0.48481  -0.48371  -0.48127  -0.47879
 Alpha  occ. eigenvalues --   -0.47589  -0.47307  -0.47210  -0.47065  -0.46981
 Alpha  occ. eigenvalues --   -0.46716  -0.46578  -0.46412  -0.45893  -0.45706
 Alpha  occ. eigenvalues --   -0.45443  -0.45388  -0.45319  -0.45110  -0.45027
 Alpha  occ. eigenvalues --   -0.44805  -0.44630  -0.44412  -0.44145  -0.43938
 Alpha  occ. eigenvalues --   -0.43784  -0.43477  -0.43233  -0.42942  -0.42836
 Alpha  occ. eigenvalues --   -0.42519  -0.42357  -0.42266  -0.42140  -0.41714
 Alpha  occ. eigenvalues --   -0.41568  -0.41432  -0.41351  -0.41282  -0.41180
 Alpha  occ. eigenvalues --   -0.41078  -0.40841  -0.40587  -0.40383  -0.40130
 Alpha  occ. eigenvalues --   -0.40024  -0.39771  -0.39674  -0.39343  -0.39174
 Alpha  occ. eigenvalues --   -0.39041  -0.38830  -0.38534  -0.38244  -0.37969
 Alpha  occ. eigenvalues --   -0.37780  -0.37667  -0.37345  -0.36935  -0.36874
 Alpha  occ. eigenvalues --   -0.36531  -0.36202  -0.36178  -0.35925  -0.35714
 Alpha  occ. eigenvalues --   -0.35626  -0.35234  -0.35071  -0.34933  -0.34624
 Alpha  occ. eigenvalues --   -0.34497  -0.34247  -0.33789  -0.33468  -0.32910
 Alpha  occ. eigenvalues --   -0.32879  -0.32676  -0.32583  -0.32378  -0.32080
 Alpha  occ. eigenvalues --   -0.31453  -0.31229  -0.30501  -0.29929  -0.29398
 Alpha  occ. eigenvalues --   -0.29275  -0.28435  -0.28242  -0.27803  -0.27595
 Alpha  occ. eigenvalues --   -0.27442  -0.26920  -0.23116  -0.21660
 Alpha virt. eigenvalues --   -0.08751  -0.07160  -0.02499  -0.00765   0.00680
 Alpha virt. eigenvalues --    0.02402   0.02638   0.03022   0.03637   0.03866
 Alpha virt. eigenvalues --    0.04372   0.05419   0.07171   0.07392   0.08592

 Mulliken charges:
               1
     1  Mg   0.827884
     2  C    0.038729
     3  C   -0.200621
     4  C   -0.141589
     5  C   -0.159765
     6  N   -0.611147
     7  C    0.327840
     8  C   -0.168128
     9  C   -0.146051
    10  C    0.343239
    11  C   -0.301217
    12  C   -0.160835
    13  C   -0.263591
    14  C    0.605673
    15  O   -0.518065
    16  O   -0.444278
    17  N   -0.705030
    18  C    0.273373
    19  C    0.061261
    20  C   -0.008989
    21  C    0.347892
    22  C   -0.391724
    23  C    0.262076
    24  O   -0.401395
    25  N   -0.672861
    26  C    0.245778
    27  C    0.006849
    28  C    0.039077
    29  C    0.290329
    30  C    0.249216
    31  C   -0.272662
    32  C   -0.297634
    33  N   -0.736328
    34  C    0.242612
    35  C    0.068503
    36  C    0.030722
    37  C    0.351064
    38  C   -0.376953
    39  C    0.328162
    40  O   -0.463353
    41  C   -0.347160
    42  C    0.614988
    43  O   -0.432287
    44  O   -0.457885
    45  C   -0.084452
    46  C    0.000761
    47  C   -0.154407
    48  C    0.171594
    49  C   -0.380716
    50  C   -0.233373
    51  C   -0.167793
    52  C   -0.178422
    53  C   -0.063995
    54  C   -0.296486
    55  C   -0.171320
    56  C   -0.160387
    57  C   -0.154077
    58  C   -0.050309
    59  C   -0.293779
    60  C   -0.184917
    61  C   -0.171870
    62  C   -0.144179
    63  C   -0.032981
    64  C   -0.316960
    65  C   -0.319363
    66  H    0.075585
    67  H    0.083061
    68  H    0.099427
    69  H    0.123206
    70  H    0.112201
    71  H    0.107897
    72  H    0.121807
    73  H    0.124406
    74  H    0.105266
    75  H    0.126673
    76  H    0.133962
    77  H    0.137763
    78  H    0.119129
    79  H    0.160375
    80  H    0.108593
    81  H    0.051037
    82  H    0.100904
    83  H    0.127860
    84  H    0.119662
    85  H    0.105062
    86  H    0.098251
    87  H    0.146015
    88  H    0.156295
    89  H    0.096299
    90  H    0.164079
    91  H    0.123953
    92  H    0.118911
    93  H    0.083544
    94  H    0.161088
    95  H    0.094683
    96  H    0.120792
    97  H    0.098873
    98  H    0.082378
    99  H    0.117200
   100  H    0.091384
   101  H    0.087055
   102  H    0.078698
   103  H    0.084115
   104  H    0.116690
   105  H    0.063012
   106  H    0.085025
   107  H    0.067218
   108  H    0.090014
   109  H    0.101816
   110  H    0.069031
   111  H    0.086769
   112  H    0.064153
   113  H    0.057578
   114  H    0.114166
   115  H    0.112143
   116  H    0.084894
   117  H    0.086309
   118  H    0.080708
   119  H    0.078698
   120  H    0.092531
   121  H    0.072877
   122  H    0.086864
   123  H    0.048986
   124  H    0.113287
   125  H    0.098628
   126  H    0.098405
   127  H    0.100555
   128  H    0.101149
   129  H    0.104402
   130  H    0.125861
   131  H    0.133340
   132  H    0.104379
   133  O   -0.427083
   134  H    0.051823
 Sum of Mulliken charges =   0.00000

 Dipole moment (field-independent basis, Debye):
    X=              1.1831    Y=             -4.1427    Z=             -0.8587  Tot=              4.3931
 Quadrupole moment (field-independent basis, Debye-Ang):
   XX=           -369.3245   YY=           -444.2744   ZZ=           -389.9593
   XY=              2.5932   XZ=             25.7064   YZ=            -37.1613

 Normal termination of Gaussian 09 at Mon Oct  7 10:50:19 2019.
