 Gaussian 09, Revision D.01,
 Gaussian 09:  ES64L-G09RevD.01 24-Apr-2013

 ----------------------------------------------------------------------
 # td=(NStates=1) iop(3/107=0140000000,3/108=0140000000) iop(3/107=0140
 000000,3/108=0140000000) CAM-B3LYP/6-31G(d,p)
 ----------------------------------------------------------------------

 --
 TD
 --
 Symbolic Z-matrix:
 Charge =  0 Multiplicity = 1

                         Standard orientation:
 ---------------------------------------------------------------------
 Center     Atomic      Atomic             Coordinates (Angstroms)
 Number     Number       Type             X           Y           Z
 ---------------------------------------------------------------------
      1         12           0       -5.601525    1.282830    0.192235
      2          6           0       -5.081717   -2.156529   -0.451654
      3          6           0       -3.486771    1.111908    2.806999
      4          6           0       -6.124831    4.615140    0.604483
      5          6           0       -8.009479    1.159877   -2.308202
      6          7           0       -4.381340   -0.275494    1.053219
      7          6           0       -4.294122   -1.655818    0.616497
      8          6           0       -3.285794   -2.301006    1.535701
      9          6           0       -2.974799   -1.338112    2.674279
     10          6           0       -3.548226   -0.082209    2.156681
     11          6           0       -3.499914   -1.675857    4.085818
     12          6           0       -2.060149   -2.760523    0.691504
     13          6           0       -1.007593   -3.527130    1.611527
     14          6           0        0.215861   -3.837710    0.742560
     15          8           0        0.543859   -3.380825   -0.314757
     16          8           0        0.978302   -4.779123    1.501764
     17          7           0       -4.943665    2.602303    1.549159
     18          6           0       -4.079907    2.403138    2.575877
     19          6           0       -3.847631    3.656981    3.299032
     20          6           0       -4.588589    4.645449    2.616369
     21          6           0       -5.305944    3.929650    1.517081
     22          6           0       -2.807428    3.820003    4.419988
     23          6           0       -4.512708    6.011765    2.959471
     24          8           0       -3.873104    6.605590    3.800242
     25          7           0       -6.908502    2.622072   -0.669014
     26          6           0       -6.864378    3.952703   -0.358751
     27          6           0       -7.861146    4.531520   -1.218601
     28          6           0       -8.364077    3.611528   -2.053195
     29          6           0       -7.771114    2.378787   -1.746033
     30          6           0       -8.302086    5.968506   -1.273805
     31          6           0       -9.438019    3.780925   -3.062375
     32          6           0       -8.788108    4.002386   -4.524573
     33          7           0       -6.340488   -0.148589   -1.149083
     34          6           0       -7.340498    0.000295   -2.163463
     35          6           0       -7.579967   -1.270038   -2.842429
     36          6           0       -6.719377   -2.186568   -2.197983
     37          6           0       -6.000082   -1.472887   -1.204991
     38          6           0       -8.500257   -1.597573   -4.000941
     39          6           0       -6.243317   -3.567107   -2.074244
     40          8           0       -6.547851   -4.499604   -2.802062
     41          6           0       -5.105160   -3.527308   -0.926823
     42          6           0       -5.365115   -4.634399    0.099511
     43          8           0       -5.835393   -4.458929    1.129570
     44          8           0       -5.036052   -5.842870   -0.398317
     45          6           0       -5.458873   -6.997001    0.508022
     46          6           0        2.264496   -4.992482    0.838039
     47          6           0        3.340977   -3.996749    1.195223
     48          6           0        4.084186   -3.233683    0.220041
     49          6           0        3.673274   -3.241574   -1.211641
     50          6           0        5.172242   -2.393315    0.697300
     51          6           0        6.551548   -2.709766   -0.031868
     52          6           0        7.701809   -1.749419    0.421743
     53          6           0        9.119468   -1.963712   -0.238816
     54          6           0        9.562751   -3.374753   -0.041812
     55          6           0       10.073508   -0.849119    0.335853
     56          6           0       11.393283   -0.909478   -0.361575
     57          6           0       12.284015    0.312356    0.187560
     58          6           0       13.586214    0.377252   -0.566549
     59          6           0       14.541335   -0.726633   -0.121688
     60          6           0       14.289197    1.748335   -0.273078
     61          6           0       15.470608    2.172791   -1.134014
     62          6           0       15.952822    3.497937   -0.661279
     63          6           0       17.390019    3.886713   -1.378014
     64          6           0       17.333187    3.894824   -2.867535
     65          6           0       17.864094    5.203221   -0.764344
     66          1           0       -2.885368    0.969856    3.663525
     67          1           0       -6.261834    5.794815    0.541396
     68          1           0       -8.764195    0.989311   -3.221167
     69          1           0       -3.791228   -3.440994    1.750526
     70          1           0       -1.865516   -1.097064    2.684918
     71          1           0       -3.225285   -2.626202    4.485014
     72          1           0       -3.336913   -0.909102    4.922023
     73          1           0       -4.448149   -1.812682    4.200650
     74          1           0       -2.372748   -3.280576   -0.191196
     75          1           0       -1.452231   -1.780015    0.172478
     76          1           0       -0.672177   -2.758894    2.374897
     77          1           0       -1.382433   -4.411405    2.166764
     78          1           0       -1.864009    3.725843    3.755648
     79          1           0       -2.883094    4.828850    5.092962
     80          1           0       -2.677703    2.982853    5.398759
     81          1           0       -5.051374    6.782033    2.213822
     82          1           0      -10.268310    3.098308   -3.202714
     83          1           0      -10.200955    4.631835   -2.959005
     84          1           0       -9.652295    4.396618   -5.274003
     85          1           0       -8.141683    4.945624   -4.411460
     86          1           0       -8.332658    2.950205   -4.938030
     87          1           0       -7.924862   -1.072035   -4.896249
     88          1           0       -8.583015   -2.583710   -4.270716
     89          1           0       -9.661476   -1.084528   -3.919219
     90          1           0       -4.082540   -3.951473   -1.501032
     91          1           0        2.544272   -5.959417    1.273793
     92          1           0        2.153862   -4.905641   -0.340619
     93          1           0        3.576562   -3.905626    2.261902
     94          1           0        2.575667   -3.415036   -1.211337
     95          1           0        3.828302   -2.188744   -1.536812
     96          1           0        4.156043   -4.083984   -1.803329
     97          1           0        4.920605   -1.332219    0.532237
     98          1           0        5.303923   -2.437921    1.832956
     99          1           0        6.945243   -3.709732    0.613627
    100          1           0        6.364791   -2.617826   -1.194718
    101          1           0        7.509050   -0.708521    0.417980
    102          1           0        7.803256   -2.158221    1.646355
    103          1           0        9.068013   -1.762400   -1.381822
    104          1           0        8.997626   -4.112474   -0.626693
    105          1           0       10.549639   -3.661510   -0.261006
    106          1           0        9.270325   -3.715690    1.028135
    107          1           0        9.618420    0.105773    0.253128
    108          1           0       10.339237   -1.054610    1.357463
    109          1           0       11.962564   -1.842980   -0.371539
    110          1           0       11.166284   -0.852183   -1.573312
    111          1           0       11.638675    1.184665    0.009189
    112          1           0       12.470171    0.182886    1.278623
    113          1           0       13.524527    0.467398   -1.701558
    114          1           0       14.700529   -0.681660    0.765794
    115          1           0       14.135770   -1.866421   -0.351663
    116          1           0       15.465407   -0.594659   -0.702356
    117          1           0       13.609020    2.778713   -0.264920
    118          1           0       14.635046    1.722339    0.795069
    119          1           0       16.554840    1.532002   -1.152133
    120          1           0       14.988460    2.152005   -2.144438
    121          1           0       15.325471    4.361412   -0.889093
    122          1           0       16.283819    3.501097    0.502353
    123          1           0       17.937187    3.030399   -1.173789
    124          1           0       16.559973    4.773623   -3.277995
    125          1           0       18.350407    4.035185   -3.283407
    126          1           0       17.053725    2.830605   -3.199414
    127          1           0       18.064565    5.061263    0.289604
    128          1           0       18.826670    5.446092   -1.294345
    129          1           0       17.104430    5.928674   -0.779545
    130          1           0       -5.204155   -8.021731   -0.185965
    131          1           0       -6.585852   -6.721634    0.691759
    132          1           0       -4.901594   -6.997734    1.513394
    133          8           0       -7.858914    6.871900   -0.521009
    134          1           0       -9.025554    6.128671   -2.101664
 ---------------------------------------------------------------------

 SCF Done:  E(RCAM-B3LYP) =  -3043.43011185     A.U. after   16 cycles

 Excitation energies and oscillator strengths:

 Excited State   1:      Singlet-A      2.0386 eV  608.19 nm  f=0.1746  <S**2>=0.000
     243 -> 246       -0.28661
     244 -> 245        0.63905
 This state for optimization and/or second-order correction.
 Total Energy, E(TD-HF/TD-KS) =  -3043.35519511
 Copying the excited state density for this state as the 1-particle RhoCI density.

 The electronic state is 1-A.
 Alpha  occ. eigenvalues --  -46.81416 -19.22280 -19.21563 -19.19258 -19.17766
 Alpha  occ. eigenvalues --  -19.17617 -19.17328 -19.16354 -14.38871 -14.37874
 Alpha  occ. eigenvalues --  -14.36870 -14.36351 -10.35767 -10.34649 -10.31901
 Alpha  occ. eigenvalues --  -10.30898 -10.30797 -10.29839 -10.28644 -10.27835
 Alpha  occ. eigenvalues --  -10.27574 -10.27288 -10.27094 -10.26632 -10.26266
 Alpha  occ. eigenvalues --  -10.26226 -10.26022 -10.25997 -10.25964 -10.25953
 Alpha  occ. eigenvalues --  -10.25825 -10.25682 -10.25558 -10.25318 -10.25292
 Alpha  occ. eigenvalues --  -10.25153 -10.25098 -10.24858 -10.24720 -10.24125
 Alpha  occ. eigenvalues --  -10.24035 -10.23882 -10.23741 -10.23606 -10.23284
 Alpha  occ. eigenvalues --  -10.22713 -10.22639 -10.22496 -10.22447 -10.22355
 Alpha  occ. eigenvalues --  -10.22269 -10.21960 -10.21822 -10.21820 -10.21730
 Alpha  occ. eigenvalues --  -10.21498 -10.21466 -10.21442 -10.21427 -10.21246
 Alpha  occ. eigenvalues --  -10.21110 -10.20512 -10.20061 -10.19996 -10.19611
 Alpha  occ. eigenvalues --  -10.19502  -3.09922  -1.84873  -1.84382  -1.84330
 Alpha  occ. eigenvalues --   -1.15322  -1.12521  -1.06821  -1.06379  -1.06051
 Alpha  occ. eigenvalues --   -1.04987  -1.04895  -1.00449  -0.99621  -0.98845
 Alpha  occ. eigenvalues --   -0.97682  -0.89381  -0.85731  -0.85439  -0.85279
 Alpha  occ. eigenvalues --   -0.84894  -0.84422  -0.83976  -0.83969  -0.83252
 Alpha  occ. eigenvalues --   -0.83162  -0.82863  -0.81680  -0.80055  -0.79241
 Alpha  occ. eigenvalues --   -0.78531  -0.77754  -0.77128  -0.76458  -0.76266
 Alpha  occ. eigenvalues --   -0.75400  -0.74884  -0.73912  -0.72628  -0.71876
 Alpha  occ. eigenvalues --   -0.71141  -0.70952  -0.70844  -0.70064  -0.69523
 Alpha  occ. eigenvalues --   -0.68926  -0.68562  -0.67093  -0.66491  -0.65545
 Alpha  occ. eigenvalues --   -0.65509  -0.64421  -0.63517  -0.62813  -0.61212
 Alpha  occ. eigenvalues --   -0.60644  -0.60246  -0.59795  -0.58535  -0.58354
 Alpha  occ. eigenvalues --   -0.57928  -0.57633  -0.57499  -0.57201  -0.56275
 Alpha  occ. eigenvalues --   -0.56172  -0.55818  -0.54852  -0.54507  -0.54401
 Alpha  occ. eigenvalues --   -0.54213  -0.53336  -0.53001  -0.52621  -0.52190
 Alpha  occ. eigenvalues --   -0.51710  -0.51124  -0.51114  -0.50503  -0.50417
 Alpha  occ. eigenvalues --   -0.50280  -0.49653  -0.49579  -0.49195  -0.48740
 Alpha  occ. eigenvalues --   -0.48632  -0.48338  -0.47911  -0.47543  -0.47511
 Alpha  occ. eigenvalues --   -0.47386  -0.47011  -0.46666  -0.46601  -0.46501
 Alpha  occ. eigenvalues --   -0.46374  -0.46142  -0.45907  -0.45811  -0.45563
 Alpha  occ. eigenvalues --   -0.45184  -0.45182  -0.45052  -0.44866  -0.44800
 Alpha  occ. eigenvalues --   -0.44732  -0.44494  -0.44091  -0.43989  -0.43655
 Alpha  occ. eigenvalues --   -0.43491  -0.43362  -0.43128  -0.42666  -0.42568
 Alpha  occ. eigenvalues --   -0.42498  -0.42370  -0.41962  -0.41733  -0.41464
 Alpha  occ. eigenvalues --   -0.41400  -0.41272  -0.41096  -0.40941  -0.40705
 Alpha  occ. eigenvalues --   -0.40585  -0.40417  -0.40231  -0.39921  -0.39821
 Alpha  occ. eigenvalues --   -0.39606  -0.39502  -0.39293  -0.39276  -0.38944
 Alpha  occ. eigenvalues --   -0.38760  -0.38528  -0.38441  -0.38253  -0.38073
 Alpha  occ. eigenvalues --   -0.38062  -0.37875  -0.37758  -0.37390  -0.37083
 Alpha  occ. eigenvalues --   -0.36888  -0.36842  -0.36183  -0.35953  -0.35870
 Alpha  occ. eigenvalues --   -0.35727  -0.35532  -0.35326  -0.35137  -0.34364
 Alpha  occ. eigenvalues --   -0.34217  -0.34063  -0.33888  -0.33781  -0.33153
 Alpha  occ. eigenvalues --   -0.33077  -0.32845  -0.32344  -0.32113  -0.31987
 Alpha  occ. eigenvalues --   -0.31516  -0.31283  -0.31252  -0.29901  -0.29054
 Alpha  occ. eigenvalues --   -0.28813  -0.28171  -0.28071  -0.27937  -0.27631
 Alpha  occ. eigenvalues --   -0.26491  -0.25097  -0.23136  -0.22135
 Alpha virt. eigenvalues --   -0.08976  -0.06733  -0.01920  -0.01012   0.00477
 Alpha virt. eigenvalues --    0.02508   0.02944   0.03039   0.03745   0.04501
 Alpha virt. eigenvalues --    0.04918   0.05697   0.07273   0.07742   0.08107

 Mulliken charges:
               1
     1  Mg   0.822759
     2  C    0.142791
     3  C   -0.181142
     4  C   -0.163397
     5  C   -0.170300
     6  N   -0.639867
     7  C    0.318601
     8  C   -0.168756
     9  C   -0.129479
    10  C    0.341412
    11  C   -0.319414
    12  C   -0.179285
    13  C   -0.261874
    14  C    0.626134
    15  O   -0.438690
    16  O   -0.492944
    17  N   -0.721013
    18  C    0.317978
    19  C    0.050800
    20  C   -0.003053
    21  C    0.319798
    22  C   -0.362489
    23  C    0.214207
    24  O   -0.418855
    25  N   -0.742183
    26  C    0.343005
    27  C   -0.062185
    28  C    0.085939
    29  C    0.301726
    30  C    0.262073
    31  C   -0.289557
    32  C   -0.297455
    33  N   -0.719096
    34  C    0.284004
    35  C    0.016627
    36  C    0.057501
    37  C    0.262664
    38  C   -0.363688
    39  C    0.358209
    40  O   -0.451454
    41  C   -0.374065
    42  C    0.610638
    43  O   -0.427695
    44  O   -0.464574
    45  C   -0.088362
    46  C   -0.003748
    47  C   -0.133783
    48  C    0.144768
    49  C   -0.389625
    50  C   -0.234743
    51  C   -0.166955
    52  C   -0.155343
    53  C   -0.042650
    54  C   -0.316157
    55  C   -0.156467
    56  C   -0.180028
    57  C   -0.163758
    58  C   -0.061335
    59  C   -0.279546
    60  C   -0.174791
    61  C   -0.150648
    62  C   -0.162877
    63  C   -0.066288
    64  C   -0.285292
    65  C   -0.306725
    66  H    0.070563
    67  H    0.167740
    68  H    0.089482
    69  H    0.105827
    70  H    0.118283
    71  H    0.113885
    72  H    0.106138
    73  H    0.143480
    74  H    0.123786
    75  H    0.091451
    76  H    0.142335
    77  H    0.140042
    78  H    0.134413
    79  H    0.155713
    80  H    0.084564
    81  H    0.037173
    82  H    0.120682
    83  H    0.106820
    84  H    0.088498
    85  H    0.117095
    86  H    0.104314
    87  H    0.124254
    88  H    0.161681
    89  H    0.098587
    90  H    0.139812
    91  H    0.111821
    92  H    0.108662
    93  H    0.076693
    94  H    0.156163
    95  H    0.106509
    96  H    0.121102
    97  H    0.100218
    98  H    0.092140
    99  H    0.088964
   100  H    0.093615
   101  H    0.089469
   102  H    0.038935
   103  H    0.071997
   104  H    0.108997
   105  H    0.106517
   106  H    0.083092
   107  H    0.096153
   108  H    0.096956
   109  H    0.099550
   110  H    0.050108
   111  H    0.092815
   112  H    0.090759
   113  H    0.075004
   114  H    0.114690
   115  H    0.067957
   116  H    0.103096
   117  H    0.064275
   118  H    0.077256
   119  H    0.057791
   120  H    0.098837
   121  H    0.092202
   122  H    0.072659
   123  H    0.090077
   124  H    0.069079
   125  H    0.099299
   126  H    0.093802
   127  H    0.100652
   128  H    0.092064
   129  H    0.110489
   130  H    0.123659
   131  H    0.142057
   132  H    0.134052
   133  O   -0.445793
   134  H    0.078941
 Sum of Mulliken charges =   0.00000

 Dipole moment (field-independent basis, Debye):
    X=              1.1757    Y=             -5.2490    Z=             -0.5715  Tot=              5.4094
 Quadrupole moment (field-independent basis, Debye-Ang):
   XX=           -373.3864   YY=           -447.1392   ZZ=           -393.1709
   XY=             16.7955   XZ=             24.4252   YZ=            -35.5903

 Normal termination of Gaussian 09 at Sat Oct  5 12:34:03 2019.
