 Gaussian 09, Revision D.01,
 Gaussian 09:  ES64L-G09RevD.01 24-Apr-2013

 ----------------------------------------------------------------------
 # td=(NStates=1) iop(3/107=0140000000,3/108=0140000000) iop(3/107=0140
 000000,3/108=0140000000) CAM-B3LYP/6-31G(d,p)
 ----------------------------------------------------------------------

 --
 TD
 --
 Symbolic Z-matrix:
 Charge =  0 Multiplicity = 1

                         Standard orientation:
 ---------------------------------------------------------------------
 Center     Atomic      Atomic             Coordinates (Angstroms)
 Number     Number       Type             X           Y           Z
 ---------------------------------------------------------------------
      1         12           0       -5.583485    1.239344    0.182540
      2          6           0       -5.076125   -2.093136   -0.258442
      3          6           0       -3.368494    1.116865    2.921408
      4          6           0       -6.136490    4.529521    0.657743
      5          6           0       -7.962110    1.266503   -2.300080
      6          7           0       -4.396086   -0.246771    1.102983
      7          6           0       -4.319947   -1.572451    0.748767
      8          6           0       -3.280164   -2.354523    1.598787
      9          6           0       -3.016956   -1.367607    2.760129
     10          6           0       -3.571839    0.030438    2.233399
     11          6           0       -3.690048   -1.896924    3.890484
     12          6           0       -1.998401   -2.675304    0.738349
     13          6           0       -0.994237   -3.581860    1.459505
     14          6           0        0.190456   -3.923692    0.633418
     15          8           0        0.389726   -3.348672   -0.460419
     16          8           0        1.028170   -4.707264    1.336402
     17          7           0       -4.878638    2.648864    1.561373
     18          6           0       -4.031504    2.410033    2.646979
     19          6           0       -3.720104    3.598234    3.373394
     20          6           0       -4.425704    4.635763    2.621646
     21          6           0       -5.263443    3.939630    1.536138
     22          6           0       -2.769398    3.664982    4.397034
     23          6           0       -4.571437    6.003954    2.969755
     24          8           0       -4.110022    6.437353    4.019343
     25          7           0       -6.688993    2.698450   -0.749943
     26          6           0       -6.831090    4.025340   -0.379999
     27          6           0       -7.750565    4.684090   -1.316159
     28          6           0       -8.259675    3.692330   -2.199598
     29          6           0       -7.641758    2.455530   -1.707385
     30          6           0       -8.203402    6.097897   -1.182395
     31          6           0       -9.260203    3.828265   -3.347259
     32          6           0       -8.566657    4.144023   -4.697712
     33          7           0       -6.360474   -0.103058   -1.100495
     34          6           0       -7.329605    0.002876   -2.039877
     35          6           0       -7.482253   -1.289638   -2.730566
     36          6           0       -6.656809   -2.112656   -2.121072
     37          6           0       -5.948028   -1.431922   -1.154371
     38          6           0       -8.457308   -1.582679   -3.824466
     39          6           0       -6.192497   -3.481742   -2.089324
     40          8           0       -6.623211   -4.501469   -2.700711
     41          6           0       -5.010204   -3.481320   -0.933523
     42          6           0       -5.279810   -4.637198    0.078730
     43          8           0       -5.696977   -4.533308    1.176521
     44          8           0       -5.012216   -5.756936   -0.507938
     45          6           0       -5.321149   -6.986410    0.278171
     46          6           0        2.222630   -5.088160    0.706941
     47          6           0        3.329604   -4.113288    1.010438
     48          6           0        3.964624   -3.317837    0.141348
     49          6           0        3.693463   -3.171548   -1.357977
     50          6           0        5.125160   -2.420839    0.660472
     51          6           0        6.413090   -2.687767    0.061443
     52          6           0        7.571004   -1.955259    0.626396
     53          6           0        8.953471   -1.976242   -0.080522
     54          6           0        9.571328   -3.433724    0.117227
     55          6           0        9.980448   -0.988366    0.501026
     56          6           0       11.291618   -0.940483   -0.297936
     57          6           0       12.150506    0.200386    0.193599
     58          6           0       13.368376    0.417552   -0.620629
     59          6           0       14.427074   -0.777850   -0.562972
     60          6           0       14.190271    1.791807   -0.310115
     61          6           0       15.298315    2.242619   -1.128025
     62          6           0       16.071802    3.555712   -0.582836
     63          6           0       17.351408    3.851456   -1.297624
     64          6           0       17.274941    4.105442   -2.804547
     65          6           0       17.869427    5.089478   -0.735111
     66          1           0       -2.704106    1.091091    3.597075
     67          1           0       -6.513882    5.596193    0.684865
     68          1           0       -8.528367    1.212487   -3.373022
     69          1           0       -3.599798   -3.366630    2.050836
     70          1           0       -1.822728   -1.140775    3.034522
     71          1           0       -3.052624   -2.898917    4.444538
     72          1           0       -3.833918   -1.205441    4.754088
     73          1           0       -4.707585   -1.975065    3.685170
     74          1           0       -2.269798   -3.158523   -0.237497
     75          1           0       -1.717397   -1.615815    0.275106
     76          1           0       -0.730133   -3.252852    2.451922
     77          1           0       -1.576902   -4.654792    1.678877
     78          1           0       -1.807401    3.134587    3.991062
     79          1           0       -2.386590    4.656892    4.775214
     80          1           0       -3.000331    3.074941    5.371570
     81          1           0       -4.913871    6.669746    2.176774
     82          1           0       -9.751883    2.762279   -3.572474
     83          1           0      -10.200368    4.697212   -3.047648
     84          1           0       -9.367107    4.064334   -5.401011
     85          1           0       -8.115450    5.017053   -4.856181
     86          1           0       -8.185185    3.252827   -4.778955
     87          1           0       -8.419827   -1.116462   -4.866764
     88          1           0       -8.383746   -2.645733   -4.178473
     89          1           0       -9.475906   -1.355710   -3.540672
     90          1           0       -4.147014   -3.844799   -1.609200
     91          1           0        2.407377   -6.041474    1.224682
     92          1           0        1.987071   -5.212838   -0.314591
     93          1           0        3.718371   -4.248788    2.102275
     94          1           0        2.452501   -3.409044   -1.302094
     95          1           0        3.664983   -2.250400   -1.653248
     96          1           0        4.350755   -3.855418   -1.879203
     97          1           0        4.982338   -1.426535    0.228621
     98          1           0        4.978675   -2.369792    1.690059
     99          1           0        6.567242   -3.673836    0.293892
    100          1           0        6.384118   -2.602391   -1.040346
    101          1           0        7.449021   -0.909619    0.609704
    102          1           0        7.950302   -1.990788    1.704927
    103          1           0        8.758334   -1.543890   -1.203030
    104          1           0        8.859157   -4.259066    0.069716
    105          1           0       10.426908   -3.595373   -0.493228
    106          1           0        9.968754   -3.411520    1.213213
    107          1           0        9.404443    0.003058    0.480967
    108          1           0       10.104542   -1.272507    1.384980
    109          1           0       11.821011   -1.743640   -0.186799
    110          1           0       10.882801   -0.734147   -1.320242
    111          1           0       11.532056    1.028280   -0.179723
    112          1           0       12.243452    0.317108    1.392751
    113          1           0       12.996019    0.508683   -1.658857
    114          1           0       14.678454   -0.754383    0.578936
    115          1           0       13.771971   -1.656381   -0.713488
    116          1           0       15.210003   -0.732233   -1.106516
    117          1           0       13.475756    2.680818   -0.225028
    118          1           0       14.591435    1.700685    0.766489
    119          1           0       16.035089    1.397289   -1.168659
    120          1           0       14.867575    2.526637   -2.196196
    121          1           0       15.403195    4.510783   -0.666695
    122          1           0       16.083017    3.718921    0.546409
    123          1           0       18.071662    3.130294   -0.922768
    124          1           0       16.284433    4.826102   -2.860288
    125          1           0       18.216172    4.280026   -3.337833
    126          1           0       17.019177    3.003956   -3.243882
    127          1           0       17.753826    5.213265    0.322292
    128          1           0       18.760329    5.584885   -1.023035
    129          1           0       17.211149    5.924901   -0.888705
    130          1           0       -4.949434   -7.918971   -0.393765
    131          1           0       -6.224603   -7.090687    0.379583
    132          1           0       -4.553186   -7.064872    1.046410
    133          8           0       -7.682033    6.911464   -0.418347
    134          1           0       -8.990302    6.309110   -2.027348
 ---------------------------------------------------------------------

 SCF Done:  E(RCAM-B3LYP) =  -3043.34303738     A.U. after   16 cycles

 Excitation energies and oscillator strengths:

 Excited State   1:      Singlet-A      1.9307 eV  642.17 nm  f=0.2690  <S**2>=0.000
     243 -> 246        0.21804
     244 -> 245        0.66722
 This state for optimization and/or second-order correction.
 Total Energy, E(TD-HF/TD-KS) =  -3043.27208522
 Copying the excited state density for this state as the 1-particle RhoCI density.

 The electronic state is 1-A.
 Alpha  occ. eigenvalues --  -46.81438 -19.23151 -19.22465 -19.18690 -19.17774
 Alpha  occ. eigenvalues --  -19.17756 -19.16342 -19.15235 -14.39121 -14.37302
 Alpha  occ. eigenvalues --  -14.37207 -14.36682 -10.35659 -10.34095 -10.32289
 Alpha  occ. eigenvalues --  -10.32089 -10.28125 -10.28090 -10.27544 -10.27313
 Alpha  occ. eigenvalues --  -10.27264 -10.26973 -10.26922 -10.26874 -10.26772
 Alpha  occ. eigenvalues --  -10.26768 -10.26256 -10.26022 -10.25937 -10.25750
 Alpha  occ. eigenvalues --  -10.25583 -10.25338 -10.25044 -10.24604 -10.24377
 Alpha  occ. eigenvalues --  -10.24360 -10.24126 -10.24094 -10.23877 -10.23293
 Alpha  occ. eigenvalues --  -10.23212 -10.23161 -10.23019 -10.22968 -10.22676
 Alpha  occ. eigenvalues --  -10.22522 -10.22481 -10.22208 -10.22070 -10.22018
 Alpha  occ. eigenvalues --  -10.21988 -10.21893 -10.21694 -10.21165 -10.20939
 Alpha  occ. eigenvalues --  -10.20938 -10.20643 -10.20603 -10.20424 -10.20381
 Alpha  occ. eigenvalues --  -10.20334 -10.20235 -10.19977 -10.19574 -10.19478
 Alpha  occ. eigenvalues --  -10.17892  -3.09998  -1.84946  -1.84459  -1.84412
 Alpha  occ. eigenvalues --   -1.15092  -1.14287  -1.07253  -1.05592  -1.04768
 Alpha  occ. eigenvalues --   -1.04710  -1.04601  -1.00960  -0.99618  -0.98721
 Alpha  occ. eigenvalues --   -0.97757  -0.88571  -0.86822  -0.86110  -0.85762
 Alpha  occ. eigenvalues --   -0.85512  -0.85233  -0.85061  -0.84489  -0.83659
 Alpha  occ. eigenvalues --   -0.83523  -0.82937  -0.82258  -0.80846  -0.80254
 Alpha  occ. eigenvalues --   -0.79891  -0.79132  -0.78542  -0.78025  -0.77087
 Alpha  occ. eigenvalues --   -0.75556  -0.75345  -0.73973  -0.73464  -0.72361
 Alpha  occ. eigenvalues --   -0.71535  -0.70719  -0.70653  -0.70499  -0.69955
 Alpha  occ. eigenvalues --   -0.69723  -0.69552  -0.66764  -0.66514  -0.66375
 Alpha  occ. eigenvalues --   -0.65823  -0.65266  -0.64633  -0.63047  -0.62537
 Alpha  occ. eigenvalues --   -0.61225  -0.60459  -0.60260  -0.59329  -0.59059
 Alpha  occ. eigenvalues --   -0.58800  -0.58219  -0.57861  -0.57307  -0.56861
 Alpha  occ. eigenvalues --   -0.56447  -0.56275  -0.55767  -0.55122  -0.54727
 Alpha  occ. eigenvalues --   -0.54271  -0.54075  -0.53614  -0.52830  -0.52781
 Alpha  occ. eigenvalues --   -0.52713  -0.51958  -0.51476  -0.51328  -0.51029
 Alpha  occ. eigenvalues --   -0.50713  -0.50189  -0.50112  -0.49785  -0.49265
 Alpha  occ. eigenvalues --   -0.49170  -0.48972  -0.48387  -0.48307  -0.48171
 Alpha  occ. eigenvalues --   -0.47754  -0.47584  -0.47407  -0.47351  -0.47111
 Alpha  occ. eigenvalues --   -0.46873  -0.46651  -0.46587  -0.46339  -0.46080
 Alpha  occ. eigenvalues --   -0.45812  -0.45668  -0.45565  -0.45097  -0.45037
 Alpha  occ. eigenvalues --   -0.44944  -0.44774  -0.44385  -0.44295  -0.43993
 Alpha  occ. eigenvalues --   -0.43520  -0.43391  -0.43186  -0.42943  -0.42668
 Alpha  occ. eigenvalues --   -0.42521  -0.42322  -0.42150  -0.42003  -0.41725
 Alpha  occ. eigenvalues --   -0.41336  -0.41115  -0.40888  -0.40761  -0.40689
 Alpha  occ. eigenvalues --   -0.40479  -0.40297  -0.40178  -0.40061  -0.39745
 Alpha  occ. eigenvalues --   -0.39743  -0.39494  -0.39358  -0.39256  -0.39078
 Alpha  occ. eigenvalues --   -0.38869  -0.38800  -0.38524  -0.38356  -0.38226
 Alpha  occ. eigenvalues --   -0.37950  -0.37776  -0.37223  -0.37199  -0.36906
 Alpha  occ. eigenvalues --   -0.36695  -0.35865  -0.35777  -0.35450  -0.35264
 Alpha  occ. eigenvalues --   -0.35214  -0.34920  -0.34638  -0.34567  -0.34105
 Alpha  occ. eigenvalues --   -0.34020  -0.33913  -0.33667  -0.33488  -0.33250
 Alpha  occ. eigenvalues --   -0.32813  -0.32107  -0.31873  -0.31776  -0.31675
 Alpha  occ. eigenvalues --   -0.31451  -0.31029  -0.30510  -0.30317  -0.30050
 Alpha  occ. eigenvalues --   -0.29158  -0.28983  -0.28373  -0.27986  -0.27821
 Alpha  occ. eigenvalues --   -0.26790  -0.26249  -0.23584  -0.21863
 Alpha virt. eigenvalues --   -0.09612  -0.06892  -0.01869  -0.01188   0.00412
 Alpha virt. eigenvalues --    0.01948   0.03476   0.04026   0.04353   0.04505
 Alpha virt. eigenvalues --    0.05135   0.05858   0.06269   0.07739   0.08353

 Mulliken charges:
               1
     1  Mg   0.818533
     2  C    0.108097
     3  C   -0.112040
     4  C   -0.179398
     5  C   -0.181382
     6  N   -0.655328
     7  C    0.318348
     8  C   -0.146636
     9  C   -0.122157
    10  C    0.329242
    11  C   -0.280466
    12  C   -0.160348
    13  C   -0.260503
    14  C    0.615177
    15  O   -0.475856
    16  O   -0.440020
    17  N   -0.695907
    18  C    0.274133
    19  C    0.120755
    20  C   -0.060952
    21  C    0.342014
    22  C   -0.419721
    23  C    0.227829
    24  O   -0.435449
    25  N   -0.693184
    26  C    0.301887
    27  C   -0.048199
    28  C    0.076233
    29  C    0.323613
    30  C    0.260646
    31  C   -0.274471
    32  C   -0.282956
    33  N   -0.719541
    34  C    0.268682
    35  C    0.010035
    36  C    0.144524
    37  C    0.208015
    38  C   -0.416828
    39  C    0.338818
    40  O   -0.473318
    41  C   -0.350889
    42  C    0.621993
    43  O   -0.466282
    44  O   -0.435375
    45  C   -0.069623
    46  C   -0.005348
    47  C   -0.132234
    48  C    0.106005
    49  C   -0.373360
    50  C   -0.212836
    51  C   -0.166195
    52  C   -0.165945
    53  C   -0.074755
    54  C   -0.314439
    55  C   -0.163944
    56  C   -0.169964
    57  C   -0.165889
    58  C   -0.063821
    59  C   -0.305175
    60  C   -0.166579
    61  C   -0.161858
    62  C   -0.182519
    63  C   -0.038306
    64  C   -0.284448
    65  C   -0.317490
    66  H    0.056416
    67  H    0.138427
    68  H    0.088818
    69  H    0.123380
    70  H    0.070135
    71  H    0.074773
    72  H    0.095198
    73  H    0.136237
    74  H    0.111690
    75  H    0.106261
    76  H    0.147113
    77  H    0.105716
    78  H    0.109548
    79  H    0.158324
    80  H    0.123515
    81  H    0.078782
    82  H    0.101355
    83  H    0.077080
    84  H    0.112952
    85  H    0.130644
    86  H    0.123321
    87  H    0.119402
    88  H    0.148041
    89  H    0.137007
    90  H    0.156159
    91  H    0.112314
    92  H    0.124826
    93  H    0.076797
    94  H    0.125502
    95  H    0.128865
    96  H    0.125920
    97  H    0.095389
    98  H    0.098746
    99  H    0.105118
   100  H    0.099945
   101  H    0.084470
   102  H    0.077108
   103  H    0.045360
   104  H    0.103633
   105  H    0.112024
   106  H    0.082265
   107  H    0.074913
   108  H    0.095924
   109  H    0.108530
   110  H    0.093948
   111  H    0.098431
   112  H    0.072790
   113  H    0.077910
   114  H    0.084195
   115  H    0.094153
   116  H    0.114213
   117  H    0.070806
   118  H    0.070646
   119  H    0.088345
   120  H    0.084287
   121  H    0.067045
   122  H    0.091952
   123  H    0.096720
   124  H    0.093507
   125  H    0.117467
   126  H    0.074122
   127  H    0.087716
   128  H    0.099803
   129  H    0.088737
   130  H    0.103498
   131  H    0.147444
   132  H    0.136382
   133  O   -0.420037
   134  H    0.065332
 Sum of Mulliken charges =   0.00000

 Dipole moment (field-independent basis, Debye):
    X=              1.1019    Y=             -5.4199    Z=             -2.2847  Tot=              5.9841
 Quadrupole moment (field-independent basis, Debye-Ang):
   XX=           -380.0694   YY=           -430.2833   ZZ=           -394.2340
   XY=              7.7915   XZ=             34.1065   YZ=            -40.3257

 Normal termination of Gaussian 09 at Thu Oct  3 15:58:44 2019.
