 Gaussian 09, Revision D.01,
 Gaussian 09:  ES64L-G09RevD.01 24-Apr-2013

 ----------------------------------------------------------------------
 # td=(NStates=1) iop(3/107=0140000000,3/108=0140000000) iop(3/107=0140
 000000,3/108=0140000000) CAM-B3LYP/6-31G(d,p)
 ----------------------------------------------------------------------

 --
 TD
 --
 Symbolic Z-matrix:
 Charge =  0 Multiplicity = 1

                         Standard orientation:
 ---------------------------------------------------------------------
 Center     Atomic      Atomic             Coordinates (Angstroms)
 Number     Number       Type             X           Y           Z
 ---------------------------------------------------------------------
      1         12           0       -5.718725    1.171830    0.241580
      2          6           0       -4.935219   -2.114411   -0.356265
      3          6           0       -3.355440    1.170251    2.725285
      4          6           0       -6.158949    4.546327    0.656244
      5          6           0       -7.948519    1.121042   -2.395903
      6          7           0       -4.389104   -0.249729    1.031648
      7          6           0       -4.235771   -1.606225    0.575083
      8          6           0       -3.252735   -2.293268    1.386750
      9          6           0       -2.900847   -1.328582    2.554582
     10          6           0       -3.554638   -0.074082    2.074765
     11          6           0       -3.306687   -1.743202    3.909603
     12          6           0       -1.972352   -2.773594    0.632948
     13          6           0       -1.023920   -3.652322    1.370709
     14          6           0        0.250701   -3.930916    0.522295
     15          8           0        0.380416   -3.621218   -0.648744
     16          8           0        1.056751   -4.628188    1.314038
     17          7           0       -5.085090    2.592843    1.546789
     18          6           0       -4.079221    2.424190    2.399023
     19          6           0       -3.685755    3.646706    3.139555
     20          6           0       -4.475655    4.575433    2.596980
     21          6           0       -5.339598    3.976602    1.562543
     22          6           0       -2.707258    3.994582    4.208098
     23          6           0       -4.642069    6.023217    2.858437
     24          8           0       -4.014455    6.588741    3.778844
     25          7           0       -6.813551    2.687167   -0.761555
     26          6           0       -6.901664    4.004797   -0.328851
     27          6           0       -7.878022    4.609825   -1.202713
     28          6           0       -8.414867    3.658884   -2.026771
     29          6           0       -7.739651    2.419457   -1.755540
     30          6           0       -8.251717    6.081925   -1.025426
     31          6           0       -9.381841    3.743592   -3.169314
     32          6           0       -8.657469    4.028369   -4.506270
     33          7           0       -6.330588   -0.099156   -1.129275
     34          6           0       -7.363799   -0.024792   -2.116110
     35          6           0       -7.608597   -1.421317   -2.649688
     36          6           0       -6.625018   -2.109694   -2.038329
     37          6           0       -5.936952   -1.407297   -1.116830
     38          6           0       -8.501799   -1.655067   -3.881909
     39          6           0       -6.208734   -3.549933   -2.017692
     40          8           0       -6.619390   -4.550906   -2.530999
     41          6           0       -5.040978   -3.551181   -0.932758
     42          6           0       -5.273010   -4.600210    0.162345
     43          8           0       -5.795146   -4.444943    1.293183
     44          8           0       -5.084087   -5.862876   -0.322395
     45          6           0       -5.574950   -6.910493    0.437971
     46          6           0        2.362787   -5.105311    0.615376
     47          6           0        3.409283   -4.159813    1.028596
     48          6           0        4.102027   -3.268564    0.248979
     49          6           0        3.849086   -3.094647   -1.203848
     50          6           0        5.214808   -2.367022    0.782276
     51          6           0        6.541246   -2.732135    0.008868
     52          6           0        7.668018   -1.837741    0.645048
     53          6           0        9.048853   -2.033713    0.033657
     54          6           0        9.660614   -3.414420    0.293400
     55          6           0        9.955800   -0.983055    0.548285
     56          6           0       11.308479   -0.818834   -0.111145
     57          6           0       12.231268    0.355258    0.278125
     58          6           0       13.450570    0.450506   -0.525746
     59          6           0       14.486716   -0.640269   -0.403294
     60          6           0       14.165886    1.797294   -0.219691
     61          6           0       15.303285    2.160240   -1.101617
     62          6           0       15.928194    3.536678   -0.754064
     63          6           0       17.312727    3.909290   -1.379666
     64          6           0       17.168316    4.014122   -2.897434
     65          6           0       17.854127    5.218562   -0.830112
     66          1           0       -2.738827    1.126874    3.540244
     67          1           0       -6.408164    5.659429    0.783267
     68          1           0       -8.810922    1.170633   -3.217341
     69          1           0       -3.678641   -3.331633    1.876009
     70          1           0       -1.828014   -1.110012    2.620503
     71          1           0       -2.704662   -2.465342    4.536754
     72          1           0       -3.180373   -0.940848    4.641457
     73          1           0       -4.440929   -2.266849    4.053033
     74          1           0       -2.364034   -3.232563   -0.292432
     75          1           0       -1.648401   -1.964012    0.128940
     76          1           0       -0.472720   -3.040313    2.242701
     77          1           0       -1.408595   -4.444738    1.707147
     78          1           0       -1.876762    3.580275    3.812797
     79          1           0       -2.522128    4.997181    4.490063
     80          1           0       -3.060856    3.303977    4.978743
     81          1           0       -5.155719    6.767322    1.981283
     82          1           0       -9.888004    2.758783   -3.326968
     83          1           0      -10.014893    4.660815   -2.992070
     84          1           0       -9.278807    3.970575   -5.484184
     85          1           0       -8.003539    4.976539   -4.450927
     86          1           0       -7.868125    3.219794   -4.669377
     87          1           0       -8.109751   -0.815854   -4.628022
     88          1           0       -8.348916   -2.678439   -4.221227
     89          1           0       -9.451533   -1.236006   -3.817048
     90          1           0       -4.138968   -4.115039   -1.400921
     91          1           0        2.308217   -6.052562    1.136935
     92          1           0        2.064662   -5.087739   -0.534243
     93          1           0        3.506727   -4.172911    2.117819
     94          1           0        2.763090   -3.244991   -1.485333
     95          1           0        4.187352   -2.031655   -1.462589
     96          1           0        4.382568   -3.859213   -1.907629
     97          1           0        4.954159   -1.347871    0.517452
     98          1           0        5.203968   -2.448366    2.068067
     99          1           0        6.782788   -3.797899    0.236715
    100          1           0        6.595329   -2.445306   -1.078055
    101          1           0        7.305399   -0.924350    0.532833
    102          1           0        7.826184   -2.044189    1.784642
    103          1           0        9.051916   -1.945000   -1.026589
    104          1           0        9.081799   -4.202786   -0.311239
    105          1           0       10.697369   -3.597034   -0.149418
    106          1           0        9.645186   -3.593096    1.319306
    107          1           0        9.435801    0.000437    0.545852
    108          1           0       10.337764   -1.314820    1.632196
    109          1           0       11.852034   -1.675695   -0.074219
    110          1           0       11.094181   -0.925405   -1.442953
    111          1           0       11.679806    1.180911    0.096449
    112          1           0       12.538013    0.069346    1.460370
    113          1           0       13.208214    0.486240   -1.631852
    114          1           0       14.729079   -0.780139    0.749553
    115          1           0       14.235763   -1.668957   -0.668833
    116          1           0       15.550447   -0.349050   -0.934079
    117          1           0       13.560818    2.576983   -0.303959
    118          1           0       14.481259    1.685354    0.744398
    119          1           0       16.255184    1.414059   -1.135911
    120          1           0       15.033308    2.243813   -2.166565
    121          1           0       15.144545    4.267884   -1.026093
    122          1           0       16.078500    3.565038    0.354419
    123          1           0       17.918594    3.089446   -1.261044
    124          1           0       16.323350    4.699660   -3.273554
    125          1           0       18.051887    4.285006   -3.379943
    126          1           0       16.771701    2.986936   -3.356063
    127          1           0       17.916732    5.052300    0.159114
    128          1           0       18.862832    5.645853   -1.222076
    129          1           0       17.199195    6.104554   -0.986553
    130          1           0       -5.358571   -7.797529   -0.241456
    131          1           0       -6.682320   -6.750266    0.419093
    132          1           0       -5.146196   -7.067267    1.470403
    133          8           0       -7.971532    6.851728   -0.233964
    134          1           0       -8.728300    6.390929   -1.942739
 ---------------------------------------------------------------------

 SCF Done:  E(RCAM-B3LYP) =  -3043.48473591     A.U. after   15 cycles

 Excitation energies and oscillator strengths:

 Excited State   1:      Singlet-A      2.0971 eV  591.21 nm  f=0.1974  <S**2>=0.000
     243 -> 245       -0.10775
     243 -> 246        0.21576
     244 -> 245        0.64645
     244 -> 246        0.12846
 This state for optimization and/or second-order correction.
 Total Energy, E(TD-HF/TD-KS) =  -3043.40766840
 Copying the excited state density for this state as the 1-particle RhoCI density.

 The electronic state is 1-A.
 Alpha  occ. eigenvalues --  -46.80511 -19.22566 -19.21999 -19.18659 -19.17883
 Alpha  occ. eigenvalues --  -19.17133 -19.17115 -19.17073 -14.38113 -14.36996
 Alpha  occ. eigenvalues --  -14.36918 -14.35761 -10.35467 -10.34631 -10.32616
 Alpha  occ. eigenvalues --  -10.31398 -10.29725 -10.28521 -10.27788 -10.27536
 Alpha  occ. eigenvalues --  -10.27015 -10.26262 -10.26252 -10.26208 -10.26172
 Alpha  occ. eigenvalues --  -10.26115 -10.25764 -10.25688 -10.25614 -10.24819
 Alpha  occ. eigenvalues --  -10.24431 -10.24339 -10.24201 -10.24116 -10.23889
 Alpha  occ. eigenvalues --  -10.23835 -10.23648 -10.23421 -10.23397 -10.23132
 Alpha  occ. eigenvalues --  -10.22999 -10.22998 -10.22832 -10.22640 -10.22596
 Alpha  occ. eigenvalues --  -10.22549 -10.22535 -10.22028 -10.21900 -10.21893
 Alpha  occ. eigenvalues --  -10.21711 -10.21683 -10.21650 -10.21550 -10.21533
 Alpha  occ. eigenvalues --  -10.21425 -10.21374 -10.21118 -10.21064 -10.20900
 Alpha  occ. eigenvalues --  -10.20870 -10.20831 -10.20682 -10.20273 -10.19882
 Alpha  occ. eigenvalues --  -10.18781  -3.09194  -1.84125  -1.83661  -1.83615
 Alpha  occ. eigenvalues --   -1.13597  -1.12345  -1.11814  -1.09192  -1.04946
 Alpha  occ. eigenvalues --   -1.04324  -1.03185  -1.00370  -0.99885  -0.98790
 Alpha  occ. eigenvalues --   -0.97696  -0.88965  -0.86840  -0.86183  -0.85671
 Alpha  occ. eigenvalues --   -0.85225  -0.85091  -0.84604  -0.84338  -0.83635
 Alpha  occ. eigenvalues --   -0.83193  -0.83113  -0.81960  -0.80901  -0.80219
 Alpha  occ. eigenvalues --   -0.79140  -0.78699  -0.77625  -0.77065  -0.76916
 Alpha  occ. eigenvalues --   -0.75766  -0.75201  -0.74440  -0.72706  -0.72659
 Alpha  occ. eigenvalues --   -0.71121  -0.70995  -0.70639  -0.70077  -0.69975
 Alpha  occ. eigenvalues --   -0.69155  -0.68860  -0.67265  -0.66172  -0.65703
 Alpha  occ. eigenvalues --   -0.65091  -0.64978  -0.64022  -0.62544  -0.62351
 Alpha  occ. eigenvalues --   -0.61284  -0.60850  -0.60385  -0.58997  -0.58889
 Alpha  occ. eigenvalues --   -0.58370  -0.58269  -0.57984  -0.57600  -0.56984
 Alpha  occ. eigenvalues --   -0.56104  -0.55854  -0.55533  -0.54698  -0.54538
 Alpha  occ. eigenvalues --   -0.53769  -0.53185  -0.52898  -0.52337  -0.52143
 Alpha  occ. eigenvalues --   -0.51981  -0.51693  -0.51471  -0.51094  -0.51039
 Alpha  occ. eigenvalues --   -0.50246  -0.50056  -0.49879  -0.49598  -0.49209
 Alpha  occ. eigenvalues --   -0.48850  -0.48800  -0.48731  -0.48320  -0.48078
 Alpha  occ. eigenvalues --   -0.47916  -0.47395  -0.47385  -0.47293  -0.47120
 Alpha  occ. eigenvalues --   -0.47053  -0.46491  -0.46428  -0.46384  -0.45934
 Alpha  occ. eigenvalues --   -0.45738  -0.45593  -0.45526  -0.45369  -0.44881
 Alpha  occ. eigenvalues --   -0.44772  -0.44438  -0.44344  -0.44028  -0.43971
 Alpha  occ. eigenvalues --   -0.43772  -0.43662  -0.43472  -0.43189  -0.42863
 Alpha  occ. eigenvalues --   -0.42691  -0.42638  -0.42437  -0.42059  -0.41882
 Alpha  occ. eigenvalues --   -0.41724  -0.41629  -0.41379  -0.41221  -0.40874
 Alpha  occ. eigenvalues --   -0.40747  -0.40395  -0.40305  -0.40120  -0.39959
 Alpha  occ. eigenvalues --   -0.39723  -0.39589  -0.39367  -0.39249  -0.39047
 Alpha  occ. eigenvalues --   -0.38754  -0.38602  -0.38387  -0.38224  -0.37991
 Alpha  occ. eigenvalues --   -0.37759  -0.37574  -0.37567  -0.37204  -0.37085
 Alpha  occ. eigenvalues --   -0.36996  -0.36583  -0.36485  -0.36407  -0.36059
 Alpha  occ. eigenvalues --   -0.35468  -0.35434  -0.35310  -0.35157  -0.34850
 Alpha  occ. eigenvalues --   -0.34804  -0.34127  -0.33859  -0.33385  -0.33302
 Alpha  occ. eigenvalues --   -0.33071  -0.32864  -0.32611  -0.31762  -0.31615
 Alpha  occ. eigenvalues --   -0.31374  -0.31170  -0.30542  -0.30309  -0.29881
 Alpha  occ. eigenvalues --   -0.29068  -0.28749  -0.28352  -0.27572  -0.27345
 Alpha  occ. eigenvalues --   -0.27100  -0.26885  -0.23515  -0.21258
 Alpha virt. eigenvalues --   -0.08080  -0.06006  -0.01120  -0.00362   0.01063
 Alpha virt. eigenvalues --    0.01718   0.02234   0.03618   0.04374   0.05111
 Alpha virt. eigenvalues --    0.05482   0.05955   0.07433   0.08479   0.09293

 Mulliken charges:
               1
     1  Mg   0.814266
     2  C    0.122832
     3  C   -0.189602
     4  C   -0.188183
     5  C   -0.183493
     6  N   -0.672968
     7  C    0.314664
     8  C   -0.196171
     9  C   -0.119443
    10  C    0.370894
    11  C   -0.313271
    12  C   -0.167925
    13  C   -0.226218
    14  C    0.605220
    15  O   -0.480279
    16  O   -0.477541
    17  N   -0.692498
    18  C    0.311230
    19  C    0.014695
    20  C    0.010246
    21  C    0.290286
    22  C   -0.351985
    23  C    0.225752
    24  O   -0.422593
    25  N   -0.707136
    26  C    0.317406
    27  C   -0.074021
    28  C    0.018159
    29  C    0.295313
    30  C    0.277727
    31  C   -0.241067
    32  C   -0.305620
    33  N   -0.752831
    34  C    0.283454
    35  C    0.038123
    36  C   -0.011820
    37  C    0.331164
    38  C   -0.369729
    39  C    0.400090
    40  O   -0.432345
    41  C   -0.336760
    42  C    0.601702
    43  O   -0.489766
    44  O   -0.424936
    45  C   -0.079280
    46  C   -0.039414
    47  C   -0.105985
    48  C    0.146745
    49  C   -0.382511
    50  C   -0.224951
    51  C   -0.189134
    52  C   -0.154237
    53  C   -0.055835
    54  C   -0.316415
    55  C   -0.142718
    56  C   -0.163264
    57  C   -0.137169
    58  C   -0.055339
    59  C   -0.305490
    60  C   -0.143458
    61  C   -0.189840
    62  C   -0.173892
    63  C   -0.048022
    64  C   -0.305080
    65  C   -0.306557
    66  H    0.063997
    67  H    0.126435
    68  H    0.082637
    69  H    0.112878
    70  H    0.113604
    71  H    0.108333
    72  H    0.108809
    73  H    0.103072
    74  H    0.100540
    75  H    0.118318
    76  H    0.112289
    77  H    0.133162
    78  H    0.130917
    79  H    0.167660
    80  H    0.126394
    81  H    0.078589
    82  H    0.103803
    83  H    0.110108
    84  H    0.101348
    85  H    0.108716
    86  H    0.098607
    87  H    0.121236
    88  H    0.153969
    89  H    0.143442
    90  H    0.159375
    91  H    0.132019
    92  H    0.137391
    93  H    0.084525
    94  H    0.147443
    95  H    0.100996
    96  H    0.114486
    97  H    0.112241
    98  H    0.073410
    99  H    0.111355
   100  H    0.108540
   101  H    0.100375
   102  H    0.076016
   103  H    0.084311
   104  H    0.088822
   105  H    0.101196
   106  H    0.110390
   107  H    0.081226
   108  H    0.064448
   109  H    0.108473
   110  H    0.000141
   111  H    0.103245
   112  H    0.063143
   113  H    0.082000
   114  H    0.071405
   115  H    0.105244
   116  H    0.090060
   117  H    0.094380
   118  H    0.099271
   119  H    0.063606
   120  H    0.095182
   121  H    0.086492
   122  H    0.077848
   123  H    0.099697
   124  H    0.086094
   125  H    0.106148
   126  H    0.072698
   127  H    0.110828
   128  H    0.087416
   129  H    0.101284
   130  H    0.116109
   131  H    0.126748
   132  H    0.123600
   133  O   -0.366555
   134  H    0.034840
 Sum of Mulliken charges =   0.00000

 Dipole moment (field-independent basis, Debye):
    X=              3.2920    Y=             -4.9241    Z=             -1.5102  Tot=              6.1127
 Quadrupole moment (field-independent basis, Debye-Ang):
   XX=           -386.7720   YY=           -435.5698   ZZ=           -395.0144
   XY=             13.7218   XZ=             30.8682   YZ=            -28.7791

 Normal termination of Gaussian 09 at Thu Oct  3 23:59:00 2019.
