 Gaussian 09, Revision D.01,
 Gaussian 09:  ES64L-G09RevD.01 24-Apr-2013

 ----------------------------------------------------------------------
 # td=(NStates=1) iop(3/107=0140000000,3/108=0140000000) iop(3/107=0140
 000000,3/108=0140000000) CAM-B3LYP/6-31G(d,p)
 ----------------------------------------------------------------------

 --
 TD
 --
 Symbolic Z-matrix:
 Charge =  0 Multiplicity = 1

                         Standard orientation:
 ---------------------------------------------------------------------
 Center     Atomic      Atomic             Coordinates (Angstroms)
 Number     Number       Type             X           Y           Z
 ---------------------------------------------------------------------
      1         12           0       -5.540488    1.281651    0.251832
      2          6           0       -5.137800   -2.162319   -0.349095
      3          6           0       -3.440620    1.148090    2.761550
      4          6           0       -6.245410    4.541600    0.634875
      5          6           0       -7.872332    1.197282   -2.440893
      6          7           0       -4.376144   -0.313104    1.010402
      7          6           0       -4.292531   -1.658177    0.639608
      8          6           0       -3.253668   -2.340745    1.448743
      9          6           0       -2.920061   -1.362066    2.587874
     10          6           0       -3.581402   -0.101984    2.119853
     11          6           0       -3.620004   -1.881123    3.917259
     12          6           0       -2.021445   -2.757066    0.625732
     13          6           0       -0.994959   -3.515562    1.420886
     14          6           0        0.247657   -3.868908    0.624942
     15          8           0        0.558105   -3.424488   -0.413852
     16          8           0        1.036740   -4.717826    1.276844
     17          7           0       -4.913236    2.650802    1.436456
     18          6           0       -4.015589    2.398498    2.441418
     19          6           0       -3.780575    3.600381    3.254612
     20          6           0       -4.494883    4.624275    2.622124
     21          6           0       -5.340283    3.990454    1.485407
     22          6           0       -2.893226    3.798561    4.420745
     23          6           0       -4.610974    5.985798    2.979126
     24          8           0       -4.030863    6.599690    3.882223
     25          7           0       -6.832094    2.645891   -0.666351
     26          6           0       -6.972624    4.015949   -0.302338
     27          6           0       -7.786905    4.635870   -1.289556
     28          6           0       -8.386796    3.652276   -2.134496
     29          6           0       -7.631883    2.461245   -1.811541
     30          6           0       -8.202729    6.003345   -1.252521
     31          6           0       -9.377543    3.920667   -3.171361
     32          6           0       -8.695922    3.738190   -4.683575
     33          7           0       -6.339846   -0.052537   -1.212268
     34          6           0       -7.292219   -0.025070   -2.125857
     35          6           0       -7.537813   -1.275836   -2.745266
     36          6           0       -6.648921   -2.119398   -2.056402
     37          6           0       -5.963520   -1.234700   -1.147508
     38          6           0       -8.519819   -1.750285   -3.803852
     39          6           0       -6.250837   -3.538333   -1.995416
     40          8           0       -6.659710   -4.494735   -2.596906
     41          6           0       -5.133802   -3.524854   -0.934875
     42          6           0       -5.333633   -4.586532    0.243437
     43          8           0       -5.733434   -4.383424    1.355931
     44          8           0       -5.032300   -5.807998   -0.290268
     45          6           0       -5.367210   -7.003059    0.623101
     46          6           0        2.458731   -5.016080    0.720216
     47          6           0        3.359607   -4.029113    1.082653
     48          6           0        4.035690   -3.212601    0.224409
     49          6           0        3.687553   -3.079779   -1.206507
     50          6           0        5.146809   -2.258113    0.551058
     51          6           0        6.554202   -2.690553    0.031131
     52          6           0        7.699883   -1.832708    0.523478
     53          6           0        8.976563   -2.079264   -0.153801
     54          6           0        9.562153   -3.500640    0.049255
     55          6           0        9.986092   -0.981419    0.344271
     56          6           0       11.372216   -1.034925   -0.244790
     57          6           0       12.179783    0.138437    0.140856
     58          6           0       13.576240    0.412853   -0.602337
     59          6           0       14.521075   -0.760891   -0.594638
     60          6           0       14.243868    1.770830   -0.104825
     61          6           0       15.490457    2.097183   -0.975584
     62          6           0       16.049911    3.570373   -0.617727
     63          6           0       17.293830    3.928941   -1.288594
     64          6           0       17.221558    4.184163   -2.824289
     65          6           0       17.734385    5.321994   -0.562967
     66          1           0       -2.848159    1.035785    3.564500
     67          1           0       -6.419767    5.488650    0.971982
     68          1           0       -8.595394    1.147874   -3.389843
     69          1           0       -3.738820   -3.302780    1.758606
     70          1           0       -1.860692   -1.440278    3.030361
     71          1           0       -3.389283   -2.678251    4.236784
     72          1           0       -3.701223   -1.064842    4.598785
     73          1           0       -4.782398   -1.871895    3.651931
     74          1           0       -2.284243   -3.334590   -0.411215
     75          1           0       -1.780463   -1.908982    0.185895
     76          1           0       -0.652035   -2.747940    2.362415
     77          1           0       -1.369854   -4.506237    1.948468
     78          1           0       -1.771667    3.823264    4.215251
     79          1           0       -3.026034    4.871875    4.955376
     80          1           0       -3.215886    3.128042    5.262661
     81          1           0       -5.141913    6.454789    2.189388
     82          1           0      -10.241048    3.163477   -3.241159
     83          1           0       -9.920251    4.752667   -2.969773
     84          1           0       -9.638798    3.795457   -5.330555
     85          1           0       -7.607829    4.474678   -4.681981
     86          1           0       -8.220437    2.629996   -4.830565
     87          1           0       -8.606410   -1.236796   -4.734196
     88          1           0       -8.473796   -2.808081   -4.076284
     89          1           0       -9.453048   -1.569256   -3.522470
     90          1           0       -4.276037   -3.925184   -1.615149
     91          1           0        2.406638   -6.046017    1.055061
     92          1           0        2.374927   -5.284644   -0.345724
     93          1           0        3.818521   -4.189698    2.015749
     94          1           0        2.606151   -3.261268   -1.425277
     95          1           0        3.766918   -2.207894   -1.631717
     96          1           0        4.388837   -3.817498   -1.753754
     97          1           0        4.857780   -1.172136    0.133686
     98          1           0        5.301160   -2.224873    1.818493
     99          1           0        6.738668   -3.737065    0.309139
    100          1           0        6.661168   -2.782860   -1.150404
    101          1           0        7.398754   -0.716491    0.808469
    102          1           0        7.936549   -2.279216    1.704237
    103          1           0        8.855364   -1.940573   -1.126806
    104          1           0        8.862674   -4.322336   -0.599488
    105          1           0       10.349463   -3.789120   -0.477643
    106          1           0        9.617445   -3.738246    0.998359
    107          1           0        9.465306   -0.004299    0.353819
    108          1           0       10.048193   -1.231273    1.488324
    109          1           0       12.099729   -1.897123   -0.328240
    110          1           0       11.142077   -0.924341   -1.427519
    111          1           0       11.716247    1.159643    0.175291
    112          1           0       12.206908    0.176226    1.210095
    113          1           0       13.249784    0.552856   -1.605478
    114          1           0       14.635294   -1.221224    0.543531
    115          1           0       14.165013   -1.670016   -1.404416
    116          1           0       15.580462   -0.283321   -1.229163
    117          1           0       13.595349    2.574792   -0.071369
    118          1           0       14.691113    1.583156    1.005466
    119          1           0       16.249577    1.430393   -0.530388
    120          1           0       15.449129    2.201139   -1.999888
    121          1           0       15.056560    4.191809   -0.694524
    122          1           0       15.996778    3.516662    0.488126
    123          1           0       18.116162    3.143845   -1.166372
    124          1           0       16.450533    4.912403   -3.002319
    125          1           0       18.214905    4.580199   -3.041608
    126          1           0       16.844480    3.280950   -3.550657
    127          1           0       17.661818    5.184158    0.496895
    128          1           0       18.672534    5.748443   -1.064084
    129          1           0       17.029853    6.109159   -0.910704
    130          1           0       -4.582897   -7.665791    0.062056
    131          1           0       -6.573861   -7.103319    0.794489
    132          1           0       -4.936929   -6.660703    1.679994
    133          8           0       -7.780844    6.927422   -0.491217
    134          1           0       -8.998080    6.236843   -2.102681
 ---------------------------------------------------------------------

 SCF Done:  E(RCAM-B3LYP) =  -3043.28666100     A.U. after   16 cycles

 Excitation energies and oscillator strengths:

 Excited State   1:      Singlet-A      2.0162 eV  614.94 nm  f=0.1604  <S**2>=0.000
     243 -> 246       -0.26260
     244 -> 245        0.64922
 This state for optimization and/or second-order correction.
 Total Energy, E(TD-HF/TD-KS) =  -3043.21256661
 Copying the excited state density for this state as the 1-particle RhoCI density.

 The electronic state is 1-A.
 Alpha  occ. eigenvalues --  -46.81601 -19.22504 -19.19861 -19.18457 -19.17174
 Alpha  occ. eigenvalues --  -19.16411 -19.16192 -19.15796 -14.39215 -14.37169
 Alpha  occ. eigenvalues --  -14.36803 -14.36639 -10.35643 -10.33348 -10.31203
 Alpha  occ. eigenvalues --  -10.30773 -10.29948 -10.28747 -10.28328 -10.27656
 Alpha  occ. eigenvalues --  -10.27375 -10.26974 -10.26922 -10.26677 -10.26588
 Alpha  occ. eigenvalues --  -10.25751 -10.25747 -10.25653 -10.25559 -10.25482
 Alpha  occ. eigenvalues --  -10.25313 -10.25263 -10.25119 -10.25063 -10.25032
 Alpha  occ. eigenvalues --  -10.24882 -10.24677 -10.24389 -10.24108 -10.24050
 Alpha  occ. eigenvalues --  -10.23647 -10.23408 -10.23313 -10.23101 -10.23006
 Alpha  occ. eigenvalues --  -10.22810 -10.22758 -10.22559 -10.22466 -10.22082
 Alpha  occ. eigenvalues --  -10.22005 -10.21883 -10.21862 -10.21616 -10.21504
 Alpha  occ. eigenvalues --  -10.21470 -10.21393 -10.21037 -10.21026 -10.20990
 Alpha  occ. eigenvalues --  -10.20961 -10.20950 -10.20206 -10.20128 -10.20040
 Alpha  occ. eigenvalues --  -10.19838  -3.10269  -1.85194  -1.84741  -1.84691
 Alpha  occ. eigenvalues --   -1.12769  -1.12692  -1.07831  -1.04931  -1.04888
 Alpha  occ. eigenvalues --   -1.04623  -1.03499  -1.02985  -0.99701  -0.98662
 Alpha  occ. eigenvalues --   -0.97268  -0.88674  -0.87017  -0.86144  -0.86003
 Alpha  occ. eigenvalues --   -0.85750  -0.84440  -0.84348  -0.83881  -0.83599
 Alpha  occ. eigenvalues --   -0.83206  -0.83014  -0.81457  -0.80706  -0.79856
 Alpha  occ. eigenvalues --   -0.79209  -0.78289  -0.77139  -0.76724  -0.76056
 Alpha  occ. eigenvalues --   -0.75496  -0.75273  -0.74830  -0.73007  -0.72436
 Alpha  occ. eigenvalues --   -0.71992  -0.70837  -0.70454  -0.69992  -0.69362
 Alpha  occ. eigenvalues --   -0.69098  -0.68844  -0.67823  -0.67026  -0.66521
 Alpha  occ. eigenvalues --   -0.66354  -0.64886  -0.64154  -0.62651  -0.62405
 Alpha  occ. eigenvalues --   -0.61438  -0.61110  -0.60514  -0.59742  -0.58574
 Alpha  occ. eigenvalues --   -0.58441  -0.58148  -0.58050  -0.57613  -0.57394
 Alpha  occ. eigenvalues --   -0.57005  -0.56535  -0.56280  -0.54667  -0.53898
 Alpha  occ. eigenvalues --   -0.53551  -0.52873  -0.52612  -0.52448  -0.51881
 Alpha  occ. eigenvalues --   -0.51540  -0.51330  -0.51091  -0.50728  -0.50407
 Alpha  occ. eigenvalues --   -0.49890  -0.49630  -0.49373  -0.49206  -0.49029
 Alpha  occ. eigenvalues --   -0.48953  -0.48903  -0.48569  -0.48128  -0.47613
 Alpha  occ. eigenvalues --   -0.47318  -0.47126  -0.47013  -0.46978  -0.46846
 Alpha  occ. eigenvalues --   -0.46674  -0.46450  -0.46315  -0.46006  -0.45694
 Alpha  occ. eigenvalues --   -0.45531  -0.45417  -0.45256  -0.45050  -0.44767
 Alpha  occ. eigenvalues --   -0.44732  -0.43957  -0.43932  -0.43873  -0.43503
 Alpha  occ. eigenvalues --   -0.43362  -0.43319  -0.43121  -0.42950  -0.42662
 Alpha  occ. eigenvalues --   -0.42643  -0.42358  -0.42224  -0.41819  -0.41710
 Alpha  occ. eigenvalues --   -0.41400  -0.41297  -0.41109  -0.41030  -0.40794
 Alpha  occ. eigenvalues --   -0.40624  -0.40327  -0.40138  -0.40025  -0.39929
 Alpha  occ. eigenvalues --   -0.39834  -0.39470  -0.39302  -0.39135  -0.39078
 Alpha  occ. eigenvalues --   -0.39015  -0.38728  -0.38512  -0.38389  -0.38219
 Alpha  occ. eigenvalues --   -0.37709  -0.37529  -0.37300  -0.37237  -0.37022
 Alpha  occ. eigenvalues --   -0.36729  -0.36547  -0.36443  -0.36101  -0.35661
 Alpha  occ. eigenvalues --   -0.35213  -0.35152  -0.34874  -0.34506  -0.34405
 Alpha  occ. eigenvalues --   -0.34247  -0.34051  -0.33589  -0.33281  -0.33083
 Alpha  occ. eigenvalues --   -0.32587  -0.32461  -0.32098  -0.31805  -0.31202
 Alpha  occ. eigenvalues --   -0.30933  -0.30666  -0.29822  -0.29776  -0.29611
 Alpha  occ. eigenvalues --   -0.28900  -0.28437  -0.27785  -0.27746  -0.27214
 Alpha  occ. eigenvalues --   -0.27017  -0.26699  -0.23018  -0.21789
 Alpha virt. eigenvalues --   -0.08712  -0.06668  -0.01506  -0.01151   0.00421
 Alpha virt. eigenvalues --    0.00942   0.02817   0.03602   0.03929   0.04595
 Alpha virt. eigenvalues --    0.05148   0.06037   0.07101   0.07981   0.08505

 Mulliken charges:
               1
     1  Mg   0.836994
     2  C    0.050586
     3  C   -0.166868
     4  C   -0.126013
     5  C   -0.177788
     6  N   -0.658626
     7  C    0.316139
     8  C   -0.164292
     9  C   -0.172463
    10  C    0.357146
    11  C   -0.289110
    12  C   -0.143221
    13  C   -0.253089
    14  C    0.601361
    15  O   -0.448254
    16  O   -0.500132
    17  N   -0.763501
    18  C    0.337275
    19  C    0.079507
    20  C   -0.021216
    21  C    0.280339
    22  C   -0.414618
    23  C    0.238358
    24  O   -0.441715
    25  N   -0.687400
    26  C    0.320284
    27  C   -0.010934
    28  C    0.059147
    29  C    0.284333
    30  C    0.216342
    31  C   -0.252687
    32  C   -0.291741
    33  N   -0.681855
    34  C    0.248227
    35  C    0.050449
    36  C   -0.042895
    37  C    0.354572
    38  C   -0.395373
    39  C    0.381528
    40  O   -0.447673
    41  C   -0.320749
    42  C    0.626804
    43  O   -0.454930
    44  O   -0.471696
    45  C   -0.101166
    46  C   -0.021455
    47  C   -0.097859
    48  C    0.140914
    49  C   -0.373948
    50  C   -0.221282
    51  C   -0.164283
    52  C   -0.146625
    53  C   -0.049210
    54  C   -0.293818
    55  C   -0.173551
    56  C   -0.160347
    57  C   -0.185852
    58  C   -0.034581
    59  C   -0.279400
    60  C   -0.180625
    61  C   -0.188325
    62  C   -0.179742
    63  C   -0.054997
    64  C   -0.305698
    65  C   -0.317486
    66  H    0.071021
    67  H    0.110724
    68  H    0.088000
    69  H    0.127018
    70  H    0.112723
    71  H    0.115505
    72  H    0.112376
    73  H    0.101938
    74  H    0.088636
    75  H    0.130508
    76  H    0.103235
    77  H    0.121180
    78  H    0.132178
    79  H    0.156281
    80  H    0.119773
    81  H    0.080056
    82  H    0.104474
    83  H    0.123935
    84  H    0.120175
    85  H    0.099727
    86  H    0.102136
    87  H    0.120487
    88  H    0.152680
    89  H    0.140435
    90  H    0.159460
    91  H    0.125358
    92  H    0.123534
    93  H    0.082314
    94  H    0.152992
    95  H    0.120278
    96  H    0.108254
    97  H    0.100399
    98  H    0.066652
    99  H    0.115215
   100  H    0.075991
   101  H    0.086499
   102  H    0.042290
   103  H    0.095734
   104  H    0.049361
   105  H    0.122750
   106  H    0.117117
   107  H    0.099695
   108  H    0.069425
   109  H    0.105734
   110  H    0.054169
   111  H    0.073323
   112  H    0.086085
   113  H    0.098607
   114  H    0.089775
   115  H    0.071360
   116  H    0.073705
   117  H    0.098439
   118  H    0.070873
   119  H    0.107082
   120  H    0.102307
   121  H    0.071241
   122  H    0.085559
   123  H    0.088198
   124  H    0.110785
   125  H    0.108223
   126  H    0.081181
   127  H    0.114980
   128  H    0.086675
   129  H    0.104343
   130  H    0.148691
   131  H    0.148159
   132  H    0.130676
   133  O   -0.456986
   134  H    0.047081
 Sum of Mulliken charges =   0.00000

 Dipole moment (field-independent basis, Debye):
    X=              3.0975    Y=             -6.7566    Z=             -1.4247  Tot=              7.5681
 Quadrupole moment (field-independent basis, Debye-Ang):
   XX=           -371.4421   YY=           -448.1584   ZZ=           -392.9648
   XY=             25.6741   XZ=             18.6127   YZ=            -32.7610

 Normal termination of Gaussian 09 at Mon Oct  7 12:56:23 2019.
