 Gaussian 09, Revision D.01,
 Gaussian 09:  ES64L-G09RevD.01 24-Apr-2013

 ----------------------------------------------------------------------
 # td=(NStates=1) iop(3/107=0140000000,3/108=0140000000) iop(3/107=0140
 000000,3/108=0140000000) CAM-B3LYP/6-31G(d,p)
 ----------------------------------------------------------------------

 --
 TD
 --
 Symbolic Z-matrix:
 Charge =  0 Multiplicity = 1

                         Standard orientation:
 ---------------------------------------------------------------------
 Center     Atomic      Atomic             Coordinates (Angstroms)
 Number     Number       Type             X           Y           Z
 ---------------------------------------------------------------------
      1         12           0       -5.567350    1.266305    0.170273
      2          6           0       -5.127998   -2.115694   -0.385844
      3          6           0       -3.468526    1.037991    2.902267
      4          6           0       -6.046383    4.713565    0.692415
      5          6           0       -7.921233    1.350363   -2.350454
      6          7           0       -4.451653   -0.320198    0.980452
      7          6           0       -4.318199   -1.639856    0.695199
      8          6           0       -3.370189   -2.431337    1.501776
      9          6           0       -2.933163   -1.470493    2.669505
     10          6           0       -3.599949   -0.125078    2.119169
     11          6           0       -3.444188   -1.887752    4.017452
     12          6           0       -2.135876   -2.869736    0.620102
     13          6           0       -1.139054   -3.751107    1.337563
     14          6           0        0.180401   -3.899358    0.579647
     15          8           0        0.416678   -3.465172   -0.542033
     16          8           0        0.985924   -4.654019    1.344761
     17          7           0       -4.816376    2.590623    1.461787
     18          6           0       -3.919716    2.411511    2.524966
     19          6           0       -3.601083    3.607337    3.231274
     20          6           0       -4.412792    4.505245    2.701953
     21          6           0       -5.138439    3.978614    1.584361
     22          6           0       -2.648194    3.706880    4.327591
     23          6           0       -4.480921    5.921437    3.049784
     24          8           0       -3.879309    6.491915    3.907872
     25          7           0       -6.614749    2.747697   -0.712393
     26          6           0       -6.699421    4.087579   -0.371807
     27          6           0       -7.882370    4.653319   -1.119658
     28          6           0       -8.375061    3.771125   -2.036320
     29          6           0       -7.616512    2.491114   -1.779572
     30          6           0       -8.181049    6.182478   -1.040581
     31          6           0       -9.369379    3.957991   -3.148968
     32          6           0       -8.750847    3.965405   -4.565330
     33          7           0       -6.356762   -0.021098   -1.133203
     34          6           0       -7.336538    0.091986   -2.104754
     35          6           0       -7.538470   -1.196170   -2.692383
     36          6           0       -6.774670   -2.103778   -2.140152
     37          6           0       -6.021846   -1.335697   -1.150754
     38          6           0       -8.566915   -1.470999   -3.805142
     39          6           0       -6.315951   -3.477719   -2.112197
     40          8           0       -6.684384   -4.483312   -2.728679
     41          6           0       -5.139951   -3.499482   -0.977933
     42          6           0       -5.374502   -4.593199    0.028712
     43          8           0       -5.853449   -4.484735    1.145486
     44          8           0       -5.082192   -5.844110   -0.510895
     45          6           0       -5.419504   -6.989554    0.305943
     46          6           0        2.208194   -5.125985    0.686180
     47          6           0        3.407119   -4.215183    1.033219
     48          6           0        4.015381   -3.362584    0.193084
     49          6           0        3.634123   -3.160915   -1.224738
     50          6           0        5.152884   -2.494535    0.757869
     51          6           0        6.487483   -2.700830    0.130297
     52          6           0        7.586831   -1.814915    0.672360
     53          6           0        8.965278   -1.987669    0.081758
     54          6           0        9.524314   -3.393391    0.374919
     55          6           0        9.966476   -0.848959    0.397865
     56          6           0       11.286865   -0.829380   -0.388906
     57          6           0       12.282466    0.228717    0.059698
     58          6           0       13.500185    0.431281   -0.650637
     59          6           0       14.434836   -0.787782   -0.642393
     60          6           0       14.258873    1.760732   -0.078914
     61          6           0       15.462835    2.131953   -1.002624
     62          6           0       15.902254    3.533042   -0.712130
     63          6           0       17.286359    3.852120   -1.336967
     64          6           0       17.212454    3.981328   -2.875242
     65          6           0       17.797981    5.162582   -0.761189
     66          1           0       -2.836433    1.070879    3.753203
     67          1           0       -6.355362    5.672925    0.981933
     68          1           0       -8.816339    1.408746   -3.135267
     69          1           0       -3.921352   -3.468900    2.054636
     70          1           0       -1.957388   -1.243029    2.664077
     71          1           0       -2.897788   -2.821823    4.124257
     72          1           0       -3.033191   -1.111389    4.631531
     73          1           0       -4.598880   -1.958430    4.114250
     74          1           0       -2.648163   -3.432873   -0.269273
     75          1           0       -1.687108   -1.985698    0.188042
     76          1           0       -0.783356   -3.278485    2.220847
     77          1           0       -1.473111   -4.762122    1.645743
     78          1           0       -1.620759    3.127730    4.140406
     79          1           0       -2.238901    4.856263    4.567217
     80          1           0       -3.035557    3.001887    5.140583
     81          1           0       -5.332968    6.644875    2.568636
     82          1           0      -10.201639    3.180178   -3.084581
     83          1           0       -9.841520    4.990180   -2.879358
     84          1           0       -9.539349    4.341933   -5.381126
     85          1           0       -8.031940    4.908848   -4.854743
     86          1           0       -8.216221    3.015981   -4.774038
     87          1           0       -8.455698   -1.005414   -4.663491
     88          1           0       -8.580792   -2.517166   -4.106296
     89          1           0       -9.665156   -1.423416   -3.408232
     90          1           0       -4.116100   -3.765180   -1.316760
     91          1           0        2.549993   -6.179303    1.267796
     92          1           0        2.206751   -5.426174   -0.384531
     93          1           0        3.545379   -4.119378    2.166002
     94          1           0        2.506715   -3.175050   -1.413241
     95          1           0        4.068886   -2.055515   -1.372928
     96          1           0        4.370988   -4.060873   -1.957318
     97          1           0        4.916747   -1.456737    0.611959
     98          1           0        5.289215   -2.720327    1.899830
     99          1           0        6.887290   -3.835181    0.262625
    100          1           0        6.417030   -2.582512   -0.987643
    101          1           0        7.426933   -0.715882    0.401284
    102          1           0        7.496842   -1.943467    1.660738
    103          1           0        8.910392   -1.888351   -1.180906
    104          1           0        8.901689   -4.126661   -0.148629
    105          1           0       10.538092   -3.756034    0.095736
    106          1           0        9.387253   -3.852758    1.424162
    107          1           0        9.597264    0.029622    0.167934
    108          1           0       10.142596   -0.868175    1.492029
    109          1           0       11.866330   -1.828954   -0.449628
    110          1           0       11.094588   -0.517903   -1.443090
    111          1           0       11.699162    1.006742   -0.052986
    112          1           0       12.451904    0.037842    1.222173
    113          1           0       13.154697    0.761162   -1.764456
    114          1           0       14.998802   -0.859631    0.391551
    115          1           0       14.082890   -1.775384   -0.865142
    116          1           0       15.227054   -0.772704   -1.377539
    117          1           0       13.521873    2.650815   -0.071679
    118          1           0       14.652393    1.604601    0.948752
    119          1           0       16.375348    1.494788   -0.411901
    120          1           0       14.908707    1.939931   -2.213254
    121          1           0       15.353894    4.439925   -1.267368
    122          1           0       15.994379    3.609883    0.281095
    123          1           0       18.215909    3.288616   -1.202399
    124          1           0       16.553877    4.714804   -3.111783
    125          1           0       18.281224    4.255769   -3.144642
    126          1           0       16.796017    3.063021   -3.220163
    127          1           0       17.733064    5.416336    0.294858
    128          1           0       18.928296    5.497598   -1.096270
    129          1           0       17.243589    6.170070   -1.189692
    130          1           0       -4.899862   -7.751354   -0.231522
    131          1           0       -6.452582   -6.966197    0.254044
    132          1           0       -4.997758   -6.815531    1.344947
    133          8           0       -7.574933    6.986473   -0.375550
    134          1           0       -9.108669    6.451510   -1.626496
 ---------------------------------------------------------------------

 SCF Done:  E(RCAM-B3LYP) =  -3043.42798651     A.U. after   16 cycles

 Excitation energies and oscillator strengths:

 Excited State   1:      Singlet-A      1.8810 eV  659.16 nm  f=0.2733  <S**2>=0.000
     243 -> 246       -0.20217
     244 -> 245        0.67350
 This state for optimization and/or second-order correction.
 Total Energy, E(TD-HF/TD-KS) =  -3043.35886265
 Copying the excited state density for this state as the 1-particle RhoCI density.

 The electronic state is 1-A.
 Alpha  occ. eigenvalues --  -46.80350 -19.24051 -19.21232 -19.18605 -19.18192
 Alpha  occ. eigenvalues --  -19.17868 -19.17356 -19.16703 -14.39875 -14.37359
 Alpha  occ. eigenvalues --  -14.37244 -14.36825 -10.35960 -10.34920 -10.32666
 Alpha  occ. eigenvalues --  -10.31818 -10.30204 -10.29877 -10.27996 -10.27918
 Alpha  occ. eigenvalues --  -10.27028 -10.26950 -10.26884 -10.26482 -10.26448
 Alpha  occ. eigenvalues --  -10.26179 -10.25972 -10.25751 -10.25713 -10.25385
 Alpha  occ. eigenvalues --  -10.25260 -10.24860 -10.24570 -10.24561 -10.24486
 Alpha  occ. eigenvalues --  -10.24448 -10.24412 -10.24376 -10.24272 -10.24037
 Alpha  occ. eigenvalues --  -10.23989 -10.23764 -10.23736 -10.23704 -10.23700
 Alpha  occ. eigenvalues --  -10.23677 -10.23125 -10.22968 -10.22654 -10.22471
 Alpha  occ. eigenvalues --  -10.22293 -10.22284 -10.22032 -10.21987 -10.21984
 Alpha  occ. eigenvalues --  -10.21664 -10.21604 -10.21165 -10.21070 -10.20908
 Alpha  occ. eigenvalues --  -10.20580 -10.20567 -10.20546 -10.19942 -10.19153
 Alpha  occ. eigenvalues --  -10.18893  -3.09190  -1.84103  -1.83660  -1.83631
 Alpha  occ. eigenvalues --   -1.14071  -1.11889  -1.08402  -1.07798  -1.06334
 Alpha  occ. eigenvalues --   -1.05390  -1.03925  -1.00676  -0.99060  -0.98354
 Alpha  occ. eigenvalues --   -0.96383  -0.88333  -0.86458  -0.86164  -0.85679
 Alpha  occ. eigenvalues --   -0.85494  -0.84595  -0.84456  -0.84231  -0.83726
 Alpha  occ. eigenvalues --   -0.83303  -0.83209  -0.81976  -0.80364  -0.79520
 Alpha  occ. eigenvalues --   -0.78598  -0.78122  -0.77628  -0.77009  -0.76505
 Alpha  occ. eigenvalues --   -0.75458  -0.74761  -0.74165  -0.72721  -0.71736
 Alpha  occ. eigenvalues --   -0.71473  -0.70742  -0.70572  -0.69774  -0.69493
 Alpha  occ. eigenvalues --   -0.69236  -0.68659  -0.67057  -0.66526  -0.66116
 Alpha  occ. eigenvalues --   -0.65053  -0.64661  -0.64320  -0.62175  -0.61725
 Alpha  occ. eigenvalues --   -0.61314  -0.60010  -0.59437  -0.59083  -0.58491
 Alpha  occ. eigenvalues --   -0.57815  -0.57792  -0.57510  -0.57319  -0.56555
 Alpha  occ. eigenvalues --   -0.55923  -0.55577  -0.55087  -0.54823  -0.54124
 Alpha  occ. eigenvalues --   -0.53566  -0.53464  -0.52396  -0.52246  -0.52122
 Alpha  occ. eigenvalues --   -0.51955  -0.51792  -0.51252  -0.51205  -0.51071
 Alpha  occ. eigenvalues --   -0.50410  -0.50317  -0.50163  -0.49438  -0.48956
 Alpha  occ. eigenvalues --   -0.48824  -0.48548  -0.48383  -0.47865  -0.47701
 Alpha  occ. eigenvalues --   -0.47487  -0.47302  -0.47260  -0.46956  -0.46832
 Alpha  occ. eigenvalues --   -0.46711  -0.46551  -0.46380  -0.46247  -0.45862
 Alpha  occ. eigenvalues --   -0.45726  -0.45647  -0.45344  -0.45156  -0.44766
 Alpha  occ. eigenvalues --   -0.44563  -0.44123  -0.43963  -0.43869  -0.43768
 Alpha  occ. eigenvalues --   -0.43397  -0.43319  -0.43193  -0.42853  -0.42670
 Alpha  occ. eigenvalues --   -0.42411  -0.42252  -0.41869  -0.41678  -0.41507
 Alpha  occ. eigenvalues --   -0.41482  -0.41387  -0.41292  -0.40936  -0.40790
 Alpha  occ. eigenvalues --   -0.40715  -0.40418  -0.40322  -0.40299  -0.40210
 Alpha  occ. eigenvalues --   -0.39632  -0.39607  -0.39322  -0.39290  -0.39040
 Alpha  occ. eigenvalues --   -0.38963  -0.38711  -0.38581  -0.38375  -0.38235
 Alpha  occ. eigenvalues --   -0.38077  -0.37593  -0.37467  -0.37258  -0.37204
 Alpha  occ. eigenvalues --   -0.36860  -0.36265  -0.36136  -0.35850  -0.35736
 Alpha  occ. eigenvalues --   -0.35486  -0.35431  -0.35237  -0.35194  -0.34502
 Alpha  occ. eigenvalues --   -0.34204  -0.33886  -0.33700  -0.33235  -0.33010
 Alpha  occ. eigenvalues --   -0.32717  -0.32614  -0.32463  -0.32431  -0.31751
 Alpha  occ. eigenvalues --   -0.31323  -0.31057  -0.30920  -0.30428  -0.29937
 Alpha  occ. eigenvalues --   -0.29753  -0.28749  -0.28468  -0.28302  -0.27959
 Alpha  occ. eigenvalues --   -0.27092  -0.26762  -0.23205  -0.21073
 Alpha virt. eigenvalues --   -0.09123  -0.05675  -0.02039  -0.00254   0.00404
 Alpha virt. eigenvalues --    0.02544   0.02884   0.03127   0.03438   0.04276
 Alpha virt. eigenvalues --    0.04506   0.05647   0.07158   0.07575   0.07862

 Mulliken charges:
               1
     1  Mg   0.815063
     2  C    0.071217
     3  C   -0.177168
     4  C   -0.140268
     5  C   -0.200719
     6  N   -0.604980
     7  C    0.367897
     8  C   -0.174615
     9  C   -0.124347
    10  C    0.273150
    11  C   -0.286768
    12  C   -0.170841
    13  C   -0.261482
    14  C    0.605224
    15  O   -0.470401
    16  O   -0.446287
    17  N   -0.684347
    18  C    0.250806
    19  C    0.127746
    20  C   -0.024450
    21  C    0.267908
    22  C   -0.404340
    23  C    0.229562
    24  O   -0.402667
    25  N   -0.681895
    26  C    0.310222
    27  C   -0.097696
    28  C    0.079787
    29  C    0.299603
    30  C    0.271946
    31  C   -0.246757
    32  C   -0.301209
    33  N   -0.729816
    34  C    0.300658
    35  C   -0.058725
    36  C    0.148660
    37  C    0.246705
    38  C   -0.386017
    39  C    0.366008
    40  O   -0.453907
    41  C   -0.349186
    42  C    0.609312
    43  O   -0.472536
    44  O   -0.476605
    45  C   -0.074447
    46  C   -0.013975
    47  C   -0.143390
    48  C    0.167041
    49  C   -0.349915
    50  C   -0.227234
    51  C   -0.169029
    52  C   -0.149383
    53  C   -0.036557
    54  C   -0.328785
    55  C   -0.151875
    56  C   -0.198895
    57  C   -0.125694
    58  C   -0.043315
    59  C   -0.319870
    60  C   -0.180858
    61  C   -0.147824
    62  C   -0.133670
    63  C   -0.076634
    64  C   -0.294868
    65  C   -0.305071
    66  H    0.072591
    67  H    0.131161
    68  H    0.095430
    69  H    0.110054
    70  H    0.116947
    71  H    0.112799
    72  H    0.110888
    73  H    0.126724
    74  H    0.096402
    75  H    0.131491
    76  H    0.139643
    77  H    0.144313
    78  H    0.104848
    79  H    0.153282
    80  H    0.129531
    81  H    0.048670
    82  H    0.121637
    83  H    0.101406
    84  H    0.103449
    85  H    0.100589
    86  H    0.124856
    87  H    0.134139
    88  H    0.140572
    89  H    0.111734
    90  H    0.160957
    91  H    0.091719
    92  H    0.140370
    93  H    0.082120
    94  H    0.161942
    95  H    0.093462
    96  H    0.070233
    97  H    0.106260
    98  H    0.082174
    99  H    0.074869
   100  H    0.091214
   101  H    0.076893
   102  H    0.102275
   103  H    0.044992
   104  H    0.106144
   105  H    0.103900
   106  H    0.085325
   107  H    0.097802
   108  H    0.085246
   109  H    0.079731
   110  H    0.077880
   111  H    0.094454
   112  H    0.060210
   113  H    0.052822
   114  H    0.084327
   115  H    0.109600
   116  H    0.111036
   117  H    0.082999
   118  H    0.092659
   119  H    0.081257
   120  H    0.062122
   121  H    0.081020
   122  H    0.102573
   123  H    0.095600
   124  H    0.106793
   125  H    0.092812
   126  H    0.106073
   127  H    0.105715
   128  H    0.069502
   129  H    0.057449
   130  H    0.132027
   131  H    0.146012
   132  H    0.119844
   133  O   -0.398662
   134  H    0.063893
 Sum of Mulliken charges =   0.00000

 Dipole moment (field-independent basis, Debye):
    X=              0.7875    Y=             -4.1366    Z=             -0.1343  Tot=              4.2130
 Quadrupole moment (field-independent basis, Debye-Ang):
   XX=           -384.9268   YY=           -436.5902   ZZ=           -398.0663
   XY=             -5.7423   XZ=             29.7892   YZ=            -35.3359

 Normal termination of Gaussian 09 at Mon Oct  7 18:51:28 2019.
