 Gaussian 09, Revision D.01,
 Gaussian 09:  ES64L-G09RevD.01 24-Apr-2013

 ----------------------------------------------------------------------
 # td=(NStates=1) iop(3/107=0140000000,3/108=0140000000) iop(3/107=0140
 000000,3/108=0140000000) CAM-B3LYP/6-31G(d,p)
 ----------------------------------------------------------------------

 --
 TD
 --
 Symbolic Z-matrix:
 Charge =  0 Multiplicity = 1

                         Standard orientation:
 ---------------------------------------------------------------------
 Center     Atomic      Atomic             Coordinates (Angstroms)
 Number     Number       Type             X           Y           Z
 ---------------------------------------------------------------------
      1         12           0       -5.568333    1.257918    0.209956
      2          6           0       -5.138414   -2.106392   -0.337899
      3          6           0       -3.306815    1.206052    2.708368
      4          6           0       -6.113343    4.612946    0.652200
      5          6           0       -7.901631    1.244706   -2.452263
      6          7           0       -4.453342   -0.295218    1.094060
      7          6           0       -4.328113   -1.579251    0.669422
      8          6           0       -3.261534   -2.363819    1.449352
      9          6           0       -2.945461   -1.317847    2.645863
     10          6           0       -3.593432   -0.092003    2.083426
     11          6           0       -3.599898   -1.662821    3.980965
     12          6           0       -2.079138   -2.815275    0.674499
     13          6           0       -1.084383   -3.655349    1.346686
     14          6           0        0.239641   -3.931283    0.492534
     15          8           0        0.564333   -3.526839   -0.579788
     16          8           0        1.028180   -4.782924    1.174209
     17          7           0       -5.035514    2.604109    1.597773
     18          6           0       -4.012738    2.398444    2.604600
     19          6           0       -3.705324    3.632147    3.152658
     20          6           0       -4.539987    4.578891    2.636472
     21          6           0       -5.301402    3.905170    1.552301
     22          6           0       -2.601286    3.808946    4.200486
     23          6           0       -4.597818    6.001142    3.004605
     24          8           0       -4.067737    6.511664    4.009816
     25          7           0       -6.844414    2.613891   -0.689932
     26          6           0       -6.882027    3.963789   -0.351286
     27          6           0       -7.841630    4.608553   -1.219042
     28          6           0       -8.382051    3.672640   -2.061155
     29          6           0       -7.629238    2.477081   -1.843265
     30          6           0       -8.256143    5.967086   -1.118793
     31          6           0       -9.403880    3.957258   -3.145906
     32          6           0       -8.692232    4.221179   -4.594817
     33          7           0       -6.221440   -0.055847   -1.136280
     34          6           0       -7.283875    0.047346   -2.117537
     35          6           0       -7.527561   -1.293022   -2.694171
     36          6           0       -6.681370   -2.137495   -2.130118
     37          6           0       -5.988389   -1.327527   -1.167130
     38          6           0       -8.494470   -1.554182   -3.870167
     39          6           0       -6.190181   -3.565133   -2.030296
     40          8           0       -6.589683   -4.503228   -2.581046
     41          6           0       -5.153404   -3.514937   -0.889658
     42          6           0       -5.414589   -4.586606    0.120158
     43          8           0       -5.983091   -4.388943    1.246341
     44          8           0       -5.063004   -5.797505   -0.308239
     45          6           0       -5.417064   -6.953688    0.484932
     46          6           0        2.342764   -5.166215    0.619371
     47          6           0        3.415374   -4.264052    1.071270
     48          6           0        4.012269   -3.348614    0.231288
     49          6           0        3.839290   -3.118321   -1.262760
     50          6           0        5.088525   -2.544309    0.753904
     51          6           0        6.506979   -2.813104    0.115058
     52          6           0        7.495274   -1.841673    0.635114
     53          6           0        9.045690   -1.942611    0.008821
     54          6           0        9.602581   -3.403744    0.162467
     55          6           0        9.919510   -0.869250    0.423043
     56          6           0       11.239791   -0.766501   -0.302821
     57          6           0       12.197002    0.312487    0.194121
     58          6           0       13.520147    0.503317   -0.556608
     59          6           0       14.345122   -0.696751   -0.366373
     60          6           0       14.192113    1.869978   -0.212338
     61          6           0       15.446213    2.055448   -0.993013
     62          6           0       16.042715    3.422273   -0.581170
     63          6           0       17.462096    3.781068   -1.371418
     64          6           0       17.334872    3.960961   -2.800199
     65          6           0       17.951355    5.253120   -0.824214
     66          1           0       -2.477162    1.210678    3.463536
     67          1           0       -6.237075    5.609324    0.571566
     68          1           0       -8.709664    1.199175   -3.164997
     69          1           0       -3.801268   -3.365207    1.741932
     70          1           0       -1.978180   -1.207780    2.741332
     71          1           0       -3.337944   -2.622953    4.464309
     72          1           0       -3.444624   -0.796475    4.725506
     73          1           0       -4.498894   -1.968166    3.619928
     74          1           0       -2.733691   -3.401949   -0.263690
     75          1           0       -1.557090   -2.008109   -0.016939
     76          1           0       -0.512016   -3.188914    2.166913
     77          1           0       -1.347869   -4.715968    1.379531
     78          1           0       -1.598852    3.615019    3.759539
     79          1           0       -2.813255    4.758370    4.892620
     80          1           0       -2.652105    2.955927    4.948098
     81          1           0       -5.111555    6.575274    2.261256
     82          1           0      -10.135481    3.163121   -3.220034
     83          1           0       -9.920221    4.695545   -2.976859
     84          1           0       -9.416389    4.349564   -5.305411
     85          1           0       -7.835690    4.903371   -4.443041
     86          1           0       -8.251436    3.265199   -4.757033
     87          1           0       -8.376069   -0.914662   -4.868890
     88          1           0       -8.436719   -2.803239   -4.237965
     89          1           0       -9.498419   -1.344795   -3.684650
     90          1           0       -4.159388   -3.892899   -1.496028
     91          1           0        2.376475   -6.291309    1.101768
     92          1           0        2.081098   -5.372356   -0.583030
     93          1           0        3.688679   -4.360871    2.093839
     94          1           0        2.810761   -3.511335   -1.623493
     95          1           0        4.024335   -2.138663   -1.486895
     96          1           0        4.510329   -3.800366   -1.829555
     97          1           0        4.640120   -1.489671    0.610288
     98          1           0        5.190982   -2.968414    1.758036
     99          1           0        6.462742   -3.876787    0.369974
    100          1           0        6.529049   -2.586543   -1.050103
    101          1           0        7.236298   -0.801230    0.501456
    102          1           0        7.604161   -1.792567    1.706184
    103          1           0        8.900533   -1.789686   -1.123994
    104          1           0        9.046195   -4.132561   -0.419843
    105          1           0       10.677871   -3.689889   -0.304153
    106          1           0        9.675201   -3.255255    1.386907
    107          1           0        9.453432    0.163129    0.072524
    108          1           0       10.079333   -0.834428    1.458409
    109          1           0       11.762654   -1.757900   -0.466396
    110          1           0       11.058861   -0.455369   -1.292711
    111          1           0       11.683314    1.327994    0.042493
    112          1           0       12.467862   -0.012521    1.234044
    113          1           0       13.037260    0.427290   -1.678184
    114          1           0       14.654366   -0.757259    0.735029
    115          1           0       13.767647   -1.537359   -0.708994
    116          1           0       15.444960   -0.547465   -0.802339
    117          1           0       13.495065    2.662717   -0.362502
    118          1           0       14.416691    1.833763    0.851674
    119          1           0       16.100697    1.400797   -0.750138
    120          1           0       15.154874    1.954908   -2.002247
    121          1           0       15.341439    4.224234   -0.649450
    122          1           0       16.229288    3.367739    0.334554
    123          1           0       18.212663    3.164091   -1.047363
    124          1           0       16.738172    4.887922   -2.929654
    125          1           0       18.297112    4.290546   -3.348707
    126          1           0       16.848805    3.042026   -3.536881
    127          1           0       18.345973    5.234921    0.341540
    128          1           0       18.803129    5.731801   -1.425570
    129          1           0       17.073793    5.938786   -0.869321
    130          1           0       -5.259993   -7.831225   -0.026789
    131          1           0       -6.387870   -6.937679    0.720220
    132          1           0       -4.902912   -6.957820    1.435565
    133          8           0       -7.630043    6.862212   -0.458799
    134          1           0       -9.242074    6.223837   -1.612892
 ---------------------------------------------------------------------

 SCF Done:  E(RCAM-B3LYP) =  -3043.42904271     A.U. after   16 cycles

 Excitation energies and oscillator strengths:

 Excited State   1:      Singlet-A      2.0078 eV  617.52 nm  f=0.1533  <S**2>=0.000
     243 -> 246        0.26972
     244 -> 245        0.64846
 This state for optimization and/or second-order correction.
 Total Energy, E(TD-HF/TD-KS) =  -3043.35525871
 Copying the excited state density for this state as the 1-particle RhoCI density.

 The electronic state is 1-A.
 Alpha  occ. eigenvalues --  -46.80908 -19.24060 -19.21044 -19.18748 -19.17092
 Alpha  occ. eigenvalues --  -19.16795 -19.16667 -19.16273 -14.39641 -14.37184
 Alpha  occ. eigenvalues --  -14.36566 -14.36426 -10.36143 -10.34444 -10.32677
 Alpha  occ. eigenvalues --  -10.29888 -10.29758 -10.29580 -10.28380 -10.27814
 Alpha  occ. eigenvalues --  -10.26617 -10.26573 -10.26554 -10.26350 -10.26345
 Alpha  occ. eigenvalues --  -10.25860 -10.25809 -10.25677 -10.25566 -10.25105
 Alpha  occ. eigenvalues --  -10.25071 -10.24958 -10.24567 -10.24300 -10.24076
 Alpha  occ. eigenvalues --  -10.24026 -10.23993 -10.23717 -10.23602 -10.23290
 Alpha  occ. eigenvalues --  -10.23144 -10.22899 -10.22806 -10.22701 -10.22476
 Alpha  occ. eigenvalues --  -10.22275 -10.22263 -10.22187 -10.22125 -10.22009
 Alpha  occ. eigenvalues --  -10.21982 -10.21869 -10.21859 -10.21849 -10.21839
 Alpha  occ. eigenvalues --  -10.21770 -10.21625 -10.21517 -10.21202 -10.20943
 Alpha  occ. eigenvalues --  -10.20910 -10.20838 -10.20241 -10.20127 -10.19314
 Alpha  occ. eigenvalues --  -10.18418  -3.09656  -1.84584  -1.84122  -1.84084
 Alpha  occ. eigenvalues --   -1.14010  -1.13118  -1.11775  -1.04569  -1.04321
 Alpha  occ. eigenvalues --   -1.03121  -1.02629  -1.01922  -1.00685  -0.99203
 Alpha  occ. eigenvalues --   -0.97957  -0.88848  -0.87258  -0.86342  -0.86207
 Alpha  occ. eigenvalues --   -0.85458  -0.84739  -0.84666  -0.84076  -0.83683
 Alpha  occ. eigenvalues --   -0.82854  -0.82755  -0.81917  -0.80905  -0.80456
 Alpha  occ. eigenvalues --   -0.79382  -0.78802  -0.78401  -0.77833  -0.77006
 Alpha  occ. eigenvalues --   -0.75269  -0.74404  -0.74336  -0.74001  -0.72161
 Alpha  occ. eigenvalues --   -0.71965  -0.70767  -0.70181  -0.70128  -0.69671
 Alpha  occ. eigenvalues --   -0.68951  -0.68370  -0.68323  -0.67588  -0.66239
 Alpha  occ. eigenvalues --   -0.65904  -0.65314  -0.64534  -0.63428  -0.62157
 Alpha  occ. eigenvalues --   -0.61958  -0.61378  -0.61111  -0.59791  -0.59707
 Alpha  occ. eigenvalues --   -0.58358  -0.57925  -0.57101  -0.56846  -0.56607
 Alpha  occ. eigenvalues --   -0.56307  -0.56152  -0.55855  -0.55109  -0.54574
 Alpha  occ. eigenvalues --   -0.53874  -0.53709  -0.53141  -0.52629  -0.52533
 Alpha  occ. eigenvalues --   -0.52399  -0.51918  -0.51800  -0.51624  -0.51438
 Alpha  occ. eigenvalues --   -0.51218  -0.50667  -0.50155  -0.49433  -0.49322
 Alpha  occ. eigenvalues --   -0.49134  -0.48803  -0.48607  -0.48446  -0.48094
 Alpha  occ. eigenvalues --   -0.48010  -0.47802  -0.47632  -0.47023  -0.46833
 Alpha  occ. eigenvalues --   -0.46691  -0.46666  -0.46488  -0.46212  -0.46130
 Alpha  occ. eigenvalues --   -0.45627  -0.45531  -0.45154  -0.44893  -0.44768
 Alpha  occ. eigenvalues --   -0.44635  -0.44599  -0.44375  -0.43785  -0.43726
 Alpha  occ. eigenvalues --   -0.43526  -0.43184  -0.42970  -0.42860  -0.42795
 Alpha  occ. eigenvalues --   -0.42648  -0.42555  -0.42436  -0.42171  -0.41951
 Alpha  occ. eigenvalues --   -0.41574  -0.41290  -0.41147  -0.40849  -0.40656
 Alpha  occ. eigenvalues --   -0.40509  -0.40333  -0.40298  -0.40087  -0.39933
 Alpha  occ. eigenvalues --   -0.39880  -0.39721  -0.39618  -0.39436  -0.39293
 Alpha  occ. eigenvalues --   -0.39150  -0.39120  -0.38972  -0.38952  -0.38767
 Alpha  occ. eigenvalues --   -0.38626  -0.38189  -0.37650  -0.37615  -0.37229
 Alpha  occ. eigenvalues --   -0.37074  -0.36705  -0.36058  -0.35612  -0.35530
 Alpha  occ. eigenvalues --   -0.35334  -0.35257  -0.35049  -0.35011  -0.34902
 Alpha  occ. eigenvalues --   -0.34793  -0.34157  -0.33761  -0.33385  -0.33281
 Alpha  occ. eigenvalues --   -0.32713  -0.32405  -0.32078  -0.31647  -0.31481
 Alpha  occ. eigenvalues --   -0.31252  -0.30572  -0.30502  -0.30361  -0.29792
 Alpha  occ. eigenvalues --   -0.29596  -0.28803  -0.27955  -0.27624  -0.27436
 Alpha  occ. eigenvalues --   -0.27260  -0.27210  -0.23193  -0.21155
 Alpha virt. eigenvalues --   -0.08169  -0.06604  -0.01755  -0.00582   0.00067
 Alpha virt. eigenvalues --    0.02083   0.02184   0.03359   0.03842   0.05126
 Alpha virt. eigenvalues --    0.05725   0.05983   0.07172   0.08735   0.09199

 Mulliken charges:
               1
     1  Mg   0.817985
     2  C    0.093108
     3  C   -0.205528
     4  C   -0.126992
     5  C   -0.168957
     6  N   -0.612758
     7  C    0.311060
     8  C   -0.170799
     9  C   -0.130389
    10  C    0.332216
    11  C   -0.295619
    12  C   -0.161147
    13  C   -0.231955
    14  C    0.542434
    15  O   -0.452307
    16  O   -0.469996
    17  N   -0.727579
    18  C    0.303540
    19  C    0.065006
    20  C   -0.052082
    21  C    0.351696
    22  C   -0.391790
    23  C    0.255648
    24  O   -0.437798
    25  N   -0.689466
    26  C    0.298922
    27  C   -0.008813
    28  C    0.024105
    29  C    0.252536
    30  C    0.210808
    31  C   -0.225171
    32  C   -0.323265
    33  N   -0.709668
    34  C    0.247945
    35  C   -0.012722
    36  C    0.069079
    37  C    0.293951
    38  C   -0.382178
    39  C    0.395037
    40  O   -0.396111
    41  C   -0.354729
    42  C    0.639131
    43  O   -0.512893
    44  O   -0.439597
    45  C   -0.086018
    46  C    0.002550
    47  C   -0.136200
    48  C    0.145539
    49  C   -0.364225
    50  C   -0.243449
    51  C   -0.152984
    52  C   -0.174406
    53  C   -0.069548
    54  C   -0.284647
    55  C   -0.154068
    56  C   -0.188864
    57  C   -0.160165
    58  C   -0.049953
    59  C   -0.295235
    60  C   -0.179899
    61  C   -0.159602
    62  C   -0.174407
    63  C   -0.054960
    64  C   -0.275474
    65  C   -0.324056
    66  H    0.083584
    67  H    0.118778
    68  H    0.093031
    69  H    0.120288
    70  H    0.100995
    71  H    0.108715
    72  H    0.108167
    73  H    0.139475
    74  H    0.063116
    75  H    0.114912
    76  H    0.145584
    77  H    0.147835
    78  H    0.127518
    79  H    0.157471
    80  H    0.107490
    81  H    0.093117
    82  H    0.102755
    83  H    0.110153
    84  H    0.122055
    85  H    0.124796
    86  H    0.116139
    87  H    0.113258
    88  H    0.110152
    89  H    0.140273
    90  H    0.156182
    91  H    0.093926
    92  H    0.107446
    93  H    0.095089
    94  H    0.135429
    95  H    0.118610
    96  H    0.124631
    97  H    0.097298
    98  H    0.098098
    99  H    0.107186
   100  H    0.084506
   101  H    0.101086
   102  H    0.088758
   103  H    0.061481
   104  H    0.116221
   105  H    0.080841
   106  H    0.081848
   107  H    0.076957
   108  H    0.091951
   109  H    0.082634
   110  H    0.095835
   111  H    0.074591
   112  H    0.076998
   113  H    0.044609
   114  H    0.086759
   115  H    0.110698
   116  H    0.082518
   117  H    0.093744
   118  H    0.087208
   119  H    0.101592
   120  H    0.100510
   121  H    0.085069
   122  H    0.101071
   123  H    0.098862
   124  H    0.100849
   125  H    0.091613
   126  H    0.064621
   127  H    0.071541
   128  H    0.095990
   129  H    0.105716
   130  H    0.134478
   131  H    0.147047
   132  H    0.127992
   133  O   -0.458550
   134  H    0.074974
 Sum of Mulliken charges =   0.00000

 Dipole moment (field-independent basis, Debye):
    X=              2.5708    Y=             -6.8183    Z=             -2.1322  Tot=              7.5924
 Quadrupole moment (field-independent basis, Debye-Ang):
   XX=           -381.9278   YY=           -436.9232   ZZ=           -398.9333
   XY=             21.5731   XZ=             35.1862   YZ=            -33.0492

 Normal termination of Gaussian 09 at Mon Oct  7 14:59:57 2019.
