 Gaussian 09, Revision D.01,
 Gaussian 09:  ES64L-G09RevD.01 24-Apr-2013

 ----------------------------------------------------------------------
 # td=(NStates=1) iop(3/107=0140000000,3/108=0140000000) iop(3/107=0140
 000000,3/108=0140000000) CAM-B3LYP/6-31G(d,p)
 ----------------------------------------------------------------------

 --
 TD
 --
 Symbolic Z-matrix:
 Charge =  0 Multiplicity = 1

                         Standard orientation:
 ---------------------------------------------------------------------
 Center     Atomic      Atomic             Coordinates (Angstroms)
 Number     Number       Type             X           Y           Z
 ---------------------------------------------------------------------
      1         12           0       -5.604702    1.238586    0.156162
      2          6           0       -4.930635   -2.100773   -0.414817
      3          6           0       -3.491419    1.205227    2.771912
      4          6           0       -6.203638    4.619424    0.622425
      5          6           0       -8.051986    1.134201   -2.414865
      6          7           0       -4.352177   -0.323392    1.010808
      7          6           0       -4.238882   -1.601940    0.682577
      8          6           0       -3.192522   -2.305533    1.501690
      9          6           0       -3.062244   -1.437364    2.704736
     10          6           0       -3.602546   -0.046517    2.096833
     11          6           0       -3.665844   -1.834325    3.997588
     12          6           0       -1.951245   -2.701383    0.765827
     13          6           0       -0.941836   -3.671538    1.488672
     14          6           0        0.226957   -3.901250    0.625069
     15          8           0        0.444529   -3.547143   -0.439465
     16          8           0        1.051840   -4.808114    1.298516
     17          7           0       -5.025601    2.611100    1.554871
     18          6           0       -4.014822    2.451904    2.525346
     19          6           0       -3.752946    3.566513    3.205317
     20          6           0       -4.492979    4.679670    2.668772
     21          6           0       -5.244056    3.994992    1.468987
     22          6           0       -2.756467    3.727953    4.360799
     23          6           0       -4.643846    6.010190    2.966815
     24          8           0       -3.895638    6.638252    3.740708
     25          7           0       -6.843320    2.561331   -0.645142
     26          6           0       -7.013646    3.938047   -0.293099
     27          6           0       -8.035763    4.503546   -1.081543
     28          6           0       -8.554614    3.635703   -1.994892
     29          6           0       -7.844590    2.363508   -1.685735
     30          6           0       -8.330278    5.964359   -1.103790
     31          6           0       -9.509015    3.888872   -3.154931
     32          6           0       -8.672650    4.068597   -4.454400
     33          7           0       -6.453054   -0.122415   -1.216708
     34          6           0       -7.340255   -0.082897   -2.199914
     35          6           0       -7.460239   -1.345060   -2.741855
     36          6           0       -6.612709   -2.131835   -2.049799
     37          6           0       -5.869837   -1.344825   -1.045975
     38          6           0       -8.421236   -1.655416   -3.883039
     39          6           0       -6.010205   -3.505719   -2.102618
     40          8           0       -6.486916   -4.468027   -2.666854
     41          6           0       -4.945386   -3.547725   -0.979723
     42          6           0       -5.147046   -4.653599    0.002333
     43          8           0       -5.550317   -4.498445    1.148859
     44          8           0       -4.972516   -5.796310   -0.541843
     45          6           0       -5.363242   -6.990596    0.328892
     46          6           0        2.348729   -5.049281    0.799243
     47          6           0        3.419514   -4.044330    1.118672
     48          6           0        4.044341   -3.222606    0.320809
     49          6           0        3.894541   -3.108664   -1.177240
     50          6           0        5.176518   -2.408589    0.745629
     51          6           0        6.466866   -2.758357    0.059962
     52          6           0        7.663535   -1.823560    0.555242
     53          6           0        8.915541   -1.992519   -0.133251
     54          6           0        9.495521   -3.352026    0.155995
     55          6           0        9.851875   -0.846803    0.398426
     56          6           0       11.283754   -0.815176   -0.306261
     57          6           0       12.183014    0.330754    0.167943
     58          6           0       13.636543    0.479524   -0.568416
     59          6           0       14.426548   -0.676819   -0.278432
     60          6           0       14.210167    1.785661   -0.213794
     61          6           0       15.330738    2.170341   -1.109888
     62          6           0       16.075217    3.501816   -0.662361
     63          6           0       17.357769    3.931637   -1.345964
     64          6           0       17.207284    4.006920   -2.896961
     65          6           0       17.703878    5.255292   -0.839083
     66          1           0       -2.555933    1.041838    3.478429
     67          1           0       -6.524332    5.584286    0.716060
     68          1           0       -8.550984    1.279224   -3.422484
     69          1           0       -3.658851   -3.246272    1.874155
     70          1           0       -1.958719   -1.163471    2.723807
     71          1           0       -3.294572   -2.800355    4.459662
     72          1           0       -3.801093   -1.131181    4.787841
     73          1           0       -4.774631   -2.072936    3.711620
     74          1           0       -2.062135   -3.174336   -0.316719
     75          1           0       -1.453726   -1.761104    0.366838
     76          1           0       -0.769616   -3.251786    2.539312
     77          1           0       -1.508295   -4.609753    1.655403
     78          1           0       -1.620102    3.534410    4.080449
     79          1           0       -2.780567    4.756456    4.837775
     80          1           0       -3.000339    2.994769    5.120043
     81          1           0       -5.476888    6.622560    2.281108
     82          1           0      -10.196759    2.900722   -3.462090
     83          1           0      -10.050636    4.740209   -3.115887
     84          1           0       -9.331442    4.137693   -5.266156
     85          1           0       -7.837829    4.940860   -4.507019
     86          1           0       -8.166623    3.036647   -4.550272
     87          1           0       -8.241994   -0.940292   -4.727738
     88          1           0       -8.103662   -2.620610   -4.356162
     89          1           0       -9.471387   -1.733732   -3.580437
     90          1           0       -4.017622   -3.564191   -1.617172
     91          1           0        2.716560   -6.168762    1.394248
     92          1           0        2.299764   -5.151661   -0.364957
     93          1           0        3.686815   -4.138203    2.197616
     94          1           0        2.905607   -3.507938   -1.351483
     95          1           0        3.832251   -2.047566   -1.759085
     96          1           0        4.362913   -3.921306   -1.829813
     97          1           0        5.050523   -1.366801    0.530929
     98          1           0        5.333238   -2.327499    1.867885
     99          1           0        6.561810   -3.833754    0.153752
    100          1           0        6.404661   -2.706345   -0.975024
    101          1           0        7.135175   -0.877087    0.545471
    102          1           0        8.044835   -1.955802    1.642207
    103          1           0        8.719532   -1.844538   -1.198682
    104          1           0        8.710228   -4.181856    0.142872
    105          1           0       10.338907   -3.713352   -0.357975
    106          1           0        9.534343   -3.240229    1.347257
    107          1           0        9.302109    0.067640    0.243527
    108          1           0       10.066075   -0.833919    1.484215
    109          1           0       11.968919   -1.752787   -0.033678
    110          1           0       11.115430   -0.738398   -1.390905
    111          1           0       11.732937    1.314194    0.046654
    112          1           0       12.531163    0.261581    1.293136
    113          1           0       13.412176    0.545833   -1.571382
    114          1           0       14.510008   -0.733272    0.842611
    115          1           0       14.176567   -1.558167   -0.526492
    116          1           0       15.575727   -0.433241   -0.480895
    117          1           0       13.464958    2.507138   -0.266004
    118          1           0       14.583712    1.768926    0.803096
    119          1           0       16.150473    1.370447   -0.955085
    120          1           0       14.932074    2.176331   -2.283644
    121          1           0       15.291606    4.277380   -0.843904
    122          1           0       16.274053    3.683089    0.389983
    123          1           0       18.031664    3.079961   -1.240506
    124          1           0       16.353666    4.946580   -3.096814
    125          1           0       18.080451    4.590228   -3.322171
    126          1           0       17.029573    2.928689   -3.327397
    127          1           0       17.827854    5.089991    0.108029
    128          1           0       18.702408    5.463627   -1.368014
    129          1           0       16.986046    6.152925   -1.155712
    130          1           0       -5.131522   -7.896368   -0.103240
    131          1           0       -6.418960   -6.719191    0.512451
    132          1           0       -4.857599   -6.827529    1.263643
    133          8           0       -7.907117    6.850199   -0.464417
    134          1           0       -8.916764    6.292904   -1.965050
 ---------------------------------------------------------------------

 SCF Done:  E(RCAM-B3LYP) =  -3043.45594552     A.U. after   16 cycles

 Excitation energies and oscillator strengths:

 Excited State   1:      Singlet-A      1.9591 eV  632.85 nm  f=0.1818  <S**2>=0.000
     243 -> 245        0.13344
     243 -> 246       -0.27474
     244 -> 245        0.63071
 This state for optimization and/or second-order correction.
 Total Energy, E(TD-HF/TD-KS) =  -3043.38394851
 Copying the excited state density for this state as the 1-particle RhoCI density.

 The electronic state is 1-A.
 Alpha  occ. eigenvalues --  -46.81695 -19.23754 -19.21150 -19.19206 -19.17740
 Alpha  occ. eigenvalues --  -19.17465 -19.16855 -19.15693 -14.39734 -14.37110
 Alpha  occ. eigenvalues --  -14.37100 -14.36014 -10.35504 -10.35471 -10.31633
 Alpha  occ. eigenvalues --  -10.30150 -10.29584 -10.29502 -10.28391 -10.28028
 Alpha  occ. eigenvalues --  -10.27676 -10.27525 -10.27489 -10.26160 -10.25943
 Alpha  occ. eigenvalues --  -10.25710 -10.25671 -10.25553 -10.25541 -10.25165
 Alpha  occ. eigenvalues --  -10.25146 -10.25092 -10.24940 -10.24871 -10.24692
 Alpha  occ. eigenvalues --  -10.24324 -10.24243 -10.23777 -10.23520 -10.23409
 Alpha  occ. eigenvalues --  -10.23330 -10.23161 -10.23002 -10.23000 -10.22931
 Alpha  occ. eigenvalues --  -10.22747 -10.22481 -10.22413 -10.22303 -10.22234
 Alpha  occ. eigenvalues --  -10.22040 -10.21865 -10.21497 -10.21236 -10.21072
 Alpha  occ. eigenvalues --  -10.21068 -10.21019 -10.20841 -10.20753 -10.20663
 Alpha  occ. eigenvalues --  -10.20313 -10.20256 -10.19920 -10.19675 -10.19007
 Alpha  occ. eigenvalues --  -10.18884  -3.10197  -1.85135  -1.84692  -1.84576
 Alpha  occ. eigenvalues --   -1.15818  -1.15633  -1.10054  -1.07499  -1.07009
 Alpha  occ. eigenvalues --   -1.04507  -1.03948  -1.02198  -1.00844  -0.98121
 Alpha  occ. eigenvalues --   -0.96616  -0.89275  -0.87255  -0.86860  -0.86321
 Alpha  occ. eigenvalues --   -0.85394  -0.85283  -0.84447  -0.84159  -0.83331
 Alpha  occ. eigenvalues --   -0.82781  -0.82396  -0.82161  -0.80654  -0.79857
 Alpha  occ. eigenvalues --   -0.79311  -0.78496  -0.78044  -0.77808  -0.76400
 Alpha  occ. eigenvalues --   -0.75767  -0.74743  -0.74100  -0.73811  -0.71960
 Alpha  occ. eigenvalues --   -0.71278  -0.71097  -0.70360  -0.69943  -0.69876
 Alpha  occ. eigenvalues --   -0.69764  -0.69252  -0.67327  -0.66483  -0.66393
 Alpha  occ. eigenvalues --   -0.65664  -0.64709  -0.64295  -0.63060  -0.62348
 Alpha  occ. eigenvalues --   -0.61890  -0.60872  -0.59673  -0.59402  -0.59325
 Alpha  occ. eigenvalues --   -0.59217  -0.58636  -0.57751  -0.57483  -0.57402
 Alpha  occ. eigenvalues --   -0.56771  -0.55886  -0.55532  -0.55432  -0.54811
 Alpha  occ. eigenvalues --   -0.54217  -0.54088  -0.53424  -0.52824  -0.52779
 Alpha  occ. eigenvalues --   -0.52246  -0.52074  -0.51938  -0.51632  -0.51395
 Alpha  occ. eigenvalues --   -0.51277  -0.51000  -0.50298  -0.49670  -0.49239
 Alpha  occ. eigenvalues --   -0.48732  -0.48589  -0.48505  -0.47898  -0.47751
 Alpha  occ. eigenvalues --   -0.47648  -0.47550  -0.47367  -0.47285  -0.47044
 Alpha  occ. eigenvalues --   -0.46805  -0.46521  -0.46323  -0.46301  -0.46242
 Alpha  occ. eigenvalues --   -0.45867  -0.45488  -0.45181  -0.44947  -0.44877
 Alpha  occ. eigenvalues --   -0.44753  -0.44582  -0.44336  -0.44123  -0.43728
 Alpha  occ. eigenvalues --   -0.43608  -0.43337  -0.42980  -0.42901  -0.42578
 Alpha  occ. eigenvalues --   -0.42535  -0.42462  -0.42186  -0.42009  -0.41768
 Alpha  occ. eigenvalues --   -0.41583  -0.41183  -0.40930  -0.40894  -0.40818
 Alpha  occ. eigenvalues --   -0.40539  -0.40364  -0.40293  -0.40073  -0.39889
 Alpha  occ. eigenvalues --   -0.39807  -0.39693  -0.39574  -0.39413  -0.39353
 Alpha  occ. eigenvalues --   -0.39126  -0.38883  -0.38545  -0.38396  -0.37895
 Alpha  occ. eigenvalues --   -0.37887  -0.37420  -0.37397  -0.37332  -0.37067
 Alpha  occ. eigenvalues --   -0.36769  -0.36535  -0.36396  -0.36241  -0.35888
 Alpha  occ. eigenvalues --   -0.35789  -0.35162  -0.34809  -0.34699  -0.34631
 Alpha  occ. eigenvalues --   -0.34075  -0.33982  -0.33917  -0.33759  -0.33608
 Alpha  occ. eigenvalues --   -0.33057  -0.32348  -0.32220  -0.31944  -0.31824
 Alpha  occ. eigenvalues --   -0.31715  -0.31419  -0.31055  -0.30262  -0.29574
 Alpha  occ. eigenvalues --   -0.28762  -0.28222  -0.27958  -0.27840  -0.27366
 Alpha  occ. eigenvalues --   -0.27242  -0.26564  -0.22945  -0.21795
 Alpha virt. eigenvalues --   -0.09118  -0.06733  -0.01978  -0.00531   0.00841
 Alpha virt. eigenvalues --    0.02840   0.03097   0.03432   0.03843   0.04562
 Alpha virt. eigenvalues --    0.05009   0.05803   0.06923   0.08480   0.09221

 Mulliken charges:
               1
     1  Mg   0.817361
     2  C    0.026323
     3  C   -0.200842
     4  C   -0.152963
     5  C   -0.180955
     6  N   -0.602029
     7  C    0.339618
     8  C   -0.155437
     9  C   -0.119714
    10  C    0.260931
    11  C   -0.315271
    12  C   -0.191064
    13  C   -0.274852
    14  C    0.618182
    15  O   -0.401161
    16  O   -0.480771
    17  N   -0.690007
    18  C    0.350478
    19  C    0.061923
    20  C    0.049564
    21  C    0.259274
    22  C   -0.380825
    23  C    0.167832
    24  O   -0.436776
    25  N   -0.693387
    26  C    0.313358
    27  C   -0.048865
    28  C    0.073809
    29  C    0.248088
    30  C    0.258062
    31  C   -0.244395
    32  C   -0.306195
    33  N   -0.762124
    34  C    0.321180
    35  C    0.002059
    36  C   -0.029389
    37  C    0.369112
    38  C   -0.383053
    39  C    0.356050
    40  O   -0.437766
    41  C   -0.303388
    42  C    0.639331
    43  O   -0.509474
    44  O   -0.429237
    45  C   -0.095577
    46  C    0.015033
    47  C   -0.133202
    48  C    0.171389
    49  C   -0.398333
    50  C   -0.231593
    51  C   -0.189119
    52  C   -0.152424
    53  C   -0.063013
    54  C   -0.289209
    55  C   -0.173005
    56  C   -0.175239
    57  C   -0.182168
    58  C   -0.045836
    59  C   -0.287913
    60  C   -0.156978
    61  C   -0.179145
    62  C   -0.160630
    63  C   -0.057288
    64  C   -0.282523
    65  C   -0.285404
    66  H    0.087014
    67  H    0.117724
    68  H    0.089150
    69  H    0.128234
    70  H    0.095369
    71  H    0.112799
    72  H    0.131089
    73  H    0.114183
    74  H    0.103079
    75  H    0.109129
    76  H    0.140038
    77  H    0.149679
    78  H    0.110466
    79  H    0.155770
    80  H    0.120505
    81  H    0.061563
    82  H    0.099692
    83  H    0.127385
    84  H    0.121559
    85  H    0.105183
    86  H    0.099485
    87  H    0.114713
    88  H    0.137626
    89  H    0.137168
    90  H    0.166836
    91  H    0.072686
    92  H    0.095161
    93  H    0.086738
    94  H    0.131781
    95  H    0.107860
    96  H    0.120322
    97  H    0.099872
    98  H    0.084660
    99  H    0.094742
   100  H    0.110423
   101  H    0.089299
   102  H    0.070530
   103  H    0.079013
   104  H    0.094311
   105  H    0.113665
   106  H    0.076110
   107  H    0.093822
   108  H    0.090638
   109  H    0.080320
   110  H    0.093526
   111  H    0.080983
   112  H    0.067488
   113  H    0.083260
   114  H    0.083437
   115  H    0.111032
   116  H    0.073367
   117  H    0.095669
   118  H    0.086719
   119  H    0.078465
   120  H    0.073600
   121  H    0.079150
   122  H    0.083598
   123  H    0.091501
   124  H    0.052386
   125  H    0.094845
   126  H    0.096603
   127  H    0.109466
   128  H    0.086115
   129  H    0.095786
   130  H    0.145130
   131  H    0.155053
   132  H    0.146560
   133  O   -0.386871
   134  H    0.045319
 Sum of Mulliken charges =   0.00000

 Dipole moment (field-independent basis, Debye):
    X=              1.0302    Y=             -6.6386    Z=             -2.0223  Tot=              7.0159
 Quadrupole moment (field-independent basis, Debye-Ang):
   XX=           -384.8171   YY=           -437.0021   ZZ=           -395.0291
   XY=             16.9606   XZ=             27.2423   YZ=            -37.2603

 Normal termination of Gaussian 09 at Tue Oct  8 20:36:50 2019.
