 Gaussian 09, Revision D.01,
 Gaussian 09:  ES64L-G09RevD.01 24-Apr-2013

 ----------------------------------------------------------------------
 # td=(NStates=1) iop(3/107=0140000000,3/108=0140000000) iop(3/107=0140
 000000,3/108=0140000000) CAM-B3LYP/6-31G(d,p)
 ----------------------------------------------------------------------

 --
 TD
 --
 Symbolic Z-matrix:
 Charge =  0 Multiplicity = 1

                         Standard orientation:
 ---------------------------------------------------------------------
 Center     Atomic      Atomic             Coordinates (Angstroms)
 Number     Number       Type             X           Y           Z
 ---------------------------------------------------------------------
      1         12           0       -5.739939    1.244958    0.221590
      2          6           0       -4.978837   -2.233167   -0.315202
      3          6           0       -3.336113    1.193721    2.735121
      4          6           0       -6.410759    4.490641    0.713126
      5          6           0       -8.026083    1.154807   -2.386740
      6          7           0       -4.408226   -0.255761    1.041331
      7          6           0       -4.305709   -1.630794    0.755198
      8          6           0       -3.270953   -2.275554    1.523532
      9          6           0       -2.901424   -1.252164    2.664441
     10          6           0       -3.538203    0.002280    2.100928
     11          6           0       -3.372130   -1.630030    4.100001
     12          6           0       -1.951543   -2.739189    0.779502
     13          6           0       -1.028962   -3.541883    1.499015
     14          6           0        0.232582   -3.864676    0.668349
     15          8           0        0.446185   -3.366365   -0.413257
     16          8           0        1.112883   -4.594960    1.452713
     17          7           0       -4.952477    2.652781    1.446213
     18          6           0       -4.009028    2.443125    2.372550
     19          6           0       -3.692217    3.617803    3.107591
     20          6           0       -4.573243    4.650707    2.538682
     21          6           0       -5.343370    3.999619    1.540065
     22          6           0       -2.793425    3.848735    4.231329
     23          6           0       -4.660650    6.014969    2.897613
     24          8           0       -3.986207    6.616235    3.729002
     25          7           0       -6.989375    2.592660   -0.694938
     26          6           0       -7.075484    3.873508   -0.296863
     27          6           0       -8.056266    4.590070   -1.210388
     28          6           0       -8.578564    3.593312   -2.029807
     29          6           0       -7.885135    2.339638   -1.715215
     30          6           0       -8.424887    6.017115   -1.257349
     31          6           0       -9.455412    3.769085   -3.179692
     32          6           0       -8.618266    3.826320   -4.520123
     33          7           0       -6.262652   -0.170054   -1.108720
     34          6           0       -7.353999   -0.089752   -2.130482
     35          6           0       -7.601392   -1.333555   -2.757747
     36          6           0       -6.626485   -2.203751   -2.046563
     37          6           0       -5.895089   -1.486776   -1.080064
     38          6           0       -8.580817   -1.706552   -3.901214
     39          6           0       -6.176442   -3.580338   -2.032721
     40          8           0       -6.560615   -4.577031   -2.597222
     41          6           0       -4.987230   -3.557257   -0.869844
     42          6           0       -5.140559   -4.691195    0.072504
     43          8           0       -5.584506   -4.583070    1.211001
     44          8           0       -4.767157   -5.829450   -0.434156
     45          6           0       -5.202311   -6.973609    0.375993
     46          6           0        2.282417   -4.963382    0.600813
     47          6           0        3.415585   -4.077907    0.946776
     48          6           0        4.081368   -3.248150    0.172529
     49          6           0        3.646312   -3.029216   -1.290069
     50          6           0        5.216574   -2.412732    0.639654
     51          6           0        6.543384   -2.681478   -0.047962
     52          6           0        7.648947   -1.748222    0.541217
     53          6           0        9.092904   -2.145977   -0.002013
     54          6           0        9.521311   -3.547812    0.378888
     55          6           0       10.051250   -0.974512    0.367814
     56          6           0       11.380344   -0.945117   -0.274983
     57          6           0       12.195814    0.181884    0.206235
     58          6           0       13.528463    0.496687   -0.611570
     59          6           0       14.434155   -0.714098   -0.326727
     60          6           0       14.205507    1.880548   -0.281107
     61          6           0       15.542746    2.185028   -1.003812
     62          6           0       15.965233    3.567533   -0.660479
     63          6           0       17.295454    3.961869   -1.411333
     64          6           0       17.108500    4.114868   -2.874735
     65          6           0       17.875194    5.218224   -0.849764
     66          1           0       -2.522352    1.224880    3.461475
     67          1           0       -6.644008    5.545710    0.880440
     68          1           0       -8.596757    1.110130   -3.142678
     69          1           0       -3.799936   -3.173338    2.001671
     70          1           0       -1.805604   -1.145466    2.676167
     71          1           0       -2.820902   -2.504335    4.594786
     72          1           0       -3.470055   -0.944161    4.860604
     73          1           0       -4.293746   -1.925753    3.916903
     74          1           0       -2.462269   -3.173926   -0.116728
     75          1           0       -1.322831   -1.942259    0.476949
     76          1           0       -0.617561   -3.067123    2.464988
     77          1           0       -1.495113   -4.574025    1.766224
     78          1           0       -1.800073    3.406857    4.145554
     79          1           0       -2.774074    4.936317    4.476442
     80          1           0       -3.340348    3.282323    5.026540
     81          1           0       -5.196265    6.499426    2.084473
     82          1           0      -10.120602    2.895966   -3.211712
     83          1           0       -9.837466    4.757104   -2.997965
     84          1           0       -9.581740    4.012241   -5.199773
     85          1           0       -7.858274    4.497772   -4.444641
     86          1           0       -8.103351    2.944568   -4.786634
     87          1           0       -8.176060   -1.211747   -4.667049
     88          1           0       -8.434583   -2.689967   -4.040969
     89          1           0       -9.571635   -1.320794   -3.672425
     90          1           0       -4.103507   -3.813715   -1.348447
     91          1           0        2.545414   -5.849822    0.946140
     92          1           0        1.870118   -4.694900   -0.321098
     93          1           0        3.839997   -4.172989    2.091216
     94          1           0        2.635243   -3.239018   -1.656618
     95          1           0        4.058291   -1.960783   -1.614544
     96          1           0        4.350436   -3.689899   -1.779015
     97          1           0        4.919577   -1.389907    0.440923
     98          1           0        5.221039   -2.466948    1.629989
     99          1           0        6.745584   -3.782407    0.164099
    100          1           0        6.383834   -2.754367   -1.120160
    101          1           0        7.644486   -0.658028    0.193384
    102          1           0        7.588550   -1.741266    1.696641
    103          1           0        9.061600   -2.092215   -0.977593
    104          1           0        8.851656   -4.247021   -0.061469
    105          1           0       10.608832   -3.765281   -0.190083
    106          1           0        9.461678   -3.446227    1.586712
    107          1           0        9.441432    0.029774    0.475761
    108          1           0       10.243113   -0.982120    1.438193
    109          1           0       12.146452   -1.889148   -0.168468
    110          1           0       11.264202   -0.900978   -1.345724
    111          1           0       11.640994    1.253035    0.007880
    112          1           0       12.596259    0.310326    1.299432
    113          1           0       13.396888    0.520394   -1.681067
    114          1           0       14.523318   -0.812367    0.763048
    115          1           0       13.755173   -1.613384   -0.728666
    116          1           0       15.476201   -0.409277   -0.689646
    117          1           0       13.403702    2.735607   -0.473879
    118          1           0       14.295413    1.895262    0.803132
    119          1           0       16.484461    1.515530   -0.561217
    120          1           0       15.499044    1.954423   -1.988067
    121          1           0       15.243278    4.296950   -0.922299
    122          1           0       16.331587    3.847048    0.351632
    123          1           0       18.142798    3.280568   -1.113300
    124          1           0       16.629362    5.004458   -2.958809
    125          1           0       18.101679    4.283990   -3.448405
    126          1           0       16.640577    3.175838   -3.557019
    127          1           0       17.891601    5.318008    0.266378
    128          1           0       18.856258    5.478663   -1.307117
    129          1           0       17.280745    6.075308   -1.130278
    130          1           0       -4.973374   -7.757609   -0.441668
    131          1           0       -6.302179   -6.789369    0.754472
    132          1           0       -4.277221   -7.113660    1.226937
    133          8           0       -8.027909    6.833371   -0.372005
    134          1           0       -9.140339    6.430931   -2.148202
 ---------------------------------------------------------------------

 SCF Done:  E(RCAM-B3LYP) =  -3043.48366070     A.U. after   16 cycles

 Excitation energies and oscillator strengths:

 Excited State   1:      Singlet-A      1.9433 eV  638.02 nm  f=0.2281  <S**2>=0.000
     243 -> 246        0.23559
     244 -> 245        0.65653
 This state for optimization and/or second-order correction.
 Total Energy, E(TD-HF/TD-KS) =  -3043.41224659
 Copying the excited state density for this state as the 1-particle RhoCI density.

 The electronic state is 1-A.
 Alpha  occ. eigenvalues --  -46.81022 -19.22914 -19.22042 -19.18617 -19.17798
 Alpha  occ. eigenvalues --  -19.17242 -19.16390 -19.15782 -14.39124 -14.37549
 Alpha  occ. eigenvalues --  -14.37072 -14.36312 -10.35498 -10.33877 -10.32440
 Alpha  occ. eigenvalues --  -10.31343 -10.30230 -10.28929 -10.27394 -10.27229
 Alpha  occ. eigenvalues --  -10.27018 -10.27015 -10.26851 -10.26708 -10.26623
 Alpha  occ. eigenvalues --  -10.26114 -10.25536 -10.25409 -10.24995 -10.24733
 Alpha  occ. eigenvalues --  -10.24384 -10.24196 -10.23942 -10.23893 -10.23833
 Alpha  occ. eigenvalues --  -10.23656 -10.23557 -10.23512 -10.23356 -10.23191
 Alpha  occ. eigenvalues --  -10.22869 -10.22747 -10.22501 -10.22448 -10.22389
 Alpha  occ. eigenvalues --  -10.22386 -10.22373 -10.22250 -10.22076 -10.21993
 Alpha  occ. eigenvalues --  -10.21989 -10.21858 -10.21571 -10.21551 -10.21450
 Alpha  occ. eigenvalues --  -10.21348 -10.21239 -10.21105 -10.21034 -10.20895
 Alpha  occ. eigenvalues --  -10.20733 -10.20665 -10.20488 -10.20333 -10.20046
 Alpha  occ. eigenvalues --  -10.19993  -3.09638  -1.84575  -1.84112  -1.84046
 Alpha  occ. eigenvalues --   -1.14796  -1.12792  -1.07252  -1.05459  -1.05311
 Alpha  occ. eigenvalues --   -1.04720  -1.03628  -1.00389  -0.99550  -0.98706
 Alpha  occ. eigenvalues --   -0.96818  -0.88789  -0.86823  -0.86603  -0.86042
 Alpha  occ. eigenvalues --   -0.85570  -0.85059  -0.84744  -0.83859  -0.83341
 Alpha  occ. eigenvalues --   -0.83196  -0.83083  -0.81882  -0.80846  -0.80163
 Alpha  occ. eigenvalues --   -0.79246  -0.78999  -0.78368  -0.77672  -0.76889
 Alpha  occ. eigenvalues --   -0.76101  -0.75589  -0.74624  -0.73124  -0.72031
 Alpha  occ. eigenvalues --   -0.71096  -0.70817  -0.70471  -0.69983  -0.69842
 Alpha  occ. eigenvalues --   -0.69387  -0.68741  -0.67921  -0.67440  -0.66989
 Alpha  occ. eigenvalues --   -0.66081  -0.64697  -0.63791  -0.62973  -0.62356
 Alpha  occ. eigenvalues --   -0.61281  -0.61135  -0.60494  -0.59790  -0.58883
 Alpha  occ. eigenvalues --   -0.58620  -0.58142  -0.57458  -0.57335  -0.56902
 Alpha  occ. eigenvalues --   -0.56252  -0.55877  -0.55233  -0.55119  -0.54563
 Alpha  occ. eigenvalues --   -0.54160  -0.53928  -0.53149  -0.52849  -0.52105
 Alpha  occ. eigenvalues --   -0.51954  -0.51752  -0.51263  -0.50660  -0.50424
 Alpha  occ. eigenvalues --   -0.50136  -0.49979  -0.49807  -0.49658  -0.48977
 Alpha  occ. eigenvalues --   -0.48635  -0.48395  -0.48270  -0.48059  -0.47851
 Alpha  occ. eigenvalues --   -0.47729  -0.47700  -0.47512  -0.47285  -0.46997
 Alpha  occ. eigenvalues --   -0.46763  -0.46530  -0.46480  -0.46410  -0.46023
 Alpha  occ. eigenvalues --   -0.45821  -0.45699  -0.45581  -0.45293  -0.45125
 Alpha  occ. eigenvalues --   -0.44708  -0.44611  -0.44382  -0.44148  -0.43920
 Alpha  occ. eigenvalues --   -0.43726  -0.43656  -0.43499  -0.43226  -0.43201
 Alpha  occ. eigenvalues --   -0.42812  -0.42499  -0.42378  -0.42132  -0.41801
 Alpha  occ. eigenvalues --   -0.41571  -0.41451  -0.41351  -0.41313  -0.40972
 Alpha  occ. eigenvalues --   -0.40826  -0.40732  -0.40642  -0.40418  -0.40251
 Alpha  occ. eigenvalues --   -0.40100  -0.39789  -0.39735  -0.39697  -0.39509
 Alpha  occ. eigenvalues --   -0.39336  -0.39109  -0.39041  -0.38631  -0.38613
 Alpha  occ. eigenvalues --   -0.38247  -0.38149  -0.37868  -0.37625  -0.37244
 Alpha  occ. eigenvalues --   -0.36894  -0.36834  -0.36439  -0.35822  -0.35476
 Alpha  occ. eigenvalues --   -0.35368  -0.35310  -0.35213  -0.34796  -0.34525
 Alpha  occ. eigenvalues --   -0.34282  -0.34081  -0.33798  -0.33617  -0.33321
 Alpha  occ. eigenvalues --   -0.32871  -0.32388  -0.32248  -0.32133  -0.31368
 Alpha  occ. eigenvalues --   -0.31213  -0.30559  -0.30322  -0.30125  -0.29519
 Alpha  occ. eigenvalues --   -0.28768  -0.28527  -0.27530  -0.27345  -0.27222
 Alpha  occ. eigenvalues --   -0.27013  -0.26952  -0.22883  -0.22197
 Alpha virt. eigenvalues --   -0.09873  -0.06569  -0.01621  -0.01301   0.01004
 Alpha virt. eigenvalues --    0.02908   0.03323   0.04016   0.04358   0.04912
 Alpha virt. eigenvalues --    0.05080   0.05807   0.08025   0.08422   0.08670

 Mulliken charges:
               1
     1  Mg   0.823933
     2  C    0.159503
     3  C   -0.178913
     4  C   -0.183323
     5  C   -0.122153
     6  N   -0.630729
     7  C    0.322501
     8  C   -0.196729
     9  C   -0.152774
    10  C    0.348647
    11  C   -0.314358
    12  C   -0.146260
    13  C   -0.264371
    14  C    0.612708
    15  O   -0.458875
    16  O   -0.487936
    17  N   -0.729418
    18  C    0.334094
    19  C    0.045312
    20  C   -0.018453
    21  C    0.296141
    22  C   -0.401169
    23  C    0.232809
    24  O   -0.438421
    25  N   -0.720267
    26  C    0.344203
    27  C   -0.005989
    28  C    0.011663
    29  C    0.322730
    30  C    0.219723
    31  C   -0.245221
    32  C   -0.303047
    33  N   -0.745889
    34  C    0.218581
    35  C    0.030675
    36  C   -0.030815
    37  C    0.311151
    38  C   -0.346759
    39  C    0.345674
    40  O   -0.454043
    41  C   -0.383117
    42  C    0.616551
    43  O   -0.507510
    44  O   -0.427410
    45  C   -0.079695
    46  C    0.020652
    47  C   -0.149927
    48  C    0.135000
    49  C   -0.377354
    50  C   -0.213542
    51  C   -0.185878
    52  C   -0.177908
    53  C   -0.052853
    54  C   -0.280552
    55  C   -0.183192
    56  C   -0.161280
    57  C   -0.161599
    58  C   -0.076832
    59  C   -0.295619
    60  C   -0.173974
    61  C   -0.154225
    62  C   -0.159410
    63  C   -0.059755
    64  C   -0.288938
    65  C   -0.330160
    66  H    0.093127
    67  H    0.136447
    68  H    0.048878
    69  H    0.135816
    70  H    0.099913
    71  H    0.100518
    72  H    0.118654
    73  H    0.136370
    74  H    0.102221
    75  H    0.124076
    76  H    0.136418
    77  H    0.119771
    78  H    0.122419
    79  H    0.169607
    80  H    0.132197
    81  H    0.072721
    82  H    0.116918
    83  H    0.111497
    84  H    0.105461
    85  H    0.128825
    86  H    0.120232
    87  H    0.146039
    88  H    0.156932
    89  H    0.130470
    90  H    0.159669
    91  H    0.118677
    92  H    0.135391
    93  H    0.054377
    94  H    0.148453
    95  H    0.090732
    96  H    0.122062
    97  H    0.104868
    98  H    0.100233
    99  H    0.091432
   100  H    0.100494
   101  H    0.091423
   102  H    0.085642
   103  H    0.095077
   104  H    0.114820
   105  H    0.074920
   106  H    0.086123
   107  H    0.080758
   108  H    0.090458
   109  H    0.079304
   110  H    0.104241
   111  H    0.055730
   112  H    0.085796
   113  H    0.081743
   114  H    0.096507
   115  H    0.085938
   116  H    0.093583
   117  H    0.070875
   118  H    0.090800
   119  H    0.067363
   120  H    0.109796
   121  H    0.092644
   122  H    0.091347
   123  H    0.081989
   124  H    0.115379
   125  H    0.086030
   126  H    0.074105
   127  H    0.097137
   128  H    0.099896
   129  H    0.095261
   130  H    0.131884
   131  H    0.156490
   132  H    0.105151
   133  O   -0.430406
   134  H    0.074674
 Sum of Mulliken charges =   0.00000

 Dipole moment (field-independent basis, Debye):
    X=              1.0674    Y=             -4.0057    Z=             -2.5040  Tot=              4.8430
 Quadrupole moment (field-independent basis, Debye-Ang):
   XX=           -371.1922   YY=           -443.8014   ZZ=           -390.3969
   XY=             14.6285   XZ=             27.4084   YZ=            -32.4313

 Normal termination of Gaussian 09 at Tue Oct  8 13:42:37 2019.
