 Gaussian 09, Revision D.01,
 Gaussian 09:  ES64L-G09RevD.01 24-Apr-2013

 ----------------------------------------------------------------------
 # td=(NStates=1) iop(3/107=0140000000,3/108=0140000000) iop(3/107=0140
 000000,3/108=0140000000) CAM-B3LYP/6-31G(d,p)
 ----------------------------------------------------------------------

 --
 TD
 --
 Symbolic Z-matrix:
 Charge =  0 Multiplicity = 1

                         Standard orientation:
 ---------------------------------------------------------------------
 Center     Atomic      Atomic             Coordinates (Angstroms)
 Number     Number       Type             X           Y           Z
 ---------------------------------------------------------------------
      1         12           0       -5.563927    1.179190    0.186745
      2          6           0       -5.082815   -2.134852   -0.426209
      3          6           0       -3.304960    1.190516    2.601547
      4          6           0       -6.073372    4.520292    0.659108
      5          6           0       -8.021029    1.239862   -2.402104
      6          7           0       -4.271592   -0.300228    0.891373
      7          6           0       -4.268949   -1.597823    0.556860
      8          6           0       -3.288391   -2.383068    1.448316
      9          6           0       -2.911586   -1.293282    2.541445
     10          6           0       -3.535178   -0.041655    2.060139
     11          6           0       -3.227019   -1.730569    3.997570
     12          6           0       -2.012946   -2.878835    0.686700
     13          6           0       -1.009161   -3.738949    1.438475
     14          6           0        0.188814   -3.923061    0.594274
     15          8           0        0.442549   -3.486283   -0.437780
     16          8           0        1.087108   -4.704287    1.358477
     17          7           0       -4.850454    2.677581    1.429551
     18          6           0       -3.993346    2.422614    2.479901
     19          6           0       -3.701053    3.581295    3.204569
     20          6           0       -4.561389    4.569412    2.649923
     21          6           0       -5.243210    3.922343    1.501077
     22          6           0       -2.812382    3.774335    4.387950
     23          6           0       -4.693803    5.993546    2.926742
     24          8           0       -4.041449    6.505085    3.887606
     25          7           0       -6.791943    2.604276   -0.643667
     26          6           0       -6.850760    3.998448   -0.310586
     27          6           0       -7.800788    4.659447   -1.208548
     28          6           0       -8.352094    3.710674   -1.999215
     29          6           0       -7.662347    2.502193   -1.657449
     30          6           0       -8.111458    6.155292   -1.163345
     31          6           0       -9.456042    3.967873   -3.050753
     32          6           0       -8.786041    4.022225   -4.528790
     33          7           0       -6.345326   -0.169143   -1.050923
     34          6           0       -7.280854    0.006116   -2.029968
     35          6           0       -7.546823   -1.324009   -2.754480
     36          6           0       -6.697034   -2.203226   -2.135884
     37          6           0       -5.966284   -1.418833   -1.098073
     38          6           0       -8.402692   -1.525345   -3.949425
     39          6           0       -6.334100   -3.495591   -2.018345
     40          8           0       -6.545448   -4.456622   -2.738830
     41          6           0       -5.210105   -3.576306   -0.949834
     42          6           0       -5.410935   -4.668221    0.105875
     43          8           0       -5.840501   -4.398086    1.280250
     44          8           0       -5.177298   -5.884875   -0.458620
     45          6           0       -5.534915   -6.957435    0.386722
     46          6           0        2.344875   -5.089773    0.646851
     47          6           0        3.492353   -4.130205    0.952636
     48          6           0        4.076928   -3.271778    0.173455
     49          6           0        3.830688   -3.232760   -1.299810
     50          6           0        5.209145   -2.454894    0.674858
     51          6           0        6.519334   -2.738710    0.113154
     52          6           0        7.649770   -1.910652    0.734842
     53          6           0        8.985223   -2.013259    0.122239
     54          6           0        9.559750   -3.477418    0.228043
     55          6           0        9.980827   -0.906710    0.542710
     56          6           0       11.303966   -0.870311   -0.247836
     57          6           0       12.195059    0.288364    0.214402
     58          6           0       13.448312    0.572612   -0.592481
     59          6           0       14.382840   -0.607859   -0.424877
     60          6           0       14.061036    1.836848   -0.297695
     61          6           0       15.265440    2.194737   -1.118813
     62          6           0       16.014291    3.552514   -0.643675
     63          6           0       17.325618    3.859593   -1.400458
     64          6           0       17.087387    3.999060   -2.893385
     65          6           0       17.868742    5.100522   -0.848339
     66          1           0       -2.752712    1.337391    3.638622
     67          1           0       -6.249186    5.545750    0.848547
     68          1           0       -8.780160    1.351495   -3.129067
     69          1           0       -3.698788   -3.430013    1.653244
     70          1           0       -1.844205   -1.086112    2.414520
     71          1           0       -2.917581   -2.796326    4.530404
     72          1           0       -3.034972   -0.903633    4.786268
     73          1           0       -4.307095   -1.855635    4.023899
     74          1           0       -2.249789   -3.376312   -0.300632
     75          1           0       -1.573869   -2.074832    0.181500
     76          1           0       -0.668565   -2.812363    2.171520
     77          1           0       -1.371733   -4.571487    2.154010
     78          1           0       -1.840879    3.064174    4.380679
     79          1           0       -2.514843    4.816615    4.575606
     80          1           0       -3.405315    3.479963    5.299415
     81          1           0       -5.289730    6.594541    2.260053
     82          1           0      -10.076316    3.017472   -3.168795
     83          1           0      -10.234421    4.660486   -2.945523
     84          1           0       -9.489136    4.058660   -5.345590
     85          1           0       -8.132986    4.995200   -4.444674
     86          1           0       -7.990940    3.175301   -4.490884
     87          1           0       -8.166310   -0.950892   -4.745150
     88          1           0       -8.450329   -2.649136   -4.010792
     89          1           0       -9.480308   -1.264673   -3.843863
     90          1           0       -4.247367   -3.959744   -1.378716
     91          1           0        2.663803   -5.928242    0.958446
     92          1           0        2.079437   -4.988593   -0.380158
     93          1           0        3.561743   -4.205411    2.058897
     94          1           0        2.807573   -3.648045   -1.525234
     95          1           0        4.145573   -2.154229   -1.534813
     96          1           0        4.454938   -3.889053   -1.882781
     97          1           0        4.820209   -1.355836    0.592358
     98          1           0        5.155924   -2.553202    1.758860
     99          1           0        6.778830   -3.704776    0.310924
    100          1           0        6.651424   -2.826071   -0.860830
    101          1           0        7.318216   -0.815479    0.698028
    102          1           0        7.778924   -2.111275    1.801594
    103          1           0        8.950963   -1.740986   -1.076367
    104          1           0        8.727922   -4.121426   -0.026869
    105          1           0       10.637194   -3.542922   -0.256697
    106          1           0        9.785727   -3.618546    1.422252
    107          1           0        9.447753    0.257569    0.483604
    108          1           0       10.318026   -0.659155    1.666923
    109          1           0       11.743227   -1.929046    0.219980
    110          1           0       11.081338   -0.967197   -1.437995
    111          1           0       11.651783    1.319707    0.092196
    112          1           0       12.699394    0.028817    1.146453
    113          1           0       12.927498    0.282678   -1.595736
    114          1           0       14.789106   -0.534990    0.740357
    115          1           0       14.096432   -1.625361   -0.840062
    116          1           0       15.329490   -0.319116   -0.862715
    117          1           0       13.299688    2.682689   -0.449004
    118          1           0       14.209932    1.757585    0.641260
    119          1           0       16.005327    1.521872   -0.836751
    120          1           0       15.157763    2.255471   -2.200374
    121          1           0       15.259921    4.333816   -0.960762
    122          1           0       16.248665    3.616001    0.487778
    123          1           0       17.901655    3.060016   -1.311383
    124          1           0       16.526401    5.054027   -3.179054
    125          1           0       18.061189    4.179919   -3.223986
    126          1           0       16.744846    3.162311   -3.402002
    127          1           0       17.909158    5.061622    0.126605
    128          1           0       18.678617    5.353542   -1.324573
    129          1           0       17.106256    6.078724   -1.235331
    130          1           0       -5.293069   -7.826135   -0.101335
    131          1           0       -6.541703   -6.983943    0.462431
    132          1           0       -4.950832   -6.911399    1.358153
    133          8           0       -7.719180    6.944576   -0.331792
    134          1           0       -8.901888    6.322350   -1.816707
 ---------------------------------------------------------------------

 SCF Done:  E(RCAM-B3LYP) =  -3043.38898366     A.U. after   16 cycles

 Excitation energies and oscillator strengths:

 Excited State   1:      Singlet-A      2.0192 eV  614.03 nm  f=0.2174  <S**2>=0.000
     243 -> 246        0.24794
     244 -> 245        0.65593
 This state for optimization and/or second-order correction.
 Total Energy, E(TD-HF/TD-KS) =  -3043.31478001
 Copying the excited state density for this state as the 1-particle RhoCI density.

 The electronic state is 1-A.
 Alpha  occ. eigenvalues --  -46.81511 -19.24295 -19.20146 -19.18672 -19.18569
 Alpha  occ. eigenvalues --  -19.17883 -19.16633 -19.15559 -14.39214 -14.37604
 Alpha  occ. eigenvalues --  -14.37422 -14.36040 -10.36311 -10.34862 -10.31085
 Alpha  occ. eigenvalues --  -10.30516 -10.29124 -10.28483 -10.28098 -10.27533
 Alpha  occ. eigenvalues --  -10.27173 -10.26652 -10.26507 -10.25850 -10.25783
 Alpha  occ. eigenvalues --  -10.25631 -10.25545 -10.25508 -10.25060 -10.24991
 Alpha  occ. eigenvalues --  -10.24912 -10.24764 -10.24762 -10.24631 -10.24512
 Alpha  occ. eigenvalues --  -10.23963 -10.23812 -10.23791 -10.23510 -10.23452
 Alpha  occ. eigenvalues --  -10.23318 -10.23240 -10.23195 -10.23076 -10.22897
 Alpha  occ. eigenvalues --  -10.22847 -10.22663 -10.22612 -10.22434 -10.22357
 Alpha  occ. eigenvalues --  -10.21877 -10.21669 -10.21408 -10.21117 -10.21056
 Alpha  occ. eigenvalues --  -10.20956 -10.20918 -10.20815 -10.20537 -10.20257
 Alpha  occ. eigenvalues --  -10.20080 -10.19855 -10.19819 -10.19392 -10.19324
 Alpha  occ. eigenvalues --  -10.19008  -3.10191  -1.85128  -1.84657  -1.84612
 Alpha  occ. eigenvalues --   -1.14321  -1.13885  -1.08177  -1.06969  -1.04363
 Alpha  occ. eigenvalues --   -1.03354  -1.02746  -1.02054  -1.00610  -0.99816
 Alpha  occ. eigenvalues --   -0.99081  -0.89738  -0.87241  -0.86983  -0.86203
 Alpha  occ. eigenvalues --   -0.85620  -0.85126  -0.85039  -0.84523  -0.84354
 Alpha  occ. eigenvalues --   -0.83387  -0.82363  -0.81406  -0.80781  -0.80220
 Alpha  occ. eigenvalues --   -0.79278  -0.78682  -0.77956  -0.77571  -0.76797
 Alpha  occ. eigenvalues --   -0.75635  -0.74926  -0.73866  -0.73664  -0.72213
 Alpha  occ. eigenvalues --   -0.72092  -0.71191  -0.70565  -0.70195  -0.69893
 Alpha  occ. eigenvalues --   -0.69524  -0.68966  -0.68352  -0.67226  -0.66701
 Alpha  occ. eigenvalues --   -0.66205  -0.65371  -0.65017  -0.63892  -0.62921
 Alpha  occ. eigenvalues --   -0.62229  -0.61169  -0.60288  -0.59867  -0.58915
 Alpha  occ. eigenvalues --   -0.58646  -0.58305  -0.57229  -0.57176  -0.56856
 Alpha  occ. eigenvalues --   -0.56493  -0.56381  -0.55561  -0.55093  -0.54802
 Alpha  occ. eigenvalues --   -0.54347  -0.53686  -0.53328  -0.53016  -0.52953
 Alpha  occ. eigenvalues --   -0.52083  -0.51750  -0.51609  -0.51518  -0.51282
 Alpha  occ. eigenvalues --   -0.50660  -0.50307  -0.50199  -0.50122  -0.49754
 Alpha  occ. eigenvalues --   -0.49319  -0.49234  -0.49079  -0.48654  -0.48307
 Alpha  occ. eigenvalues --   -0.48195  -0.47934  -0.47456  -0.47246  -0.47149
 Alpha  occ. eigenvalues --   -0.47021  -0.46929  -0.46678  -0.46273  -0.46007
 Alpha  occ. eigenvalues --   -0.45938  -0.45700  -0.45449  -0.45246  -0.45041
 Alpha  occ. eigenvalues --   -0.44839  -0.44683  -0.44536  -0.44104  -0.43760
 Alpha  occ. eigenvalues --   -0.43655  -0.43350  -0.43073  -0.42775  -0.42720
 Alpha  occ. eigenvalues --   -0.42546  -0.42416  -0.42189  -0.42108  -0.41789
 Alpha  occ. eigenvalues --   -0.41596  -0.41531  -0.41299  -0.41220  -0.40706
 Alpha  occ. eigenvalues --   -0.40631  -0.40548  -0.40297  -0.40040  -0.39839
 Alpha  occ. eigenvalues --   -0.39759  -0.39544  -0.39436  -0.39342  -0.39227
 Alpha  occ. eigenvalues --   -0.38865  -0.38834  -0.38780  -0.38491  -0.38224
 Alpha  occ. eigenvalues --   -0.38091  -0.37787  -0.37505  -0.37333  -0.36968
 Alpha  occ. eigenvalues --   -0.36752  -0.36579  -0.36270  -0.35790  -0.35609
 Alpha  occ. eigenvalues --   -0.35528  -0.35344  -0.34882  -0.34597  -0.34546
 Alpha  occ. eigenvalues --   -0.34133  -0.33788  -0.33720  -0.33305  -0.32604
 Alpha  occ. eigenvalues --   -0.32369  -0.32265  -0.31925  -0.31894  -0.31682
 Alpha  occ. eigenvalues --   -0.31068  -0.30731  -0.30713  -0.30074  -0.29960
 Alpha  occ. eigenvalues --   -0.29671  -0.29274  -0.28698  -0.27836  -0.27462
 Alpha  occ. eigenvalues --   -0.26996  -0.26628  -0.23195  -0.21526
 Alpha virt. eigenvalues --   -0.08687  -0.06670  -0.02315  -0.00987   0.00323
 Alpha virt. eigenvalues --    0.01444   0.03407   0.03662   0.04174   0.04779
 Alpha virt. eigenvalues --    0.05076   0.05689   0.07990   0.08597   0.09389

 Mulliken charges:
               1
     1  Mg   0.823956
     2  C    0.135233
     3  C   -0.164719
     4  C   -0.167823
     5  C   -0.156671
     6  N   -0.657728
     7  C    0.326643
     8  C   -0.148421
     9  C   -0.149000
    10  C    0.315171
    11  C   -0.312460
    12  C   -0.215272
    13  C   -0.264587
    14  C    0.635134
    15  O   -0.416553
    16  O   -0.525868
    17  N   -0.697613
    18  C    0.259250
    19  C    0.071656
    20  C   -0.040675
    21  C    0.354723
    22  C   -0.386029
    23  C    0.222996
    24  O   -0.456928
    25  N   -0.682609
    26  C    0.258378
    27  C   -0.030982
    28  C    0.028826
    29  C    0.296902
    30  C    0.285225
    31  C   -0.265065
    32  C   -0.309516
    33  N   -0.731721
    34  C    0.252905
    35  C    0.015932
    36  C    0.116948
    37  C    0.286464
    38  C   -0.391887
    39  C    0.315834
    40  O   -0.461291
    41  C   -0.320546
    42  C    0.603032
    43  O   -0.496345
    44  O   -0.426761
    45  C   -0.081784
    46  C    0.035673
    47  C   -0.151630
    48  C    0.140107
    49  C   -0.368943
    50  C   -0.233567
    51  C   -0.161351
    52  C   -0.171394
    53  C   -0.038916
    54  C   -0.305568
    55  C   -0.153464
    56  C   -0.162612
    57  C   -0.145822
    58  C   -0.061707
    59  C   -0.312220
    60  C   -0.137871
    61  C   -0.196015
    62  C   -0.174645
    63  C   -0.052702
    64  C   -0.307720
    65  C   -0.261707
    66  H    0.079258
    67  H    0.111903
    68  H    0.093949
    69  H    0.125526
    70  H    0.124654
    71  H    0.098640
    72  H    0.102851
    73  H    0.131262
    74  H    0.095110
    75  H    0.129453
    76  H    0.130152
    77  H    0.140495
    78  H    0.091078
    79  H    0.165650
    80  H    0.132584
    81  H    0.102816
    82  H    0.101617
    83  H    0.126463
    84  H    0.121703
    85  H    0.100939
    86  H    0.109495
    87  H    0.149880
    88  H    0.149455
    89  H    0.124223
    90  H    0.157634
    91  H    0.113132
    92  H    0.104668
    93  H    0.076781
    94  H    0.131983
    95  H    0.102223
    96  H    0.121938
    97  H    0.083963
    98  H    0.100698
    99  H    0.107938
   100  H    0.104516
   101  H    0.085313
   102  H    0.094671
   103  H    0.058559
   104  H    0.110880
   105  H    0.105221
   106  H    0.077249
   107  H    0.038990
   108  H    0.077101
   109  H    0.075681
   110  H    0.075372
   111  H    0.078463
   112  H    0.089432
   113  H    0.063301
   114  H    0.051976
   115  H    0.109437
   116  H    0.106030
   117  H    0.079373
   118  H    0.096368
   119  H    0.102724
   120  H    0.101578
   121  H    0.081729
   122  H    0.068062
   123  H    0.096266
   124  H    0.074399
   125  H    0.104384
   126  H    0.107887
   127  H    0.104890
   128  H    0.106148
   129  H    0.048801
   130  H    0.129231
   131  H    0.140940
   132  H    0.121699
   133  O   -0.406270
   134  H    0.075211
 Sum of Mulliken charges =   0.00000

 Dipole moment (field-independent basis, Debye):
    X=              0.3105    Y=             -5.3858    Z=             -2.7594  Tot=              6.0595
 Quadrupole moment (field-independent basis, Debye-Ang):
   XX=           -336.1137   YY=           -434.0781   ZZ=           -398.3103
   XY=              5.8023   XZ=             27.3086   YZ=            -37.8280

 Normal termination of Gaussian 09 at Wed Oct  9 04:38:46 2019.
