 Gaussian 09, Revision D.01,
 Gaussian 09:  ES64L-G09RevD.01 24-Apr-2013

 ----------------------------------------------------------------------
 # td=(NStates=1) iop(3/107=0140000000,3/108=0140000000) iop(3/107=0140
 000000,3/108=0140000000) CAM-B3LYP/6-31G(d,p)
 ----------------------------------------------------------------------

 --
 TD
 --
 Symbolic Z-matrix:
 Charge =  0 Multiplicity = 1

                         Standard orientation:
 ---------------------------------------------------------------------
 Center     Atomic      Atomic             Coordinates (Angstroms)
 Number     Number       Type             X           Y           Z
 ---------------------------------------------------------------------
      1         12           0       -5.690414    1.181876    0.230944
      2          6           0       -4.904651   -2.133324   -0.348300
      3          6           0       -3.377824    1.261883    2.720167
      4          6           0       -6.273830    4.534078    0.612442
      5          6           0       -8.101033    1.069097   -2.343228
      6          7           0       -4.334641   -0.228010    0.967634
      7          6           0       -4.178604   -1.612739    0.617397
      8          6           0       -3.157821   -2.325491    1.416526
      9          6           0       -2.865588   -1.275768    2.614450
     10          6           0       -3.572388   -0.026988    2.103011
     11          6           0       -3.260819   -1.779710    3.952765
     12          6           0       -1.867292   -2.693390    0.678532
     13          6           0       -0.872631   -3.456080    1.406805
     14          6           0        0.334199   -3.858550    0.545321
     15          8           0        0.591665   -3.450151   -0.568466
     16          8           0        1.100307   -4.588869    1.285341
     17          7           0       -4.871492    2.564529    1.510832
     18          6           0       -3.964044    2.438832    2.473776
     19          6           0       -3.711430    3.745405    3.117211
     20          6           0       -4.544503    4.658376    2.474818
     21          6           0       -5.319313    3.909144    1.539713
     22          6           0       -2.824495    3.866326    4.290245
     23          6           0       -4.657208    6.031955    2.847814
     24          8           0       -4.111597    6.557350    3.770372
     25          7           0       -7.071101    2.579675   -0.605637
     26          6           0       -7.075494    3.831551   -0.286003
     27          6           0       -8.091305    4.474944   -1.177185
     28          6           0       -8.582690    3.490651   -2.052210
     29          6           0       -7.836521    2.317631   -1.708027
     30          6           0       -8.577313    5.866568   -1.197405
     31          6           0       -9.589102    3.642454   -3.163011
     32          6           0       -8.938214    3.958995   -4.489373
     33          7           0       -6.375709   -0.209994   -1.123638
     34          6           0       -7.358192   -0.103158   -2.071148
     35          6           0       -7.650133   -1.385410   -2.611398
     36          6           0       -6.724980   -2.258618   -2.014083
     37          6           0       -5.941788   -1.445321   -1.099929
     38          6           0       -8.670582   -1.701618   -3.724549
     39          6           0       -6.145350   -3.540235   -2.037998
     40          8           0       -6.520812   -4.645206   -2.589092
     41          6           0       -4.942106   -3.551772   -0.974136
     42          6           0       -5.203820   -4.534485    0.091019
     43          8           0       -5.652859   -4.425162    1.205852
     44          8           0       -5.085741   -5.752253   -0.420651
     45          6           0       -5.225866   -6.917554    0.399842
     46          6           0        2.395108   -5.012733    0.767207
     47          6           0        3.438412   -4.002051    1.107715
     48          6           0        4.086395   -3.193388    0.198422
     49          6           0        3.809344   -3.147383   -1.345013
     50          6           0        5.244032   -2.317761    0.746924
     51          6           0        6.587130   -2.665790    0.170505
     52          6           0        7.686203   -1.883384    0.776625
     53          6           0        9.088250   -2.016716    0.063092
     54          6           0        9.782414   -3.349383    0.425535
     55          6           0        9.994495   -0.847227    0.443199
     56          6           0       11.402554   -0.980057   -0.107649
     57          6           0       12.251407    0.280289    0.184937
     58          6           0       13.559986    0.495344   -0.659340
     59          6           0       14.494838   -0.649671   -0.398735
     60          6           0       14.237805    1.772876   -0.284536
     61          6           0       15.382875    2.216559   -1.041227
     62          6           0       15.914905    3.615349   -0.856408
     63          6           0       17.330971    4.002819   -1.402992
     64          6           0       17.246859    3.912012   -3.005660
     65          6           0       17.768442    5.400009   -0.918156
     66          1           0       -2.732548    1.136961    3.724050
     67          1           0       -6.536559    5.536586    0.795983
     68          1           0       -8.799195    1.046257   -3.217882
     69          1           0       -3.622465   -3.337625    1.714435
     70          1           0       -1.738206   -0.786129    2.738904
     71          1           0       -2.690768   -2.595394    4.081531
     72          1           0       -3.007450   -1.037495    4.461458
     73          1           0       -4.291980   -1.914537    4.052668
     74          1           0       -2.252545   -3.185206   -0.105118
     75          1           0       -1.453718   -1.606146    0.282614
     76          1           0       -0.714757   -3.023096    2.419154
     77          1           0       -1.391051   -4.304039    1.828604
     78          1           0       -1.728869    3.918257    3.828172
     79          1           0       -2.879815    4.909123    4.811787
     80          1           0       -2.778729    3.035047    5.131851
     81          1           0       -5.696551    6.562552    2.208164
     82          1           0      -10.315539    2.717951   -3.198189
     83          1           0      -10.392011    4.436703   -3.185331
     84          1           0       -9.556780    3.969822   -5.081586
     85          1           0       -8.237405    4.935113   -4.314210
     86          1           0       -8.124918    3.194704   -4.859342
     87          1           0       -8.555356   -1.020635   -4.524595
     88          1           0       -8.669439   -2.847985   -3.751301
     89          1           0       -9.639832   -1.117028   -3.398993
     90          1           0       -4.157756   -3.868773   -1.578145
     91          1           0        2.560164   -6.029408    1.052646
     92          1           0        2.189165   -5.092726   -0.273856
     93          1           0        3.791346   -3.969965    2.127241
     94          1           0        2.900661   -3.619569   -1.493268
     95          1           0        3.818177   -2.207966   -1.776328
     96          1           0        4.697407   -3.621912   -1.880343
     97          1           0        4.962546   -1.043515    0.401270
     98          1           0        4.976455   -2.343001    1.902302
     99          1           0        6.905291   -3.860699    0.195898
    100          1           0        6.376638   -2.469425   -0.831075
    101          1           0        7.347646   -0.734509    0.657584
    102          1           0        7.647066   -2.054267    1.954639
    103          1           0        8.916593   -2.138495   -1.073154
    104          1           0        8.931635   -4.077978    0.329024
    105          1           0       10.561381   -3.684842   -0.292331
    106          1           0        9.986376   -3.313934    1.484120
    107          1           0        9.531675    0.133438    0.150321
    108          1           0       10.101030   -0.580012    1.565247
    109          1           0       11.961988   -1.789489    0.003321
    110          1           0       11.303825   -1.186675   -1.250731
    111          1           0       11.682978    1.237984   -0.062645
    112          1           0       12.642705    0.327726    1.439105
    113          1           0       13.173010    0.425101   -1.620001
    114          1           0       14.710711   -0.675925    0.850484
    115          1           0       13.905953   -1.757239   -0.479189
    116          1           0       15.455599   -0.725223   -1.238953
    117          1           0       13.554162    2.693367   -0.092090
    118          1           0       14.640271    1.736239    0.843423
    119          1           0       16.324459    1.397859   -1.203613
    120          1           0       15.167395    2.199137   -2.120652
    121          1           0       15.201730    4.357774   -1.047883
    122          1           0       16.056397    3.846429    0.358510
    123          1           0       18.143039    3.392308   -1.030752
    124          1           0       16.433636    4.575046   -3.612469
    125          1           0       18.253913    4.128381   -3.343971
    126          1           0       17.061240    2.607234   -3.148143
    127          1           0       17.955490    5.418027    0.251860
    128          1           0       18.720651    5.461915   -1.512922
    129          1           0       16.904495    6.112385   -1.369195
    130          1           0       -5.085209   -7.700553   -0.356713
    131          1           0       -6.298954   -6.915447    0.886263
    132          1           0       -4.478939   -7.129093    1.142732
    133          8           0       -8.013064    6.780565   -0.498886
    134          1           0       -9.413330    6.216054   -1.651704
 ---------------------------------------------------------------------

 SCF Done:  E(RCAM-B3LYP) =  -3043.32158590     A.U. after   16 cycles

 Excitation energies and oscillator strengths:

 Excited State   1:      Singlet-A      1.9894 eV  623.22 nm  f=0.2310  <S**2>=0.000
     243 -> 246        0.20195
     244 -> 245        0.67071
 This state for optimization and/or second-order correction.
 Total Energy, E(TD-HF/TD-KS) =  -3043.24847674
 Copying the excited state density for this state as the 1-particle RhoCI density.

 The electronic state is 1-A.
 Alpha  occ. eigenvalues --  -46.82381 -19.22560 -19.21235 -19.18311 -19.16873
 Alpha  occ. eigenvalues --  -19.16340 -19.15940 -19.15786 -14.39416 -14.37280
 Alpha  occ. eigenvalues --  -14.37181 -14.36909 -10.35062 -10.34105 -10.31680
 Alpha  occ. eigenvalues --  -10.31064 -10.29222 -10.28836 -10.27747 -10.27553
 Alpha  occ. eigenvalues --  -10.27330 -10.26779 -10.26714 -10.26619 -10.26554
 Alpha  occ. eigenvalues --  -10.26123 -10.25993 -10.25810 -10.25797 -10.25690
 Alpha  occ. eigenvalues --  -10.25166 -10.25110 -10.25042 -10.24762 -10.24648
 Alpha  occ. eigenvalues --  -10.24528 -10.24496 -10.24465 -10.24357 -10.24064
 Alpha  occ. eigenvalues --  -10.23770 -10.23734 -10.23563 -10.23483 -10.23430
 Alpha  occ. eigenvalues --  -10.23291 -10.23226 -10.23195 -10.23166 -10.23094
 Alpha  occ. eigenvalues --  -10.22613 -10.22348 -10.22310 -10.22305 -10.22239
 Alpha  occ. eigenvalues --  -10.22151 -10.21871 -10.21810 -10.21784 -10.21504
 Alpha  occ. eigenvalues --  -10.21457 -10.21335 -10.20859 -10.20852 -10.20683
 Alpha  occ. eigenvalues --  -10.19364  -3.10808  -1.85763  -1.85279  -1.85204
 Alpha  occ. eigenvalues --   -1.15122  -1.13945  -1.08901  -1.04995  -1.04030
 Alpha  occ. eigenvalues --   -1.02769  -1.02418  -1.01571  -1.00854  -1.00322
 Alpha  occ. eigenvalues --   -0.98285  -0.88593  -0.86711  -0.86204  -0.86032
 Alpha  occ. eigenvalues --   -0.85749  -0.85014  -0.84475  -0.84094  -0.83807
 Alpha  occ. eigenvalues --   -0.83407  -0.82898  -0.82526  -0.81363  -0.80267
 Alpha  occ. eigenvalues --   -0.79489  -0.79307  -0.78684  -0.77636  -0.77454
 Alpha  occ. eigenvalues --   -0.75744  -0.75327  -0.75072  -0.73162  -0.72569
 Alpha  occ. eigenvalues --   -0.72137  -0.70136  -0.69829  -0.69663  -0.69162
 Alpha  occ. eigenvalues --   -0.68757  -0.68340  -0.67791  -0.67174  -0.66565
 Alpha  occ. eigenvalues --   -0.66183  -0.65025  -0.64555  -0.62174  -0.62133
 Alpha  occ. eigenvalues --   -0.61597  -0.60779  -0.60412  -0.59672  -0.59278
 Alpha  occ. eigenvalues --   -0.58906  -0.58236  -0.58002  -0.57450  -0.57202
 Alpha  occ. eigenvalues --   -0.56399  -0.56199  -0.55940  -0.55318  -0.54739
 Alpha  occ. eigenvalues --   -0.54604  -0.54147  -0.53074  -0.52900  -0.52477
 Alpha  occ. eigenvalues --   -0.52117  -0.51664  -0.50954  -0.50583  -0.50298
 Alpha  occ. eigenvalues --   -0.50089  -0.50001  -0.49798  -0.49456  -0.49292
 Alpha  occ. eigenvalues --   -0.49261  -0.49028  -0.48309  -0.48212  -0.47978
 Alpha  occ. eigenvalues --   -0.47812  -0.47533  -0.47307  -0.47086  -0.46943
 Alpha  occ. eigenvalues --   -0.46675  -0.46442  -0.46316  -0.46182  -0.45939
 Alpha  occ. eigenvalues --   -0.45619  -0.45371  -0.45211  -0.45056  -0.44837
 Alpha  occ. eigenvalues --   -0.44650  -0.44614  -0.44370  -0.44198  -0.44147
 Alpha  occ. eigenvalues --   -0.43812  -0.43363  -0.43043  -0.42882  -0.42754
 Alpha  occ. eigenvalues --   -0.42614  -0.42584  -0.42037  -0.42001  -0.41790
 Alpha  occ. eigenvalues --   -0.41658  -0.41576  -0.41438  -0.41162  -0.40953
 Alpha  occ. eigenvalues --   -0.40793  -0.40667  -0.40411  -0.40014  -0.39846
 Alpha  occ. eigenvalues --   -0.39741  -0.39376  -0.39290  -0.39196  -0.39100
 Alpha  occ. eigenvalues --   -0.38731  -0.38530  -0.38399  -0.38067  -0.37887
 Alpha  occ. eigenvalues --   -0.37599  -0.37316  -0.37285  -0.36880  -0.36489
 Alpha  occ. eigenvalues --   -0.36437  -0.36099  -0.35847  -0.35667  -0.35367
 Alpha  occ. eigenvalues --   -0.35198  -0.35182  -0.34940  -0.34685  -0.34415
 Alpha  occ. eigenvalues --   -0.34150  -0.34025  -0.33622  -0.33340  -0.33022
 Alpha  occ. eigenvalues --   -0.32665  -0.32389  -0.32292  -0.32204  -0.31635
 Alpha  occ. eigenvalues --   -0.31154  -0.31058  -0.30353  -0.30077  -0.30052
 Alpha  occ. eigenvalues --   -0.28541  -0.28092  -0.27866  -0.27764  -0.27634
 Alpha  occ. eigenvalues --   -0.27091  -0.26974  -0.23692  -0.21657
 Alpha virt. eigenvalues --   -0.09045  -0.06568  -0.02080  -0.01080  -0.00003
 Alpha virt. eigenvalues --    0.02405   0.03209   0.03521   0.03636   0.04018
 Alpha virt. eigenvalues --    0.04371   0.05888   0.07705   0.08479   0.08571

 Mulliken charges:
               1
     1  Mg   0.826715
     2  C    0.086660
     3  C   -0.231367
     4  C   -0.141887
     5  C   -0.141966
     6  N   -0.648184
     7  C    0.318628
     8  C   -0.190242
     9  C   -0.180832
    10  C    0.360572
    11  C   -0.257628
    12  C   -0.115432
    13  C   -0.281285
    14  C    0.615889
    15  O   -0.477535
    16  O   -0.439253
    17  N   -0.712214
    18  C    0.373764
    19  C    0.082098
    20  C    0.007390
    21  C    0.271452
    22  C   -0.406036
    23  C    0.243775
    24  O   -0.392137
    25  N   -0.702498
    26  C    0.358956
    27  C   -0.089263
    28  C    0.080169
    29  C    0.262675
    30  C    0.226661
    31  C   -0.272216
    32  C   -0.249420
    33  N   -0.729633
    34  C    0.275575
    35  C    0.012696
    36  C    0.073280
    37  C    0.281669
    38  C   -0.366532
    39  C    0.294666
    40  O   -0.497569
    41  C   -0.317151
    42  C    0.623644
    43  O   -0.486116
    44  O   -0.426646
    45  C   -0.087246
    46  C   -0.014833
    47  C   -0.130799
    48  C    0.128451
    49  C   -0.366766
    50  C   -0.212107
    51  C   -0.139997
    52  C   -0.162422
    53  C   -0.058144
    54  C   -0.306459
    55  C   -0.160503
    56  C   -0.168996
    57  C   -0.159805
    58  C   -0.045304
    59  C   -0.263250
    60  C   -0.152462
    61  C   -0.155306
    62  C   -0.145459
    63  C   -0.065172
    64  C   -0.286729
    65  C   -0.285405
    66  H    0.072582
    67  H    0.130600
    68  H    0.098421
    69  H    0.122819
    70  H    0.094679
    71  H    0.116750
    72  H    0.108591
    73  H    0.129111
    74  H    0.110420
    75  H    0.085724
    76  H    0.130310
    77  H    0.125627
    78  H    0.122997
    79  H    0.158478
    80  H    0.120416
    81  H    0.023583
    82  H    0.094024
    83  H    0.119118
    84  H    0.106019
    85  H    0.099805
    86  H    0.088783
    87  H    0.143339
    88  H    0.159425
    89  H    0.106335
    90  H    0.165765
    91  H    0.124194
    92  H    0.128245
    93  H    0.087878
    94  H    0.146538
    95  H    0.128875
    96  H    0.105541
    97  H    0.046702
    98  H    0.084501
    99  H    0.075130
   100  H    0.115654
   101  H    0.071562
   102  H    0.083843
   103  H    0.079313
   104  H    0.084402
   105  H    0.106571
   106  H    0.112608
   107  H    0.089879
   108  H    0.085101
   109  H    0.113735
   110  H    0.064588
   111  H    0.085248
   112  H    0.041028
   113  H    0.101635
   114  H    0.080250
   115  H    0.063218
   116  H    0.080488
   117  H    0.080588
   118  H    0.074868
   119  H    0.057499
   120  H    0.094606
   121  H    0.099991
   122  H    0.033489
   123  H    0.098433
   124  H    0.095483
   125  H    0.106059
   126  H    0.061370
   127  H    0.098996
   128  H    0.096757
   129  H    0.084832
   130  H    0.129461
   131  H    0.123762
   132  H    0.122026
   133  O   -0.452135
   134  H    0.088286
 Sum of Mulliken charges =   0.00000

 Dipole moment (field-independent basis, Debye):
    X=              2.5633    Y=             -4.3599    Z=             -0.6212  Tot=              5.0957
 Quadrupole moment (field-independent basis, Debye-Ang):
   XX=           -385.3882   YY=           -446.6388   ZZ=           -390.7289
   XY=             -1.6125   XZ=             16.2566   YZ=            -34.9860

 Normal termination of Gaussian 09 at Tue Oct  8 05:32:21 2019.
