 Gaussian 09, Revision D.01,
 Gaussian 09:  ES64L-G09RevD.01 24-Apr-2013

 ----------------------------------------------------------------------
 # td=(NStates=1) iop(3/107=0140000000,3/108=0140000000) iop(3/107=0140
 000000,3/108=0140000000) CAM-B3LYP/6-31G(d,p)
 ----------------------------------------------------------------------

 --
 TD
 --
 Symbolic Z-matrix:
 Charge =  0 Multiplicity = 1

                         Standard orientation:
 ---------------------------------------------------------------------
 Center     Atomic      Atomic             Coordinates (Angstroms)
 Number     Number       Type             X           Y           Z
 ---------------------------------------------------------------------
      1         12           0       -5.584419    1.256764    0.112294
      2          6           0       -4.813201   -2.176951   -0.477830
      3          6           0       -3.564604    1.160725    2.780542
      4          6           0       -6.288922    4.665199    0.578674
      5          6           0       -8.025957    1.134836   -2.315216
      6          7           0       -4.300192   -0.322568    1.030901
      7          6           0       -4.118193   -1.554136    0.577747
      8          6           0       -3.132202   -2.292463    1.418856
      9          6           0       -2.868976   -1.374178    2.663123
     10          6           0       -3.569410   -0.077044    2.165075
     11          6           0       -3.361973   -1.915088    3.973451
     12          6           0       -1.830176   -2.615535    0.664566
     13          6           0       -0.975971   -3.684065    1.417115
     14          6           0        0.329557   -3.837278    0.754349
     15          8           0        0.580626   -3.287040   -0.377005
     16          8           0        1.118654   -4.751225    1.253782
     17          7           0       -4.808781    2.752601    1.296133
     18          6           0       -4.145383    2.483212    2.427079
     19          6           0       -3.922136    3.661591    3.209611
     20          6           0       -4.638812    4.641822    2.575657
     21          6           0       -5.209911    4.005693    1.467373
     22          6           0       -3.033163    3.715632    4.354753
     23          6           0       -4.842014    6.022694    3.012137
     24          8           0       -4.121597    6.597301    3.887419
     25          7           0       -6.860765    2.599436   -0.733896
     26          6           0       -6.963664    3.892809   -0.396802
     27          6           0       -8.017958    4.529902   -1.222915
     28          6           0       -8.612137    3.546103   -2.011027
     29          6           0       -7.910358    2.315149   -1.717455
     30          6           0       -8.501067    5.891185   -1.220732
     31          6           0       -9.676553    3.568911   -3.080502
     32          6           0       -9.209939    3.681445   -4.539424
     33          7           0       -6.346919   -0.159493   -1.103007
     34          6           0       -7.296213   -0.131647   -2.022392
     35          6           0       -7.508122   -1.259427   -2.690983
     36          6           0       -6.647168   -2.244300   -2.099902
     37          6           0       -5.880154   -1.433583   -1.199465
     38          6           0       -8.522555   -1.535931   -3.870006
     39          6           0       -6.109352   -3.582496   -2.068461
     40          8           0       -6.491016   -4.575747   -2.672821
     41          6           0       -4.959477   -3.635821   -0.994844
     42          6           0       -5.435174   -4.560302    0.104037
     43          8           0       -5.749230   -4.332927    1.188843
     44          8           0       -5.131543   -5.793221   -0.381429
     45          6           0       -5.534631   -6.874005    0.600203
     46          6           0        2.286433   -5.055724    0.567619
     47          6           0        3.419590   -3.997069    0.960810
     48          6           0        4.086747   -3.153630    0.206720
     49          6           0        3.905473   -2.957675   -1.251010
     50          6           0        5.178279   -2.315350    0.724717
     51          6           0        6.492047   -2.636843    0.096866
     52          6           0        7.691584   -1.883302    0.783273
     53          6           0        9.107870   -1.912985    0.075178
     54          6           0        9.670996   -3.400809    0.481345
     55          6           0       10.046625   -0.750871    0.483191
     56          6           0       11.342410   -0.700059   -0.297222
     57          6           0       12.269029    0.431321    0.083708
     58          6           0       13.695033    0.519521   -0.619450
     59          6           0       14.648831   -0.700490   -0.241595
     60          6           0       14.292406    1.855642   -0.329802
     61          6           0       15.555494    2.082675   -1.012846
     62          6           0       16.197893    3.490463   -0.686447
     63          6           0       17.406760    3.885531   -1.489222
     64          6           0       17.154208    3.978509   -3.021808
     65          6           0       17.935858    5.135702   -0.819532
     66          1           0       -3.049754    1.247448    3.766855
     67          1           0       -6.727101    5.630545    0.843014
     68          1           0       -8.923709    0.831296   -2.916607
     69          1           0       -3.675731   -3.280576    1.777565
     70          1           0       -1.851561   -1.162125    2.807963
     71          1           0       -2.736346   -2.809567    4.327154
     72          1           0       -2.927479   -1.326433    4.718661
     73          1           0       -4.509051   -1.746412    4.125270
     74          1           0       -1.997305   -3.218082   -0.348926
     75          1           0       -1.217984   -1.660490    0.286922
     76          1           0       -0.570941   -3.346582    2.476301
     77          1           0       -1.479235   -4.612189    1.386341
     78          1           0       -1.946025    3.600244    4.055780
     79          1           0       -2.960562    4.697985    4.819369
     80          1           0       -3.241570    3.086416    5.274367
     81          1           0       -5.680182    6.746531    2.554667
     82          1           0      -10.231280    2.836081   -2.929737
     83          1           0      -10.369650    4.328784   -2.806789
     84          1           0       -9.962314    4.159984   -5.348210
     85          1           0       -8.266649    4.551898   -4.590243
     86          1           0       -8.681967    2.799204   -4.814918
     87          1           0       -8.294272   -0.884213   -4.743851
     88          1           0       -8.334373   -2.540858   -4.208636
     89          1           0       -9.663996   -1.650184   -3.522851
     90          1           0       -4.031568   -4.009003   -1.431446
     91          1           0        2.462666   -6.105766    1.065722
     92          1           0        2.055342   -5.210897   -0.502212
     93          1           0        3.773544   -3.961151    1.944967
     94          1           0        2.899906   -3.239945   -1.476556
     95          1           0        4.149215   -1.816018   -1.559059
     96          1           0        4.597566   -3.688186   -1.875001
     97          1           0        5.059058   -1.260241    0.418400
     98          1           0        5.446609   -2.269134    1.857028
     99          1           0        6.468370   -3.864929    0.096501
    100          1           0        6.345606   -2.567818   -0.972226
    101          1           0        7.603598   -0.813236    0.810736
    102          1           0        7.726589   -1.982017    1.870799
    103          1           0        8.817728   -1.983273   -1.025901
    104          1           0        8.893279   -4.017825    0.321531
    105          1           0       10.685076   -3.649242   -0.236934
    106          1           0       10.122773   -3.525750    1.452248
    107          1           0        9.680621    0.220451    0.267253
    108          1           0       10.175930   -0.900479    1.426645
    109          1           0       11.870351   -1.487244   -0.102743
    110          1           0       11.074308   -1.118254   -1.421339
    111          1           0       11.607922    1.291737    0.185672
    112          1           0       12.476088    0.251855    1.269660
    113          1           0       13.492672    0.323590   -1.659107
    114          1           0       15.175123   -0.698334    0.769598
    115          1           0       14.247181   -1.659297   -0.720141
    116          1           0       15.563043   -0.779499   -1.000789
    117          1           0       13.704870    2.797187   -0.602248
    118          1           0       14.485041    1.780708    0.828291
    119          1           0       16.355652    1.442206   -0.744055
    120          1           0       15.489123    1.846926   -2.085483
    121          1           0       15.378908    4.323317   -0.875363
    122          1           0       16.238565    3.617677    0.398285
    123          1           0       18.275148    3.094980   -1.326496
    124          1           0       16.389344    4.663387   -3.190519
    125          1           0       18.027471    4.382815   -3.627968
    126          1           0       16.664695    2.952455   -3.328370
    127          1           0       17.763709    5.038887    0.209934
    128          1           0       19.081602    5.419717   -1.071473
    129          1           0       17.358023    5.960092   -1.316685
    130          1           0       -5.413779   -7.823589    0.151183
    131          1           0       -6.717070   -6.749960    0.728925
    132          1           0       -4.908168   -7.009884    1.597539
    133          8           0       -7.978632    6.750234   -0.455922
    134          1           0       -9.426779    6.190998   -1.894956
 ---------------------------------------------------------------------

 SCF Done:  E(RCAM-B3LYP) =  -3043.42628789     A.U. after   16 cycles

 Excitation energies and oscillator strengths:

 Excited State   1:      Singlet-A      1.8974 eV  653.46 nm  f=0.2559  <S**2>=0.000
     243 -> 246       -0.20463
     244 -> 245        0.66680
 This state for optimization and/or second-order correction.
 Total Energy, E(TD-HF/TD-KS) =  -3043.35656132
 Copying the excited state density for this state as the 1-particle RhoCI density.

 The electronic state is 1-A.
 Alpha  occ. eigenvalues --  -46.82451 -19.23592 -19.22275 -19.18173 -19.17171
 Alpha  occ. eigenvalues --  -19.16822 -19.16113 -19.16024 -14.39145 -14.37449
 Alpha  occ. eigenvalues --  -14.37346 -14.36158 -10.34885 -10.34679 -10.31365
 Alpha  occ. eigenvalues --  -10.31287 -10.30835 -10.29536 -10.28778 -10.27860
 Alpha  occ. eigenvalues --  -10.27276 -10.27244 -10.27076 -10.27043 -10.26404
 Alpha  occ. eigenvalues --  -10.25626 -10.25528 -10.24991 -10.24925 -10.24829
 Alpha  occ. eigenvalues --  -10.24826 -10.24729 -10.24671 -10.24497 -10.24343
 Alpha  occ. eigenvalues --  -10.24332 -10.24072 -10.24066 -10.24031 -10.23964
 Alpha  occ. eigenvalues --  -10.23725 -10.23494 -10.23082 -10.22871 -10.22780
 Alpha  occ. eigenvalues --  -10.22726 -10.22643 -10.22442 -10.22411 -10.22338
 Alpha  occ. eigenvalues --  -10.22093 -10.22005 -10.21967 -10.21925 -10.21880
 Alpha  occ. eigenvalues --  -10.21465 -10.21306 -10.21296 -10.21284 -10.21283
 Alpha  occ. eigenvalues --  -10.20888 -10.20626 -10.20460 -10.19693 -10.19624
 Alpha  occ. eigenvalues --  -10.19214  -3.10901  -1.85849  -1.85348  -1.85321
 Alpha  occ. eigenvalues --   -1.15912  -1.14908  -1.06246  -1.05624  -1.04703
 Alpha  occ. eigenvalues --   -1.03764  -1.02532  -1.01926  -1.01489  -1.00432
 Alpha  occ. eigenvalues --   -0.98470  -0.87578  -0.86931  -0.86241  -0.85653
 Alpha  occ. eigenvalues --   -0.85518  -0.84762  -0.84334  -0.83969  -0.83338
 Alpha  occ. eigenvalues --   -0.82866  -0.82449  -0.82373  -0.80528  -0.79783
 Alpha  occ. eigenvalues --   -0.79204  -0.78358  -0.77688  -0.76719  -0.76239
 Alpha  occ. eigenvalues --   -0.75342  -0.74781  -0.73738  -0.72379  -0.71922
 Alpha  occ. eigenvalues --   -0.71196  -0.71150  -0.70390  -0.69963  -0.69834
 Alpha  occ. eigenvalues --   -0.69439  -0.69425  -0.67393  -0.67305  -0.66035
 Alpha  occ. eigenvalues --   -0.65640  -0.64891  -0.64300  -0.62684  -0.61947
 Alpha  occ. eigenvalues --   -0.60913  -0.60834  -0.60504  -0.59596  -0.58950
 Alpha  occ. eigenvalues --   -0.58649  -0.58600  -0.57921  -0.57486  -0.56779
 Alpha  occ. eigenvalues --   -0.56249  -0.56025  -0.55790  -0.54916  -0.54475
 Alpha  occ. eigenvalues --   -0.54151  -0.53891  -0.52781  -0.52421  -0.52180
 Alpha  occ. eigenvalues --   -0.51850  -0.51648  -0.51461  -0.51352  -0.50837
 Alpha  occ. eigenvalues --   -0.50640  -0.50259  -0.50072  -0.49731  -0.48837
 Alpha  occ. eigenvalues --   -0.48660  -0.48530  -0.47959  -0.47950  -0.47523
 Alpha  occ. eigenvalues --   -0.47301  -0.47271  -0.47058  -0.46972  -0.46578
 Alpha  occ. eigenvalues --   -0.46261  -0.46138  -0.45951  -0.45666  -0.45571
 Alpha  occ. eigenvalues --   -0.45272  -0.45098  -0.44665  -0.44572  -0.44201
 Alpha  occ. eigenvalues --   -0.44118  -0.43900  -0.43680  -0.43546  -0.43264
 Alpha  occ. eigenvalues --   -0.43145  -0.43096  -0.42932  -0.42793  -0.42742
 Alpha  occ. eigenvalues --   -0.42620  -0.42536  -0.42293  -0.42017  -0.41483
 Alpha  occ. eigenvalues --   -0.41360  -0.41336  -0.40984  -0.40758  -0.40677
 Alpha  occ. eigenvalues --   -0.40550  -0.40456  -0.40069  -0.39993  -0.39774
 Alpha  occ. eigenvalues --   -0.39725  -0.39518  -0.39424  -0.39229  -0.38993
 Alpha  occ. eigenvalues --   -0.38721  -0.38699  -0.38419  -0.38311  -0.38073
 Alpha  occ. eigenvalues --   -0.37886  -0.37663  -0.37312  -0.37227  -0.37043
 Alpha  occ. eigenvalues --   -0.36808  -0.36546  -0.36380  -0.35855  -0.35603
 Alpha  occ. eigenvalues --   -0.35518  -0.35074  -0.35032  -0.34768  -0.34566
 Alpha  occ. eigenvalues --   -0.34160  -0.33874  -0.33680  -0.33546  -0.33256
 Alpha  occ. eigenvalues --   -0.32772  -0.32244  -0.32127  -0.31942  -0.31811
 Alpha  occ. eigenvalues --   -0.30990  -0.30761  -0.30468  -0.30124  -0.29626
 Alpha  occ. eigenvalues --   -0.29104  -0.28402  -0.28105  -0.27822  -0.27660
 Alpha  occ. eigenvalues --   -0.27381  -0.27306  -0.22842  -0.21634
 Alpha virt. eigenvalues --   -0.09850  -0.06275  -0.01686  -0.00918   0.00748
 Alpha virt. eigenvalues --    0.02700   0.03320   0.03803   0.04188   0.04249
 Alpha virt. eigenvalues --    0.04637   0.05842   0.08085   0.08627   0.09569

 Mulliken charges:
               1
     1  Mg   0.834978
     2  C    0.058797
     3  C   -0.198062
     4  C   -0.155923
     5  C   -0.186329
     6  N   -0.622316
     7  C    0.339770
     8  C   -0.177741
     9  C   -0.115268
    10  C    0.318037
    11  C   -0.316356
    12  C   -0.167226
    13  C   -0.247249
    14  C    0.583345
    15  O   -0.510135
    16  O   -0.410889
    17  N   -0.670723
    18  C    0.283600
    19  C    0.087501
    20  C    0.012477
    21  C    0.260327
    22  C   -0.425299
    23  C    0.211950
    24  O   -0.430554
    25  N   -0.719369
    26  C    0.363869
    27  C   -0.035913
    28  C    0.034524
    29  C    0.284956
    30  C    0.220357
    31  C   -0.203900
    32  C   -0.300524
    33  N   -0.708303
    34  C    0.296128
    35  C   -0.005593
    36  C    0.052455
    37  C    0.234892
    38  C   -0.382092
    39  C    0.331627
    40  O   -0.463427
    41  C   -0.324634
    42  C    0.633046
    43  O   -0.421862
    44  O   -0.453389
    45  C   -0.097422
    46  C   -0.002925
    47  C   -0.147207
    48  C    0.183571
    49  C   -0.377893
    50  C   -0.228275
    51  C   -0.170088
    52  C   -0.193944
    53  C   -0.080550
    54  C   -0.301303
    55  C   -0.160760
    56  C   -0.172345
    57  C   -0.178072
    58  C   -0.051384
    59  C   -0.328634
    60  C   -0.143880
    61  C   -0.176473
    62  C   -0.178694
    63  C   -0.039283
    64  C   -0.310633
    65  C   -0.296022
    66  H    0.082633
    67  H    0.145901
    68  H    0.101967
    69  H    0.119560
    70  H    0.112969
    71  H    0.109305
    72  H    0.117511
    73  H    0.123351
    74  H    0.102631
    75  H    0.123222
    76  H    0.114026
    77  H    0.151465
    78  H    0.128926
    79  H    0.159775
    80  H    0.119453
    81  H    0.090179
    82  H    0.124669
    83  H    0.106732
    84  H    0.112644
    85  H    0.075216
    86  H    0.130329
    87  H    0.125297
    88  H    0.150067
    89  H    0.112031
    90  H    0.166009
    91  H    0.105298
    92  H    0.130906
    93  H    0.080051
    94  H    0.148147
    95  H    0.097314
    96  H    0.104426
    97  H    0.102750
    98  H    0.080135
    99  H    0.062245
   100  H    0.108550
   101  H    0.095644
   102  H    0.092813
   103  H    0.082608
   104  H    0.119424
   105  H    0.050088
   106  H    0.106958
   107  H    0.093739
   108  H    0.102513
   109  H    0.114245
   110  H    0.053756
   111  H    0.090696
   112  H    0.061150
   113  H    0.094016
   114  H    0.111165
   115  H    0.107698
   116  H    0.085036
   117  H    0.090987
   118  H    0.073776
   119  H    0.102013
   120  H    0.085162
   121  H    0.059095
   122  H    0.095771
   123  H    0.065000
   124  H    0.111725
   125  H    0.101616
   126  H    0.092711
   127  H    0.110252
   128  H    0.074739
   129  H    0.095135
   130  H    0.136240
   131  H    0.125986
   132  H    0.116121
   133  O   -0.441471
   134  H    0.080563
 Sum of Mulliken charges =   0.00000

 Dipole moment (field-independent basis, Debye):
    X=              0.8232    Y=             -4.9023    Z=              0.5778  Tot=              5.0044
 Quadrupole moment (field-independent basis, Debye-Ang):
   XX=           -369.3051   YY=           -439.8396   ZZ=           -392.6463
   XY=              4.3414   XZ=             18.6595   YZ=            -37.4542

 Normal termination of Gaussian 09 at Fri Oct  4 10:59:37 2019.
