 Gaussian 09, Revision D.01,
 Gaussian 09:  ES64L-G09RevD.01 24-Apr-2013

 ----------------------------------------------------------------------
 # td=(NStates=1) iop(3/107=0140000000,3/108=0140000000) iop(3/107=0140
 000000,3/108=0140000000) CAM-B3LYP/6-31G(d,p)
 ----------------------------------------------------------------------

 --
 TD
 --
 Symbolic Z-matrix:
 Charge =  0 Multiplicity = 1

                         Standard orientation:
 ---------------------------------------------------------------------
 Center     Atomic      Atomic             Coordinates (Angstroms)
 Number     Number       Type             X           Y           Z
 ---------------------------------------------------------------------
      1         12           0       -5.652941    1.212375    0.245941
      2          6           0       -4.998259   -2.131060   -0.380424
      3          6           0       -3.439436    1.165187    2.785233
      4          6           0       -6.438914    4.493146    0.675952
      5          6           0       -7.966940    1.132788   -2.458537
      6          7           0       -4.385643   -0.241701    0.996005
      7          6           0       -4.242068   -1.597500    0.655162
      8          6           0       -3.125100   -2.241092    1.458501
      9          6           0       -2.886290   -1.331209    2.493338
     10          6           0       -3.596190   -0.013387    2.141201
     11          6           0       -3.489193   -1.785512    3.939336
     12          6           0       -1.910512   -2.558774    0.584136
     13          6           0       -0.848581   -3.394527    1.427423
     14          6           0        0.374121   -3.832514    0.635527
     15          8           0        0.537591   -3.440616   -0.520814
     16          8           0        1.181139   -4.677575    1.351780
     17          7           0       -4.901182    2.614800    1.443851
     18          6           0       -4.041656    2.480349    2.485296
     19          6           0       -3.850035    3.762199    3.156167
     20          6           0       -4.651305    4.628349    2.587779
     21          6           0       -5.359326    3.930896    1.476654
     22          6           0       -2.742193    3.924166    4.223564
     23          6           0       -4.882631    6.026932    2.951514
     24          8           0       -4.235597    6.584000    3.853769
     25          7           0       -6.968239    2.598484   -0.706653
     26          6           0       -7.160510    3.884738   -0.358634
     27          6           0       -8.045074    4.625457   -1.264759
     28          6           0       -8.532622    3.594636   -2.109954
     29          6           0       -7.834510    2.384237   -1.751231
     30          6           0       -8.560240    5.957963   -1.218377
     31          6           0       -9.463787    3.667430   -3.245197
     32          6           0       -8.806306    3.814967   -4.581787
     33          7           0       -6.402279   -0.140666   -1.036792
     34          6           0       -7.374008   -0.112802   -2.157510
     35          6           0       -7.647012   -1.417543   -2.742017
     36          6           0       -6.672823   -2.258694   -2.063479
     37          6           0       -5.964712   -1.482385   -1.042209
     38          6           0       -8.597363   -1.708454   -3.807704
     39          6           0       -6.191576   -3.582666   -1.995293
     40          8           0       -6.641774   -4.559384   -2.610737
     41          6           0       -5.000413   -3.589735   -0.880304
     42          6           0       -5.193107   -4.649463    0.124925
     43          8           0       -5.647162   -4.452346    1.260289
     44          8           0       -5.008484   -5.913356   -0.296996
     45          6           0       -5.155852   -6.965501    0.621896
     46          6           0        2.401494   -5.074184    0.758151
     47          6           0        3.397200   -3.972472    1.091424
     48          6           0        4.105663   -3.288631    0.168939
     49          6           0        3.853388   -3.233459   -1.220166
     50          6           0        5.168139   -2.356602    0.691853
     51          6           0        6.549105   -2.670172    0.055341
     52          6           0        7.626670   -1.793560    0.522549
     53          6           0        9.004472   -1.948475   -0.097703
     54          6           0        9.609998   -3.297598    0.191693
     55          6           0       10.036379   -0.826923    0.403206
     56          6           0       11.492134   -0.807909   -0.274474
     57          6           0       12.341860    0.390084    0.157101
     58          6           0       13.694330    0.460454   -0.659064
     59          6           0       14.451687   -0.787104   -0.454303
     60          6           0       14.339620    1.764734   -0.156771
     61          6           0       15.474113    2.256135   -1.034402
     62          6           0       16.065854    3.625477   -0.653962
     63          6           0       17.356818    3.948361   -1.291646
     64          6           0       17.328692    3.938778   -2.795941
     65          6           0       17.936091    5.312377   -0.836624
     66          1           0       -2.586029    1.096486    3.626720
     67          1           0       -6.731959    5.489163    1.091849
     68          1           0       -8.676439    0.984506   -3.177427
     69          1           0       -3.434080   -3.255791    1.902149
     70          1           0       -1.870799   -1.103287    2.790799
     71          1           0       -3.022587   -2.602676    4.620706
     72          1           0       -3.576918   -1.069199    4.667457
     73          1           0       -4.623192   -2.120621    3.916629
     74          1           0       -2.097391   -3.232092   -0.323423
     75          1           0       -1.523452   -1.759060    0.279367
     76          1           0       -0.580802   -2.867349    2.117674
     77          1           0       -1.257012   -4.235320    1.984403
     78          1           0       -1.898945    3.686857    3.825459
     79          1           0       -2.849805    4.987914    4.535943
     80          1           0       -2.970019    3.291229    5.142938
     81          1           0       -5.422809    6.865585    2.131881
     82          1           0      -10.119171    2.767888   -3.350887
     83          1           0      -10.264158    4.473448   -3.179137
     84          1           0       -9.677079    3.872037   -5.651384
     85          1           0       -8.228896    4.762388   -4.544202
     86          1           0       -8.168516    2.947947   -4.643485
     87          1           0       -8.174319   -1.312488   -4.726325
     88          1           0       -8.539368   -2.753289   -3.695587
     89          1           0       -9.646009   -1.367017   -3.623312
     90          1           0       -4.128569   -3.941405   -1.432653
     91          1           0        2.529697   -6.035242    1.503466
     92          1           0        2.051622   -5.336509   -0.351141
     93          1           0        3.589839   -4.021856    2.234492
     94          1           0        2.999739   -3.569940   -1.465040
     95          1           0        3.635318   -2.061003   -1.309693
     96          1           0        4.772397   -3.781262   -1.825470
     97          1           0        4.817325   -1.249884    0.532079
     98          1           0        5.225044   -2.379215    1.835214
     99          1           0        6.816017   -3.780863    0.066962
    100          1           0        6.288960   -2.260140   -1.057193
    101          1           0        7.527711   -0.761956    0.190802
    102          1           0        7.548095   -1.811396    1.659089
    103          1           0        8.954782   -1.940392   -1.198937
    104          1           0        8.744068   -4.224816    0.151966
    105          1           0       10.459344   -3.678833   -0.351075
    106          1           0        9.876342   -3.332146    1.292495
    107          1           0        9.588746    0.079134    0.132777
    108          1           0       10.121287   -1.018962    1.384119
    109          1           0       12.022616   -1.688139   -0.189171
    110          1           0       11.457812   -0.826853   -1.302806
    111          1           0       11.779063    1.240637   -0.002475
    112          1           0       12.575852    0.117951    1.268909
    113          1           0       13.583191    0.517696   -1.809525
    114          1           0       14.605506   -0.997843    0.737426
    115          1           0       13.850982   -1.663836   -0.943960
    116          1           0       15.454346   -0.747551   -0.990934
    117          1           0       13.542709    2.692023   -0.087539
    118          1           0       14.678178    1.648065    0.878719
    119          1           0       16.398522    1.666338   -0.798316
    120          1           0       15.347482    2.413453   -1.995989
    121          1           0       15.362996    4.200453   -0.831222
    122          1           0       16.194079    3.455258    0.464949
    123          1           0       18.084067    3.215702   -0.858661
    124          1           0       16.204683    4.298440   -3.426076
    125          1           0       18.217762    4.482146   -3.136218
    126          1           0       17.283459    2.916647   -3.239485
    127          1           0       18.429302    5.005992    0.247864
    128          1           0       18.707676    5.475835   -1.504630
    129          1           0       17.344802    6.268694   -0.926274
    130          1           0       -4.776240   -7.888527    0.182761
    131          1           0       -6.250188   -7.249203    1.016869
    132          1           0       -4.469667   -6.884071    1.523991
    133          8           0       -8.078618    6.783014   -0.448241
    134          1           0       -9.162755    6.175735   -2.116189
 ---------------------------------------------------------------------

 SCF Done:  E(RCAM-B3LYP) =  -3043.37368835     A.U. after   16 cycles

 Excitation energies and oscillator strengths:

 Excited State   1:      Singlet-A      1.9987 eV  620.32 nm  f=0.1927  <S**2>=0.000
     243 -> 246       -0.27406
     244 -> 245        0.64271
 This state for optimization and/or second-order correction.
 Total Energy, E(TD-HF/TD-KS) =  -3043.30023687
 Copying the excited state density for this state as the 1-particle RhoCI density.

 The electronic state is 1-A.
 Alpha  occ. eigenvalues --  -46.81271 -19.23034 -19.22199 -19.17886 -19.17568
 Alpha  occ. eigenvalues --  -19.17073 -19.17003 -19.16213 -14.39068 -14.37975
 Alpha  occ. eigenvalues --  -14.37726 -14.36805 -10.35339 -10.34971 -10.32200
 Alpha  occ. eigenvalues --  -10.31434 -10.30245 -10.29262 -10.28416 -10.28240
 Alpha  occ. eigenvalues --  -10.27904 -10.27738 -10.27446 -10.26938 -10.26892
 Alpha  occ. eigenvalues --  -10.26872 -10.26646 -10.26233 -10.25544 -10.24878
 Alpha  occ. eigenvalues --  -10.24850 -10.24801 -10.24639 -10.24446 -10.24383
 Alpha  occ. eigenvalues --  -10.24126 -10.24047 -10.23746 -10.23694 -10.23686
 Alpha  occ. eigenvalues --  -10.23367 -10.23117 -10.23004 -10.22823 -10.22805
 Alpha  occ. eigenvalues --  -10.22712 -10.22692 -10.22494 -10.22444 -10.22270
 Alpha  occ. eigenvalues --  -10.22252 -10.22112 -10.22048 -10.21818 -10.21756
 Alpha  occ. eigenvalues --  -10.21696 -10.21358 -10.21191 -10.21179 -10.20976
 Alpha  occ. eigenvalues --  -10.20908 -10.20712 -10.20133 -10.19164 -10.18872
 Alpha  occ. eigenvalues --  -10.18105  -3.09939  -1.84867  -1.84419  -1.84357
 Alpha  occ. eigenvalues --   -1.13903  -1.12958  -1.06387  -1.06135  -1.05707
 Alpha  occ. eigenvalues --   -1.04894  -1.03371  -1.00674  -0.99982  -0.99161
 Alpha  occ. eigenvalues --   -0.96484  -0.88589  -0.87200  -0.86894  -0.86079
 Alpha  occ. eigenvalues --   -0.86026  -0.85006  -0.84590  -0.84376  -0.83969
 Alpha  occ. eigenvalues --   -0.83652  -0.83075  -0.81977  -0.80422  -0.80082
 Alpha  occ. eigenvalues --   -0.79482  -0.78542  -0.78241  -0.77406  -0.77083
 Alpha  occ. eigenvalues --   -0.75946  -0.75712  -0.74370  -0.72999  -0.72602
 Alpha  occ. eigenvalues --   -0.71750  -0.70675  -0.70033  -0.69955  -0.69912
 Alpha  occ. eigenvalues --   -0.69849  -0.69765  -0.68087  -0.67243  -0.66562
 Alpha  occ. eigenvalues --   -0.65516  -0.65391  -0.64355  -0.62595  -0.62485
 Alpha  occ. eigenvalues --   -0.61917  -0.61301  -0.60763  -0.58913  -0.58863
 Alpha  occ. eigenvalues --   -0.58421  -0.58246  -0.57980  -0.57592  -0.57162
 Alpha  occ. eigenvalues --   -0.56217  -0.55892  -0.55471  -0.54963  -0.54633
 Alpha  occ. eigenvalues --   -0.54068  -0.53652  -0.53346  -0.52930  -0.52379
 Alpha  occ. eigenvalues --   -0.52217  -0.51523  -0.51201  -0.51109  -0.50790
 Alpha  occ. eigenvalues --   -0.50757  -0.50510  -0.49892  -0.49684  -0.49279
 Alpha  occ. eigenvalues --   -0.48835  -0.48370  -0.48279  -0.48134  -0.48041
 Alpha  occ. eigenvalues --   -0.47656  -0.47562  -0.47384  -0.47357  -0.47085
 Alpha  occ. eigenvalues --   -0.46837  -0.46626  -0.46335  -0.46316  -0.46206
 Alpha  occ. eigenvalues --   -0.46036  -0.45798  -0.45300  -0.45130  -0.45074
 Alpha  occ. eigenvalues --   -0.44859  -0.44663  -0.44121  -0.44069  -0.43778
 Alpha  occ. eigenvalues --   -0.43604  -0.43175  -0.43015  -0.42821  -0.42712
 Alpha  occ. eigenvalues --   -0.42692  -0.42390  -0.42020  -0.41911  -0.41649
 Alpha  occ. eigenvalues --   -0.41412  -0.41347  -0.41210  -0.41122  -0.40989
 Alpha  occ. eigenvalues --   -0.40715  -0.40511  -0.40319  -0.40118  -0.39906
 Alpha  occ. eigenvalues --   -0.39719  -0.39627  -0.39333  -0.39142  -0.39107
 Alpha  occ. eigenvalues --   -0.38775  -0.38501  -0.38262  -0.38207  -0.37816
 Alpha  occ. eigenvalues --   -0.37722  -0.37502  -0.37346  -0.37186  -0.37146
 Alpha  occ. eigenvalues --   -0.37063  -0.36786  -0.36580  -0.36492  -0.35906
 Alpha  occ. eigenvalues --   -0.35523  -0.35405  -0.35124  -0.35066  -0.34874
 Alpha  occ. eigenvalues --   -0.34603  -0.34327  -0.34074  -0.33797  -0.33050
 Alpha  occ. eigenvalues --   -0.32918  -0.32810  -0.32800  -0.32089  -0.31297
 Alpha  occ. eigenvalues --   -0.31092  -0.30795  -0.30615  -0.30186  -0.29863
 Alpha  occ. eigenvalues --   -0.29565  -0.28599  -0.28154  -0.27898  -0.27795
 Alpha  occ. eigenvalues --   -0.27554  -0.27124  -0.23326  -0.22053
 Alpha virt. eigenvalues --   -0.09094  -0.07187  -0.02415  -0.01813   0.00166
 Alpha virt. eigenvalues --    0.02481   0.03193   0.03579   0.03724   0.03924
 Alpha virt. eigenvalues --    0.04522   0.05195   0.07096   0.08422   0.08721

 Mulliken charges:
               1
     1  Mg   0.820170
     2  C    0.080652
     3  C   -0.215783
     4  C   -0.157861
     5  C   -0.160860
     6  N   -0.662803
     7  C    0.309595
     8  C   -0.141106
     9  C   -0.142346
    10  C    0.379590
    11  C   -0.343567
    12  C   -0.153237
    13  C   -0.256079
    14  C    0.592029
    15  O   -0.475813
    16  O   -0.454146
    17  N   -0.697830
    18  C    0.295750
    19  C    0.037405
    20  C   -0.002378
    21  C    0.277362
    22  C   -0.366467
    23  C    0.213232
    24  O   -0.406416
    25  N   -0.655368
    26  C    0.288954
    27  C    0.006299
    28  C    0.042126
    29  C    0.301960
    30  C    0.232015
    31  C   -0.278861
    32  C   -0.264180
    33  N   -0.719196
    34  C    0.233243
    35  C    0.061873
    36  C    0.025713
    37  C    0.309471
    38  C   -0.381686
    39  C    0.328630
    40  O   -0.470595
    41  C   -0.327764
    42  C    0.621229
    43  O   -0.488343
    44  O   -0.423789
    45  C   -0.080812
    46  C   -0.020754
    47  C   -0.131026
    48  C    0.156762
    49  C   -0.326480
    50  C   -0.227847
    51  C   -0.162960
    52  C   -0.151385
    53  C   -0.076985
    54  C   -0.294144
    55  C   -0.167416
    56  C   -0.213585
    57  C   -0.154589
    58  C   -0.048160
    59  C   -0.289044
    60  C   -0.153930
    61  C   -0.183473
    62  C   -0.148658
    63  C   -0.044887
    64  C   -0.298589
    65  C   -0.298023
    66  H    0.083974
    67  H    0.132691
    68  H    0.076774
    69  H    0.136136
    70  H    0.114820
    71  H    0.098019
    72  H    0.125214
    73  H    0.115223
    74  H    0.111112
    75  H    0.121114
    76  H    0.136458
    77  H    0.125286
    78  H    0.137038
    79  H    0.157079
    80  H    0.114411
    81  H    0.074653
    82  H    0.112377
    83  H    0.105305
    84  H    0.054613
    85  H    0.115988
    86  H    0.115260
    87  H    0.147295
    88  H    0.164174
    89  H    0.132294
    90  H    0.156942
    91  H    0.101353
    92  H    0.119135
    93  H    0.088818
    94  H    0.135500
    95  H    0.101185
    96  H    0.106566
    97  H    0.088526
    98  H    0.083483
    99  H    0.100465
   100  H    0.081511
   101  H    0.096274
   102  H    0.078004
   103  H    0.084657
   104  H    0.047363
   105  H    0.109019
   106  H    0.088344
   107  H    0.092224
   108  H    0.103606
   109  H    0.098738
   110  H    0.091015
   111  H    0.097682
   112  H    0.080140
   113  H    0.075926
   114  H    0.076394
   115  H    0.095525
   116  H    0.099154
   117  H    0.058179
   118  H    0.091959
   119  H    0.078951
   120  H    0.095605
   121  H    0.092457
   122  H    0.067412
   123  H    0.087672
   124  H    0.050961
   125  H    0.102977
   126  H    0.110309
   127  H    0.074549
   128  H    0.103662
   129  H    0.103970
   130  H    0.124380
   131  H    0.116887
   132  H    0.112322
   133  O   -0.426139
   134  H    0.074188
 Sum of Mulliken charges =   0.00000

 Dipole moment (field-independent basis, Debye):
    X=              3.0068    Y=             -3.8874    Z=             -0.9627  Tot=              5.0080
 Quadrupole moment (field-independent basis, Debye-Ang):
   XX=           -374.4129   YY=           -445.5472   ZZ=           -393.9830
   XY=              4.4088   XZ=             16.8917   YZ=            -33.6526

 Normal termination of Gaussian 09 at Sat Oct  5 11:55:09 2019.
