 Gaussian 09, Revision D.01,
 Gaussian 09:  ES64L-G09RevD.01 24-Apr-2013

 ----------------------------------------------------------------------
 # td=(NStates=1) iop(3/107=0140000000,3/108=0140000000) iop(3/107=0140
 000000,3/108=0140000000) CAM-B3LYP/6-31G(d,p)
 ----------------------------------------------------------------------

 --
 TD
 --
 Symbolic Z-matrix:
 Charge =  0 Multiplicity = 1

                         Standard orientation:
 ---------------------------------------------------------------------
 Center     Atomic      Atomic             Coordinates (Angstroms)
 Number     Number       Type             X           Y           Z
 ---------------------------------------------------------------------
      1         12           0       -5.654694    1.220202    0.248861
      2          6           0       -5.043939   -2.127006   -0.402167
      3          6           0       -3.482696    1.100916    2.860983
      4          6           0       -6.116492    4.549251    0.720634
      5          6           0       -7.875948    1.260877   -2.457715
      6          7           0       -4.292180   -0.319764    1.099304
      7          6           0       -4.361766   -1.611091    0.719707
      8          6           0       -3.283963   -2.378002    1.502410
      9          6           0       -3.033372   -1.444991    2.707997
     10          6           0       -3.594200   -0.094462    2.237662
     11          6           0       -3.697551   -1.924454    3.985003
     12          6           0       -2.016410   -2.641060    0.678259
     13          6           0       -1.091192   -3.706387    1.410305
     14          6           0        0.238517   -3.804865    0.682745
     15          8           0        0.474532   -3.285795   -0.356107
     16          8           0        0.975019   -4.766424    1.302153
     17          7           0       -4.887756    2.543565    1.493762
     18          6           0       -3.993340    2.426127    2.554974
     19          6           0       -3.683239    3.554285    3.228894
     20          6           0       -4.537595    4.605435    2.609510
     21          6           0       -5.242679    3.893659    1.497270
     22          6           0       -2.660042    3.803041    4.287390
     23          6           0       -4.597127    6.048490    2.977375
     24          8           0       -3.949656    6.578796    3.917911
     25          7           0       -6.807922    2.664635   -0.701531
     26          6           0       -6.940944    3.986928   -0.363188
     27          6           0       -7.964939    4.614146   -1.183250
     28          6           0       -8.248013    3.654711   -2.105477
     29          6           0       -7.630916    2.424471   -1.796820
     30          6           0       -8.305085    6.125942   -1.195885
     31          6           0       -9.363267    3.882325   -3.172075
     32          6           0       -8.702238    4.006550   -4.520111
     33          7           0       -6.306392   -0.074765   -1.161595
     34          6           0       -7.369210    0.000839   -2.057728
     35          6           0       -7.628136   -1.313145   -2.711563
     36          6           0       -6.673812   -2.125605   -2.187112
     37          6           0       -5.930142   -1.334819   -1.118829
     38          6           0       -8.462473   -1.461454   -3.822018
     39          6           0       -6.217967   -3.561931   -2.045530
     40          8           0       -6.455324   -4.510384   -2.688486
     41          6           0       -5.021720   -3.563289   -1.009318
     42          6           0       -5.309556   -4.641865   -0.060360
     43          8           0       -5.830964   -4.541307    1.069294
     44          8           0       -5.023575   -5.827898   -0.527713
     45          6           0       -5.362125   -6.951766    0.303108
     46          6           0        2.288105   -5.188177    0.600784
     47          6           0        3.305064   -4.137327    1.002683
     48          6           0        3.942989   -3.309562    0.220439
     49          6           0        3.732151   -3.048333   -1.358813
     50          6           0        5.066382   -2.418496    0.758533
     51          6           0        6.491805   -2.709755    0.158131
     52          6           0        7.633334   -1.914331    0.790849
     53          6           0        9.084793   -2.081165   -0.022671
     54          6           0        9.665245   -3.509043    0.137343
     55          6           0       10.053169   -0.885518    0.571295
     56          6           0       11.326691   -0.757675   -0.231754
     57          6           0       12.259202    0.355116    0.291361
     58          6           0       13.457464    0.580776   -0.591737
     59          6           0       14.358712   -0.684852   -0.453128
     60          6           0       14.167627    1.843125   -0.105295
     61          6           0       15.360202    2.211819   -1.026475
     62          6           0       16.045656    3.554368   -0.690081
     63          6           0       17.402006    3.799110   -1.396177
     64          6           0       17.247075    3.743182   -2.868191
     65          6           0       17.857076    5.284835   -1.041946
     66          1           0       -2.777890    1.199453    3.702396
     67          1           0       -6.425742    5.801481    0.846755
     68          1           0       -8.626823    1.278983   -3.313195
     69          1           0       -3.744784   -3.369690    1.905744
     70          1           0       -1.957571   -1.208071    2.836117
     71          1           0       -3.242440   -2.747945    4.243440
     72          1           0       -3.432329   -1.126142    4.760070
     73          1           0       -4.670453   -2.168389    3.722870
     74          1           0       -2.098382   -3.297221   -0.246847
     75          1           0       -1.625171   -1.596270    0.452458
     76          1           0       -0.841472   -3.446066    2.552782
     77          1           0       -1.471997   -4.811536    1.345616
     78          1           0       -1.615043    3.394932    3.810469
     79          1           0       -2.721702    4.799360    4.587748
     80          1           0       -2.914688    3.216309    5.332155
     81          1           0       -5.571077    6.507216    2.529266
     82          1           0       -9.916058    3.063576   -3.152661
     83          1           0      -10.099979    4.666063   -2.977167
     84          1           0       -9.467591    4.298469   -5.220602
     85          1           0       -8.018844    4.966745   -4.466954
     86          1           0       -8.148846    3.206837   -4.922425
     87          1           0       -8.202421   -0.654746   -4.582065
     88          1           0       -8.455430   -2.703952   -4.244219
     89          1           0       -9.556599   -1.318111   -3.685066
     90          1           0       -4.063571   -3.826115   -1.639678
     91          1           0        2.275821   -6.229666    0.836990
     92          1           0        2.113202   -5.006002   -0.440969
     93          1           0        3.635357   -4.332886    1.937289
     94          1           0        2.783277   -3.180138   -1.589286
     95          1           0        4.128937   -1.991551   -1.445558
     96          1           0        4.373495   -3.724982   -1.772446
     97          1           0        4.777273   -1.434355    0.557576
     98          1           0        5.293664   -2.576478    1.944048
     99          1           0        6.945474   -3.740329    0.128480
    100          1           0        6.625424   -2.267284   -0.734083
    101          1           0        7.327308   -0.870698    0.616228
    102          1           0        7.828347   -1.953520    1.925011
    103          1           0        8.935967   -1.798454   -1.042272
    104          1           0        8.965802   -4.010702   -0.363583
    105          1           0       10.582322   -3.680341   -0.332919
    106          1           0        9.676337   -3.548696    1.277516
    107          1           0        9.643295    0.132624    0.536995
    108          1           0       10.173394   -1.117759    1.646307
    109          1           0       11.718356   -1.708007   -0.111606
    110          1           0       11.067312   -0.484220   -1.167224
    111          1           0       11.747877    1.265014    0.191532
    112          1           0       12.557595    0.087722    1.324773
    113          1           0       13.162574    0.730169   -1.788685
    114          1           0       14.831374   -0.825247    0.476862
    115          1           0       13.838966   -1.503235   -0.741775
    116          1           0       15.319233   -0.601216   -1.123500
    117          1           0       13.659909    2.829256   -0.201543
    118          1           0       14.535766    1.669805    0.970523
    119          1           0       15.943682    1.454009   -0.981372
    120          1           0       15.135395    2.247546   -2.016850
    121          1           0       15.314104    4.260963   -1.007889
    122          1           0       15.945713    3.619946    0.454834
    123          1           0       18.087033    3.024153   -0.770929
    124          1           0       16.437829    4.417995   -3.088627
    125          1           0       18.165077    4.066139   -3.608347
    126          1           0       16.783969    2.563738   -3.153820
    127          1           0       18.166945    5.272554    0.192581
    128          1           0       18.826376    5.532898   -1.634006
    129          1           0       17.148026    6.042864   -1.234984
    130          1           0       -5.328113   -7.849539   -0.223242
    131          1           0       -6.427296   -6.984330    0.440931
    132          1           0       -4.736169   -7.045162    1.297001
    133          8           0       -7.780475    6.913660   -0.410619
    134          1           0       -8.926708    6.419555   -1.905727
 ---------------------------------------------------------------------

 SCF Done:  E(RCAM-B3LYP) =  -3043.43295709     A.U. after   16 cycles

 Excitation energies and oscillator strengths:

 Excited State   1:      Singlet-A      2.0160 eV  615.00 nm  f=0.2041  <S**2>=0.000
     243 -> 245        0.12621
     243 -> 246       -0.24491
     244 -> 245        0.63780
 This state for optimization and/or second-order correction.
 Total Energy, E(TD-HF/TD-KS) =  -3043.35887008
 Copying the excited state density for this state as the 1-particle RhoCI density.

 The electronic state is 1-A.
 Alpha  occ. eigenvalues --  -46.81260 -19.23167 -19.20614 -19.18340 -19.18183
 Alpha  occ. eigenvalues --  -19.17127 -19.16837 -19.15756 -14.38045 -14.37162
 Alpha  occ. eigenvalues --  -14.36664 -14.36638 -10.34645 -10.33807 -10.32261
 Alpha  occ. eigenvalues --  -10.31053 -10.30840 -10.27471 -10.27418 -10.27252
 Alpha  occ. eigenvalues --  -10.26692 -10.26355 -10.26326 -10.26250 -10.26186
 Alpha  occ. eigenvalues --  -10.26007 -10.25988 -10.25374 -10.25170 -10.24937
 Alpha  occ. eigenvalues --  -10.24921 -10.24842 -10.24610 -10.24144 -10.24031
 Alpha  occ. eigenvalues --  -10.23996 -10.23909 -10.23555 -10.23483 -10.23416
 Alpha  occ. eigenvalues --  -10.23295 -10.23202 -10.23111 -10.23108 -10.23081
 Alpha  occ. eigenvalues --  -10.23032 -10.22715 -10.22625 -10.22566 -10.22354
 Alpha  occ. eigenvalues --  -10.22261 -10.22046 -10.21812 -10.21730 -10.21004
 Alpha  occ. eigenvalues --  -10.20929 -10.20433 -10.20383 -10.20368 -10.20359
 Alpha  occ. eigenvalues --  -10.20183 -10.19905 -10.19682 -10.19486 -10.18570
 Alpha  occ. eigenvalues --  -10.17389  -3.09853  -1.84787  -1.84340  -1.84252
 Alpha  occ. eigenvalues --   -1.14834  -1.11947  -1.10609  -1.07129  -1.04131
 Alpha  occ. eigenvalues --   -1.04023  -1.02557  -1.00726  -0.99635  -0.99124
 Alpha  occ. eigenvalues --   -0.98001  -0.87870  -0.85748  -0.85639  -0.85509
 Alpha  occ. eigenvalues --   -0.85057  -0.84582  -0.84041  -0.83921  -0.83142
 Alpha  occ. eigenvalues --   -0.82907  -0.82228  -0.81185  -0.80583  -0.79817
 Alpha  occ. eigenvalues --   -0.78912  -0.78489  -0.78068  -0.76802  -0.76295
 Alpha  occ. eigenvalues --   -0.75794  -0.74528  -0.73855  -0.73554  -0.72184
 Alpha  occ. eigenvalues --   -0.71861  -0.70977  -0.69838  -0.69732  -0.69209
 Alpha  occ. eigenvalues --   -0.69014  -0.68736  -0.67714  -0.66958  -0.66521
 Alpha  occ. eigenvalues --   -0.65523  -0.64866  -0.64340  -0.62562  -0.61738
 Alpha  occ. eigenvalues --   -0.61148  -0.60426  -0.60185  -0.59250  -0.58897
 Alpha  occ. eigenvalues --   -0.58487  -0.58244  -0.57180  -0.57086  -0.56265
 Alpha  occ. eigenvalues --   -0.56207  -0.55977  -0.55016  -0.54933  -0.54269
 Alpha  occ. eigenvalues --   -0.53977  -0.52963  -0.52624  -0.52234  -0.52128
 Alpha  occ. eigenvalues --   -0.51937  -0.51646  -0.51320  -0.51142  -0.50809
 Alpha  occ. eigenvalues --   -0.50377  -0.50025  -0.49844  -0.49241  -0.49136
 Alpha  occ. eigenvalues --   -0.48753  -0.48542  -0.48226  -0.48042  -0.47938
 Alpha  occ. eigenvalues --   -0.47853  -0.47634  -0.47212  -0.47076  -0.46851
 Alpha  occ. eigenvalues --   -0.46528  -0.46204  -0.45952  -0.45929  -0.45795
 Alpha  occ. eigenvalues --   -0.45766  -0.45366  -0.45170  -0.44972  -0.44794
 Alpha  occ. eigenvalues --   -0.44712  -0.44565  -0.44327  -0.43999  -0.43773
 Alpha  occ. eigenvalues --   -0.43376  -0.43307  -0.42965  -0.42766  -0.42678
 Alpha  occ. eigenvalues --   -0.42509  -0.42242  -0.42205  -0.42056  -0.41735
 Alpha  occ. eigenvalues --   -0.41610  -0.41391  -0.41257  -0.41182  -0.41080
 Alpha  occ. eigenvalues --   -0.40830  -0.40679  -0.40231  -0.40030  -0.39855
 Alpha  occ. eigenvalues --   -0.39731  -0.39457  -0.39294  -0.39244  -0.38870
 Alpha  occ. eigenvalues --   -0.38792  -0.38517  -0.38274  -0.38120  -0.37646
 Alpha  occ. eigenvalues --   -0.37602  -0.37343  -0.37227  -0.37090  -0.36790
 Alpha  occ. eigenvalues --   -0.36511  -0.36107  -0.36021  -0.35723  -0.35217
 Alpha  occ. eigenvalues --   -0.35086  -0.35055  -0.34998  -0.34717  -0.34456
 Alpha  occ. eigenvalues --   -0.34336  -0.33976  -0.33703  -0.33426  -0.33134
 Alpha  occ. eigenvalues --   -0.33072  -0.32712  -0.32183  -0.31616  -0.31534
 Alpha  occ. eigenvalues --   -0.30980  -0.30318  -0.29953  -0.29776  -0.29624
 Alpha  occ. eigenvalues --   -0.29130  -0.29024  -0.28145  -0.28021  -0.27950
 Alpha  occ. eigenvalues --   -0.27452  -0.26848  -0.22944  -0.21378
 Alpha virt. eigenvalues --   -0.08587  -0.06284  -0.01464  -0.01319   0.00538
 Alpha virt. eigenvalues --    0.03022   0.03483   0.03987   0.04698   0.05061
 Alpha virt. eigenvalues --    0.05384   0.05677   0.07733   0.08666   0.09175

 Mulliken charges:
               1
     1  Mg   0.827276
     2  C    0.095541
     3  C   -0.208851
     4  C   -0.204571
     5  C   -0.180355
     6  N   -0.625252
     7  C    0.303626
     8  C   -0.171124
     9  C   -0.164427
    10  C    0.358914
    11  C   -0.286281
    12  C   -0.143245
    13  C   -0.275784
    14  C    0.606836
    15  O   -0.451639
    16  O   -0.499408
    17  N   -0.729680
    18  C    0.314542
    19  C    0.066551
    20  C   -0.054060
    21  C    0.359973
    22  C   -0.369283
    23  C    0.241144
    24  O   -0.431252
    25  N   -0.707459
    26  C    0.266040
    27  C   -0.064872
    28  C   -0.011825
    29  C    0.356630
    30  C    0.296614
    31  C   -0.235385
    32  C   -0.313722
    33  N   -0.719276
    34  C    0.240441
    35  C    0.084346
    36  C   -0.017347
    37  C    0.318797
    38  C   -0.415774
    39  C    0.383517
    40  O   -0.407943
    41  C   -0.321020
    42  C    0.625839
    43  O   -0.514662
    44  O   -0.420503
    45  C   -0.082751
    46  C   -0.024985
    47  C   -0.107255
    48  C    0.110211
    49  C   -0.353921
    50  C   -0.227694
    51  C   -0.173046
    52  C   -0.197520
    53  C   -0.099999
    54  C   -0.295437
    55  C   -0.185422
    56  C   -0.173605
    57  C   -0.158028
    58  C   -0.051081
    59  C   -0.316921
    60  C   -0.176617
    61  C   -0.179943
    62  C   -0.184548
    63  C   -0.036171
    64  C   -0.280484
    65  C   -0.293018
    66  H    0.072659
    67  H    0.145452
    68  H    0.092736
    69  H    0.108761
    70  H    0.098766
    71  H    0.123210
    72  H    0.101618
    73  H    0.131169
    74  H    0.109635
    75  H    0.117628
    76  H    0.114509
    77  H    0.134581
    78  H    0.110347
    79  H    0.168351
    80  H    0.097771
    81  H    0.079004
    82  H    0.118765
    83  H    0.108345
    84  H    0.107030
    85  H    0.094577
    86  H    0.122412
    87  H    0.132205
    88  H    0.113079
    89  H    0.134774
    90  H    0.161466
    91  H    0.130652
    92  H    0.127200
    93  H    0.081921
    94  H    0.151405
    95  H    0.100964
    96  H    0.137110
    97  H    0.116048
    98  H    0.079400
    99  H    0.095076
   100  H    0.110698
   101  H    0.089002
   102  H    0.074655
   103  H    0.084059
   104  H    0.115929
   105  H    0.110850
   106  H    0.102309
   107  H    0.081055
   108  H    0.078013
   109  H    0.098796
   110  H    0.096772
   111  H    0.091492
   112  H    0.087239
   113  H    0.053725
   114  H    0.109059
   115  H    0.114964
   116  H    0.078292
   117  H    0.084988
   118  H    0.079466
   119  H    0.097540
   120  H    0.094896
   121  H    0.087812
   122  H    0.081052
   123  H    0.077682
   124  H    0.115811
   125  H    0.090098
   126  H    0.064650
   127  H    0.065529
   128  H    0.087859
   129  H    0.114923
   130  H    0.127330
   131  H    0.135348
   132  H    0.118717
   133  O   -0.418324
   134  H    0.085701
 Sum of Mulliken charges =   0.00000

 Dipole moment (field-independent basis, Debye):
    X=              0.6633    Y=             -5.5400    Z=             -3.0698  Tot=              6.3684
 Quadrupole moment (field-independent basis, Debye-Ang):
   XX=           -367.0858   YY=           -426.0441   ZZ=           -397.3046
   XY=              0.3346   XZ=             26.4774   YZ=            -34.5896

 Normal termination of Gaussian 09 at Tue Oct  8 17:41:08 2019.
