 Gaussian 09, Revision D.01,
 Gaussian 09:  ES64L-G09RevD.01 24-Apr-2013

 ----------------------------------------------------------------------
 # td=(NStates=1) iop(3/107=0140000000,3/108=0140000000) iop(3/107=0140
 000000,3/108=0140000000) CAM-B3LYP/6-31G(d,p)
 ----------------------------------------------------------------------

 --
 TD
 --
 Symbolic Z-matrix:
 Charge =  0 Multiplicity = 1

                         Standard orientation:
 ---------------------------------------------------------------------
 Center     Atomic      Atomic             Coordinates (Angstroms)
 Number     Number       Type             X           Y           Z
 ---------------------------------------------------------------------
      1         12           0       -5.722794    1.240009    0.240589
      2          6           0       -5.051397   -2.152647   -0.306489
      3          6           0       -3.465316    1.274900    2.723867
      4          6           0       -6.397293    4.546225    0.734680
      5          6           0       -7.967737    1.136979   -2.420814
      6          7           0       -4.431920   -0.315185    1.095413
      7          6           0       -4.294880   -1.526594    0.701624
      8          6           0       -3.239166   -2.339117    1.467999
      9          6           0       -2.908078   -1.348829    2.669271
     10          6           0       -3.667821   -0.022920    2.156779
     11          6           0       -3.440902   -1.733202    3.958785
     12          6           0       -1.972544   -2.628157    0.637074
     13          6           0       -0.963716   -3.421540    1.420814
     14          6           0        0.228297   -3.848986    0.572769
     15          8           0        0.474107   -3.444958   -0.477446
     16          8           0        1.120783   -4.555421    1.381982
     17          7           0       -5.014754    2.629655    1.460430
     18          6           0       -4.058470    2.437862    2.425731
     19          6           0       -3.774836    3.695564    3.101546
     20          6           0       -4.589470    4.683766    2.582618
     21          6           0       -5.433159    3.959254    1.542001
     22          6           0       -2.639610    3.839309    4.131039
     23          6           0       -4.823518    6.022334    2.911569
     24          8           0       -4.123619    6.569494    3.772778
     25          7           0       -6.988836    2.579894   -0.630736
     26          6           0       -7.059972    3.881855   -0.339272
     27          6           0       -8.104112    4.554106   -1.102553
     28          6           0       -8.611841    3.522816   -2.010823
     29          6           0       -7.874084    2.378996   -1.746684
     30          6           0       -8.432400    5.928084   -1.217997
     31          6           0       -9.610907    3.723263   -3.189139
     32          6           0       -8.841948    4.024212   -4.495641
     33          7           0       -6.365914   -0.132457   -1.137363
     34          6           0       -7.278239   -0.141630   -2.064113
     35          6           0       -7.514078   -1.440855   -2.783857
     36          6           0       -6.509982   -2.175780   -2.155165
     37          6           0       -5.991961   -1.468999   -1.071182
     38          6           0       -8.468964   -1.752848   -3.863788
     39          6           0       -6.152214   -3.537243   -1.955739
     40          8           0       -6.465263   -4.663327   -2.486745
     41          6           0       -5.052846   -3.608389   -0.859338
     42          6           0       -5.350429   -4.661471    0.118226
     43          8           0       -5.669007   -4.570798    1.363293
     44          8           0       -4.947214   -5.835603   -0.353400
     45          6           0       -5.185735   -7.005191    0.394709
     46          6           0        2.390716   -4.996614    0.739900
     47          6           0        3.475430   -4.078215    1.131563
     48          6           0        4.137266   -3.223963    0.213050
     49          6           0        3.783656   -3.130947   -1.206862
     50          6           0        5.252995   -2.327819    0.612524
     51          6           0        6.603617   -2.827893    0.034157
     52          6           0        7.767540   -1.836365    0.545440
     53          6           0        9.154723   -2.091084   -0.202140
     54          6           0        9.711279   -3.484083    0.108042
     55          6           0       10.057061   -1.003024    0.333115
     56          6           0       11.518682   -0.932946   -0.353664
     57          6           0       12.314460    0.316416    0.092418
     58          6           0       13.675151    0.491077   -0.580044
     59          6           0       14.532112   -0.695843   -0.343153
     60          6           0       14.255049    1.777354   -0.156795
     61          6           0       15.492079    2.153990   -0.929078
     62          6           0       15.987573    3.606989   -0.637583
     63          6           0       17.223266    4.090968   -1.317609
     64          6           0       17.142421    4.207280   -2.937370
     65          6           0       17.697275    5.390447   -0.758667
     66          1           0       -2.760755    1.399873    3.449257
     67          1           0       -6.839571    5.637797    0.925273
     68          1           0       -8.557036    1.041604   -3.395518
     69          1           0       -3.753935   -3.227089    1.895135
     70          1           0       -1.723339   -0.984622    2.760036
     71          1           0       -3.066527   -2.488236    4.253329
     72          1           0       -3.044971   -1.004383    4.799846
     73          1           0       -4.438979   -1.885320    3.862346
     74          1           0       -2.302229   -3.247933   -0.321084
     75          1           0       -1.467137   -1.614467    0.297307
     76          1           0       -0.432594   -2.845605    2.140043
     77          1           0       -1.385704   -4.325447    1.834570
     78          1           0       -1.662693    3.263743    3.658843
     79          1           0       -2.614825    4.860268    4.342073
     80          1           0       -2.782626    3.244486    5.170028
     81          1           0       -5.476824    6.686163    2.242278
     82          1           0      -10.215237    2.758951   -3.181297
     83          1           0      -10.254676    4.540565   -3.206796
     84          1           0       -9.576619    4.324636   -5.289707
     85          1           0       -7.895216    4.825699   -4.442176
     86          1           0       -8.312464    3.065037   -4.849731
     87          1           0       -7.967704   -1.299330   -4.857919
     88          1           0       -8.710876   -2.873942   -3.980736
     89          1           0       -9.597822   -1.355247   -3.569327
     90          1           0       -4.128579   -3.858980   -1.529574
     91          1           0        2.570806   -5.986871    1.183643
     92          1           0        2.168093   -4.947921   -0.360156
     93          1           0        3.707769   -4.260624    2.188969
     94          1           0        2.940439   -3.513447   -1.495253
     95          1           0        3.952495   -2.040786   -1.389371
     96          1           0        4.661647   -3.515006   -1.731230
     97          1           0        4.960534   -1.241293    0.611379
     98          1           0        5.403551   -2.741876    1.631212
     99          1           0        6.679972   -3.896285    0.519706
    100          1           0        6.621337   -2.693623   -0.937420
    101          1           0        7.468926   -0.773731    0.333731
    102          1           0        8.040979   -1.968257    1.590924
    103          1           0        8.993387   -1.914410   -1.323606
    104          1           0        8.887739   -4.434410   -0.138958
    105          1           0       10.528896   -3.736018   -0.458624
    106          1           0        9.888746   -3.599954    1.239574
    107          1           0        9.599218    0.001863    0.301237
    108          1           0       10.177365   -1.235488    1.315665
    109          1           0       12.033221   -1.850459   -0.084059
    110          1           0       11.321551   -1.053922   -1.434893
    111          1           0       11.616024    1.145390    0.102415
    112          1           0       12.390763    0.130775    1.156470
    113          1           0       13.490635    0.696266   -1.734871
    114          1           0       14.803910   -0.872962    0.682099
    115          1           0       14.153100   -1.649690   -0.604268
    116          1           0       15.552085   -0.656349   -0.805527
    117          1           0       13.564910    2.605056   -0.344811
    118          1           0       14.610448    1.957529    0.868079
    119          1           0       16.357245    1.544509   -0.632909
    120          1           0       15.530038    1.999921   -2.005814
    121          1           0       15.194176    4.356484   -0.879080
    122          1           0       16.261093    3.740583    0.546007
    123          1           0       17.992790    3.419115   -1.046282
    124          1           0       16.344420    5.072641   -3.212409
    125          1           0       18.181372    4.270729   -3.274157
    126          1           0       16.778154    3.240721   -3.166692
    127          1           0       18.096163    5.432323    0.319494
    128          1           0       18.656324    5.687337   -1.255576
    129          1           0       16.990722    6.231616   -0.852650
    130          1           0       -4.873270   -8.024039   -0.085464
    131          1           0       -6.284962   -7.040886    0.473758
    132          1           0       -4.691103   -6.873550    1.129029
    133          8           0       -7.959953    6.855327   -0.544567
    134          1           0       -9.546070    6.094500   -1.928741
 ---------------------------------------------------------------------

 SCF Done:  E(RCAM-B3LYP) =  -3043.45282393     A.U. after   16 cycles

 Excitation energies and oscillator strengths:

 Excited State   1:      Singlet-A      2.0420 eV  607.16 nm  f=0.1409  <S**2>=0.000
     243 -> 246        0.31243
     244 -> 245        0.61017
     244 -> 246        0.11179
 This state for optimization and/or second-order correction.
 Total Energy, E(TD-HF/TD-KS) =  -3043.37778042
 Copying the excited state density for this state as the 1-particle RhoCI density.

 The electronic state is 1-A.
 Alpha  occ. eigenvalues --  -46.82130 -19.22363 -19.20077 -19.17623 -19.17009
 Alpha  occ. eigenvalues --  -19.16750 -19.16553 -19.16414 -14.39741 -14.37435
 Alpha  occ. eigenvalues --  -14.37307 -14.37155 -10.35704 -10.33984 -10.31370
 Alpha  occ. eigenvalues --  -10.31197 -10.30085 -10.28698 -10.27407 -10.27335
 Alpha  occ. eigenvalues --  -10.27262 -10.26769 -10.26710 -10.26632 -10.26617
 Alpha  occ. eigenvalues --  -10.26267 -10.26222 -10.26075 -10.26070 -10.26036
 Alpha  occ. eigenvalues --  -10.25987 -10.25631 -10.25605 -10.25448 -10.24766
 Alpha  occ. eigenvalues --  -10.24377 -10.24207 -10.24179 -10.24173 -10.24131
 Alpha  occ. eigenvalues --  -10.23968 -10.23702 -10.23420 -10.23073 -10.22877
 Alpha  occ. eigenvalues --  -10.22773 -10.22583 -10.22302 -10.22272 -10.22104
 Alpha  occ. eigenvalues --  -10.21889 -10.21762 -10.21565 -10.21403 -10.21350
 Alpha  occ. eigenvalues --  -10.21226 -10.20817 -10.20646 -10.20329 -10.20237
 Alpha  occ. eigenvalues --  -10.20101 -10.20089 -10.20000 -10.19818 -10.19765
 Alpha  occ. eigenvalues --  -10.19668  -3.10750  -1.85680  -1.85214  -1.85175
 Alpha  occ. eigenvalues --   -1.13990  -1.13578  -1.05765  -1.05307  -1.04564
 Alpha  occ. eigenvalues --   -1.03603  -1.02864  -1.01645  -1.01456  -0.99637
 Alpha  occ. eigenvalues --   -0.98696  -0.89612  -0.86412  -0.86206  -0.86067
 Alpha  occ. eigenvalues --   -0.85807  -0.84673  -0.84289  -0.84015  -0.83450
 Alpha  occ. eigenvalues --   -0.83399  -0.82966  -0.82223  -0.81067  -0.79927
 Alpha  occ. eigenvalues --   -0.79178  -0.78484  -0.78139  -0.77845  -0.76843
 Alpha  occ. eigenvalues --   -0.75359  -0.75057  -0.74960  -0.74287  -0.72385
 Alpha  occ. eigenvalues --   -0.71419  -0.71182  -0.70303  -0.70133  -0.70090
 Alpha  occ. eigenvalues --   -0.69081  -0.68289  -0.67569  -0.66485  -0.66159
 Alpha  occ. eigenvalues --   -0.65666  -0.64651  -0.64452  -0.62887  -0.62075
 Alpha  occ. eigenvalues --   -0.61949  -0.60874  -0.60635  -0.59474  -0.59429
 Alpha  occ. eigenvalues --   -0.58499  -0.57621  -0.57560  -0.57156  -0.56826
 Alpha  occ. eigenvalues --   -0.56503  -0.55959  -0.55348  -0.55190  -0.54742
 Alpha  occ. eigenvalues --   -0.54164  -0.53661  -0.53153  -0.53059  -0.52681
 Alpha  occ. eigenvalues --   -0.52039  -0.51840  -0.51558  -0.50982  -0.50747
 Alpha  occ. eigenvalues --   -0.50579  -0.50248  -0.49763  -0.49728  -0.49379
 Alpha  occ. eigenvalues --   -0.49195  -0.49073  -0.48317  -0.47912  -0.47778
 Alpha  occ. eigenvalues --   -0.47615  -0.47394  -0.47203  -0.47089  -0.46791
 Alpha  occ. eigenvalues --   -0.46757  -0.46381  -0.46140  -0.45941  -0.45900
 Alpha  occ. eigenvalues --   -0.45649  -0.45412  -0.45236  -0.45029  -0.44762
 Alpha  occ. eigenvalues --   -0.44719  -0.44461  -0.44167  -0.43987  -0.43777
 Alpha  occ. eigenvalues --   -0.43717  -0.43580  -0.43340  -0.43102  -0.42753
 Alpha  occ. eigenvalues --   -0.42647  -0.42281  -0.42041  -0.41799  -0.41483
 Alpha  occ. eigenvalues --   -0.41444  -0.41257  -0.41226  -0.41161  -0.40992
 Alpha  occ. eigenvalues --   -0.40893  -0.40745  -0.40327  -0.40234  -0.40154
 Alpha  occ. eigenvalues --   -0.39987  -0.39937  -0.39466  -0.39304  -0.39084
 Alpha  occ. eigenvalues --   -0.38974  -0.38784  -0.38733  -0.38505  -0.38279
 Alpha  occ. eigenvalues --   -0.38159  -0.37548  -0.37296  -0.37058  -0.36824
 Alpha  occ. eigenvalues --   -0.36562  -0.36529  -0.36259  -0.36156  -0.35811
 Alpha  occ. eigenvalues --   -0.35784  -0.35523  -0.35357  -0.35202  -0.34685
 Alpha  occ. eigenvalues --   -0.34403  -0.34118  -0.34074  -0.33798  -0.33522
 Alpha  occ. eigenvalues --   -0.33205  -0.32584  -0.32403  -0.32174  -0.32119
 Alpha  occ. eigenvalues --   -0.31812  -0.30760  -0.30688  -0.30501  -0.30011
 Alpha  occ. eigenvalues --   -0.28939  -0.28639  -0.27844  -0.27699  -0.27402
 Alpha  occ. eigenvalues --   -0.27310  -0.25785  -0.23242  -0.21680
 Alpha virt. eigenvalues --   -0.08561  -0.07730  -0.02923  -0.01166   0.00051
 Alpha virt. eigenvalues --    0.01118   0.02901   0.03232   0.03721   0.04953
 Alpha virt. eigenvalues --    0.05523   0.05719   0.07651   0.07958   0.08930

 Mulliken charges:
               1
     1  Mg   0.837186
     2  C    0.064227
     3  C   -0.175251
     4  C   -0.200299
     5  C   -0.196516
     6  N   -0.602123
     7  C    0.304571
     8  C   -0.164502
     9  C   -0.151506
    10  C    0.306998
    11  C   -0.261236
    12  C   -0.158351
    13  C   -0.249065
    14  C    0.571365
    15  O   -0.414539
    16  O   -0.503455
    17  N   -0.745020
    18  C    0.370437
    19  C    0.040917
    20  C    0.031685
    21  C    0.298562
    22  C   -0.366877
    23  C    0.200623
    24  O   -0.426229
    25  N   -0.693163
    26  C    0.336215
    27  C   -0.023329
    28  C    0.032424
    29  C    0.294801
    30  C    0.226052
    31  C   -0.224669
    32  C   -0.306243
    33  N   -0.663724
    34  C    0.268078
    35  C    0.076504
    36  C    0.005733
    37  C    0.268769
    38  C   -0.390878
    39  C    0.344968
    40  O   -0.504953
    41  C   -0.306970
    42  C    0.628911
    43  O   -0.524137
    44  O   -0.422506
    45  C   -0.046159
    46  C   -0.010368
    47  C   -0.118322
    48  C    0.107030
    49  C   -0.341307
    50  C   -0.249163
    51  C   -0.165045
    52  C   -0.176820
    53  C   -0.070285
    54  C   -0.291256
    55  C   -0.171663
    56  C   -0.198746
    57  C   -0.175689
    58  C   -0.026494
    59  C   -0.329659
    60  C   -0.157443
    61  C   -0.194381
    62  C   -0.153941
    63  C   -0.061404
    64  C   -0.308043
    65  C   -0.305156
    66  H    0.065043
    67  H    0.147256
    68  H    0.097954
    69  H    0.138709
    70  H    0.077629
    71  H    0.122577
    72  H    0.087498
    73  H    0.128172
    74  H    0.096481
    75  H    0.106463
    76  H    0.146902
    77  H    0.132861
    78  H    0.104063
    79  H    0.163285
    80  H    0.113286
    81  H    0.095213
    82  H    0.108376
    83  H    0.130304
    84  H    0.111811
    85  H    0.105174
    86  H    0.100626
    87  H    0.131611
    88  H    0.154177
    89  H    0.113702
    90  H    0.179125
    91  H    0.112330
    92  H    0.114698
    93  H    0.082181
    94  H    0.132202
    95  H    0.105195
    96  H    0.121722
    97  H    0.106518
    98  H    0.102794
    99  H    0.098425
   100  H    0.108287
   101  H    0.088032
   102  H    0.092173
   103  H    0.071788
   104  H    0.060609
   105  H    0.122037
   106  H    0.093429
   107  H    0.082487
   108  H    0.095889
   109  H    0.094849
   110  H    0.083630
   111  H    0.088922
   112  H    0.093660
   113  H    0.072327
   114  H    0.105846
   115  H    0.110739
   116  H    0.096825
   117  H    0.092196
   118  H    0.091912
   119  H    0.089978
   120  H    0.088760
   121  H    0.077095
   122  H    0.059667
   123  H    0.088898
   124  H    0.090607
   125  H    0.110616
   126  H    0.109366
   127  H    0.083920
   128  H    0.088875
   129  H    0.097633
   130  H    0.110542
   131  H    0.131087
   132  H    0.126092
   133  O   -0.435387
   134  H    0.013077
 Sum of Mulliken charges =   0.00000

 Dipole moment (field-independent basis, Debye):
    X=              3.1182    Y=             -5.5610    Z=             -1.2290  Tot=              6.4929
 Quadrupole moment (field-independent basis, Debye-Ang):
   XX=           -372.8839   YY=           -452.1944   ZZ=           -394.6359
   XY=              9.5552   XZ=             26.0044   YZ=            -27.9023

 Normal termination of Gaussian 09 at Tue Oct  8 19:27:12 2019.
