 Gaussian 09, Revision D.01,
 Gaussian 09:  ES64L-G09RevD.01 24-Apr-2013

 ----------------------------------------------------------------------
 # td=(NStates=1) iop(3/107=0140000000,3/108=0140000000) iop(3/107=0140
 000000,3/108=0140000000) CAM-B3LYP/6-31G(d,p)
 ----------------------------------------------------------------------

 --
 TD
 --
 Symbolic Z-matrix:
 Charge =  0 Multiplicity = 1

                         Standard orientation:
 ---------------------------------------------------------------------
 Center     Atomic      Atomic             Coordinates (Angstroms)
 Number     Number       Type             X           Y           Z
 ---------------------------------------------------------------------
      1         12           0       -5.689736    1.265775    0.152634
      2          6           0       -5.060391   -2.208608   -0.270886
      3          6           0       -3.453085    1.167923    2.828445
      4          6           0       -6.168494    4.503839    0.639719
      5          6           0       -7.949874    1.165335   -2.289033
      6          7           0       -4.500414   -0.299535    1.066220
      7          6           0       -4.207838   -1.573821    0.687821
      8          6           0       -3.177126   -2.310554    1.457920
      9          6           0       -2.913650   -1.317384    2.640748
     10          6           0       -3.644130   -0.027561    2.141578
     11          6           0       -3.357449   -1.761011    3.966156
     12          6           0       -1.892996   -2.515028    0.639243
     13          6           0       -0.881579   -3.382750    1.430866
     14          6           0        0.246493   -3.777170    0.500757
     15          8           0        0.586553   -3.486477   -0.667876
     16          8           0        1.101293   -4.649927    1.254909
     17          7           0       -4.987711    2.603775    1.517605
     18          6           0       -4.038795    2.427949    2.427403
     19          6           0       -3.850802    3.660566    3.201637
     20          6           0       -4.601559    4.627176    2.585107
     21          6           0       -5.304706    3.949543    1.613047
     22          6           0       -2.968303    3.703744    4.337440
     23          6           0       -4.700747    6.071542    2.935115
     24          8           0       -3.981890    6.581381    3.782648
     25          7           0       -6.883694    2.629779   -0.667663
     26          6           0       -6.957566    4.037120   -0.361878
     27          6           0       -7.837516    4.699246   -1.303583
     28          6           0       -8.363801    3.758426   -2.125924
     29          6           0       -7.801263    2.460444   -1.736676
     30          6           0       -8.232067    6.124911   -1.397591
     31          6           0       -9.346602    3.834227   -3.230402
     32          6           0       -8.667439    3.876445   -4.634526
     33          7           0       -6.443691   -0.156326   -1.056539
     34          6           0       -7.405593   -0.067731   -2.015747
     35          6           0       -7.627927   -1.506828   -2.698746
     36          6           0       -6.727819   -2.211406   -1.963881
     37          6           0       -6.048144   -1.475354   -1.034502
     38          6           0       -8.578984   -1.732046   -3.732580
     39          6           0       -6.275792   -3.573851   -1.966203
     40          8           0       -6.613277   -4.650339   -2.470306
     41          6           0       -5.032009   -3.589742   -0.800340
     42          6           0       -5.494234   -4.615365    0.089939
     43          8           0       -5.884885   -4.372568    1.230744
     44          8           0       -5.155030   -5.823136   -0.262442
     45          6           0       -5.454437   -6.927770    0.560171
     46          6           0        2.296137   -5.009660    0.637705
     47          6           0        3.426926   -4.077445    1.001137
     48          6           0        4.129234   -3.324472    0.145971
     49          6           0        3.777951   -3.272467   -1.346046
     50          6           0        5.214575   -2.431110    0.663961
     51          6           0        6.515279   -2.795739    0.007272
     52          6           0        7.567192   -1.966085    0.537828
     53          6           0        9.027856   -2.129678   -0.201972
     54          6           0        9.742591   -3.398588    0.292705
     55          6           0        9.885634   -0.848686    0.237582
     56          6           0       11.281544   -0.907754   -0.301744
     57          6           0       12.243809    0.247961    0.159428
     58          6           0       13.650386    0.474035   -0.653189
     59          6           0       14.487442   -0.700610   -0.399115
     60          6           0       14.261585    1.749858   -0.192888
     61          6           0       15.517082    2.122807   -1.088715
     62          6           0       16.205786    3.448772   -0.571501
     63          6           0       17.412858    3.853586   -1.289579
     64          6           0       17.158858    4.254391   -2.704652
     65          6           0       17.964308    5.193338   -0.555166
     66          1           0       -2.697479    1.014909    3.688097
     67          1           0       -6.391751    5.703772    0.637612
     68          1           0       -8.804039    1.042926   -2.965541
     69          1           0       -3.560666   -3.066253    1.830321
     70          1           0       -1.872731   -1.138645    2.848458
     71          1           0       -3.001609   -2.719095    4.013321
     72          1           0       -2.956514   -1.158804    4.804630
     73          1           0       -4.432327   -1.809146    4.004699
     74          1           0       -2.164528   -2.762378   -0.278277
     75          1           0       -1.287242   -1.554785    0.514680
     76          1           0       -0.387957   -2.934386    2.376186
     77          1           0       -1.409782   -4.233888    1.794555
     78          1           0       -1.844393    3.361680    4.196925
     79          1           0       -2.917505    4.890340    4.587646
     80          1           0       -3.410544    3.490860    5.289606
     81          1           0       -5.359213    6.649638    2.319917
     82          1           0       -9.941280    2.882605   -3.193673
     83          1           0       -9.931709    4.648318   -3.002400
     84          1           0       -9.590117    4.215047   -5.333655
     85          1           0       -7.939738    4.687272   -4.560927
     86          1           0       -8.373216    2.826362   -4.868822
     87          1           0       -8.446258   -1.004572   -4.502563
     88          1           0       -8.421092   -2.756567   -4.181831
     89          1           0       -9.589763   -1.796881   -3.303317
     90          1           0       -4.318712   -3.946430   -1.554006
     91          1           0        2.725325   -6.018110    0.951792
     92          1           0        1.937126   -5.098776   -0.230355
     93          1           0        3.546982   -3.954919    2.003311
     94          1           0        2.815267   -3.580358   -1.659085
     95          1           0        3.793167   -2.092543   -1.698727
     96          1           0        4.626382   -3.774803   -1.902965
     97          1           0        4.826051   -1.395113    0.477260
     98          1           0        5.219625   -2.208605    1.742720
     99          1           0        6.829900   -3.764676    0.238374
    100          1           0        6.493516   -2.439772   -1.137849
    101          1           0        7.099097   -0.986376    0.364303
    102          1           0        7.806989   -2.048959    1.678760
    103          1           0        8.968579   -2.213791   -1.126939
    104          1           0        9.099774   -4.290474    0.160773
    105          1           0       10.687051   -3.529467   -0.174711
    106          1           0        9.891043   -3.296173    1.434150
    107          1           0        9.320005    0.073007   -0.183097
    108          1           0        9.817876   -0.762489    1.259378
    109          1           0       11.825850   -1.854219    0.061200
    110          1           0       11.345834   -0.800777   -1.486404
    111          1           0       11.659001    1.095994   -0.209441
    112          1           0       12.450105    0.317544    1.143509
    113          1           0       13.365693    0.476525   -1.843814
    114          1           0       14.906395   -1.061508    0.603164
    115          1           0       13.859324   -1.622678   -0.741454
    116          1           0       15.483936   -0.845430   -1.079024
    117          1           0       13.571159    2.572484   -0.277128
    118          1           0       14.633394    1.780698    0.760270
    119          1           0       16.350985    1.426651   -1.158369
    120          1           0       15.285725    2.478476   -2.147109
    121          1           0       15.423476    4.200174   -0.598189
    122          1           0       16.359611    3.409844    0.447404
    123          1           0       18.318405    3.210273   -1.182519
    124          1           0       16.371081    4.907791   -2.934464
    125          1           0       18.105972    4.452800   -3.252572
    126          1           0       16.976901    3.249956   -3.204280
    127          1           0       18.137669    4.839457    0.556803
    128          1           0       18.844737    5.486018   -0.853103
    129          1           0       17.102514    5.944889   -0.729817
    130          1           0       -5.133171   -7.821877   -0.043378
    131          1           0       -6.413825   -6.866860    0.923252
    132          1           0       -4.663935   -6.902893    1.377220
    133          8           0       -7.799802    6.899891   -0.603325
    134          1           0       -8.603598    6.291972   -2.452100
 ---------------------------------------------------------------------

 SCF Done:  E(RCAM-B3LYP) =  -3043.45490308     A.U. after   16 cycles

 Excitation energies and oscillator strengths:

 Excited State   1:      Singlet-A      1.9767 eV  627.24 nm  f=0.1865  <S**2>=0.000
     243 -> 245        0.14115
     243 -> 246        0.25502
     244 -> 245        0.62892
 This state for optimization and/or second-order correction.
 Total Energy, E(TD-HF/TD-KS) =  -3043.38226214
 Copying the excited state density for this state as the 1-particle RhoCI density.

 The electronic state is 1-A.
 Alpha  occ. eigenvalues --  -46.81010 -19.21834 -19.20630 -19.18853 -19.18742
 Alpha  occ. eigenvalues --  -19.18719 -19.17364 -19.14957 -14.39029 -14.36901
 Alpha  occ. eigenvalues --  -14.36817 -14.36679 -10.36480 -10.33537 -10.32643
 Alpha  occ. eigenvalues --  -10.31587 -10.30356 -10.27646 -10.27241 -10.26997
 Alpha  occ. eigenvalues --  -10.26839 -10.26789 -10.26591 -10.26268 -10.26003
 Alpha  occ. eigenvalues --  -10.25808 -10.25728 -10.25682 -10.24637 -10.24288
 Alpha  occ. eigenvalues --  -10.24097 -10.23951 -10.23919 -10.23907 -10.23895
 Alpha  occ. eigenvalues --  -10.23723 -10.23283 -10.23196 -10.23172 -10.23170
 Alpha  occ. eigenvalues --  -10.23117 -10.23112 -10.23050 -10.22700 -10.22330
 Alpha  occ. eigenvalues --  -10.22031 -10.21928 -10.21919 -10.21599 -10.21451
 Alpha  occ. eigenvalues --  -10.21358 -10.21259 -10.21129 -10.20929 -10.20822
 Alpha  occ. eigenvalues --  -10.20628 -10.20604 -10.20483 -10.20366 -10.20175
 Alpha  occ. eigenvalues --  -10.19878 -10.19712 -10.19695 -10.19618 -10.19370
 Alpha  occ. eigenvalues --  -10.18772  -3.09703  -1.84628  -1.84173  -1.84130
 Alpha  occ. eigenvalues --   -1.14594  -1.11590  -1.09755  -1.07150  -1.06691
 Alpha  occ. eigenvalues --   -1.03823  -1.03145  -1.00703  -1.00276  -0.98955
 Alpha  occ. eigenvalues --   -0.97085  -0.88782  -0.87227  -0.86155  -0.85798
 Alpha  occ. eigenvalues --   -0.85243  -0.85060  -0.84031  -0.83927  -0.83622
 Alpha  occ. eigenvalues --   -0.83548  -0.83024  -0.82320  -0.80817  -0.80279
 Alpha  occ. eigenvalues --   -0.79776  -0.78312  -0.77635  -0.77421  -0.76835
 Alpha  occ. eigenvalues --   -0.75561  -0.75159  -0.74226  -0.72825  -0.71782
 Alpha  occ. eigenvalues --   -0.70876  -0.70622  -0.70101  -0.69848  -0.69603
 Alpha  occ. eigenvalues --   -0.69271  -0.68620  -0.67129  -0.66933  -0.66539
 Alpha  occ. eigenvalues --   -0.66302  -0.65067  -0.64408  -0.62954  -0.62441
 Alpha  occ. eigenvalues --   -0.61756  -0.60638  -0.60197  -0.59659  -0.59491
 Alpha  occ. eigenvalues --   -0.58640  -0.58369  -0.58084  -0.57828  -0.57520
 Alpha  occ. eigenvalues --   -0.56821  -0.56636  -0.55722  -0.55485  -0.54938
 Alpha  occ. eigenvalues --   -0.54060  -0.53975  -0.53537  -0.52603  -0.52311
 Alpha  occ. eigenvalues --   -0.52146  -0.51929  -0.51422  -0.51044  -0.50582
 Alpha  occ. eigenvalues --   -0.50529  -0.50041  -0.49989  -0.49770  -0.49736
 Alpha  occ. eigenvalues --   -0.49239  -0.48888  -0.48699  -0.48305  -0.48051
 Alpha  occ. eigenvalues --   -0.47822  -0.47717  -0.47415  -0.47255  -0.47014
 Alpha  occ. eigenvalues --   -0.46773  -0.46542  -0.46320  -0.46079  -0.45978
 Alpha  occ. eigenvalues --   -0.45752  -0.45519  -0.45445  -0.45321  -0.45017
 Alpha  occ. eigenvalues --   -0.44854  -0.44823  -0.44451  -0.44261  -0.44048
 Alpha  occ. eigenvalues --   -0.43701  -0.43459  -0.43214  -0.43065  -0.42762
 Alpha  occ. eigenvalues --   -0.42665  -0.42493  -0.42370  -0.42137  -0.42072
 Alpha  occ. eigenvalues --   -0.41901  -0.41842  -0.41720  -0.41569  -0.41374
 Alpha  occ. eigenvalues --   -0.41062  -0.41045  -0.40853  -0.40188  -0.40133
 Alpha  occ. eigenvalues --   -0.39646  -0.39332  -0.39209  -0.39095  -0.38840
 Alpha  occ. eigenvalues --   -0.38494  -0.38140  -0.37954  -0.37657  -0.37616
 Alpha  occ. eigenvalues --   -0.37573  -0.37403  -0.37325  -0.37095  -0.36903
 Alpha  occ. eigenvalues --   -0.36792  -0.36193  -0.35988  -0.35838  -0.35636
 Alpha  occ. eigenvalues --   -0.35387  -0.35135  -0.35093  -0.34780  -0.34755
 Alpha  occ. eigenvalues --   -0.34561  -0.34188  -0.34182  -0.33644  -0.32795
 Alpha  occ. eigenvalues --   -0.32363  -0.32279  -0.31797  -0.31715  -0.31461
 Alpha  occ. eigenvalues --   -0.31073  -0.30239  -0.29808  -0.29376  -0.29195
 Alpha  occ. eigenvalues --   -0.29053  -0.29026  -0.28599  -0.27903  -0.27608
 Alpha  occ. eigenvalues --   -0.27164  -0.26188  -0.22529  -0.21187
 Alpha virt. eigenvalues --   -0.08436  -0.06252  -0.01922  -0.01253   0.00280
 Alpha virt. eigenvalues --    0.01149   0.03381   0.03710   0.04468   0.04806
 Alpha virt. eigenvalues --    0.05572   0.05782   0.07281   0.08292   0.09042

 Mulliken charges:
               1
     1  Mg   0.833527
     2  C    0.089151
     3  C   -0.182301
     4  C   -0.224248
     5  C   -0.218109
     6  N   -0.613929
     7  C    0.280195
     8  C   -0.096406
     9  C   -0.164410
    10  C    0.330786
    11  C   -0.304060
    12  C   -0.165182
    13  C   -0.266477
    14  C    0.610447
    15  O   -0.476059
    16  O   -0.495577
    17  N   -0.680612
    18  C    0.299377
    19  C    0.047873
    20  C    0.017845
    21  C    0.278442
    22  C   -0.441070
    23  C    0.268407
    24  O   -0.412759
    25  N   -0.690910
    26  C    0.284187
    27  C   -0.027784
    28  C    0.054101
    29  C    0.299538
    30  C    0.255701
    31  C   -0.257821
    32  C   -0.291165
    33  N   -0.722664
    34  C    0.254291
    35  C    0.087074
    36  C    0.069194
    37  C    0.321700
    38  C   -0.407811
    39  C    0.292833
    40  O   -0.451659
    41  C   -0.388722
    42  C    0.649451
    43  O   -0.514267
    44  O   -0.421483
    45  C   -0.078289
    46  C    0.053087
    47  C   -0.151096
    48  C    0.143797
    49  C   -0.361206
    50  C   -0.238703
    51  C   -0.150787
    52  C   -0.176451
    53  C   -0.044517
    54  C   -0.317864
    55  C   -0.155572
    56  C   -0.182415
    57  C   -0.183113
    58  C   -0.047091
    59  C   -0.297650
    60  C   -0.157732
    61  C   -0.197774
    62  C   -0.160651
    63  C   -0.070785
    64  C   -0.304198
    65  C   -0.292293
    66  H    0.091544
    67  H    0.116955
    68  H    0.066997
    69  H    0.109052
    70  H    0.098950
    71  H    0.112547
    72  H    0.107713
    73  H    0.126929
    74  H    0.129695
    75  H    0.116127
    76  H    0.150587
    77  H    0.154695
    78  H    0.112955
    79  H    0.140186
    80  H    0.138755
    81  H    0.092198
    82  H    0.112134
    83  H    0.112940
    84  H    0.094486
    85  H    0.122317
    86  H    0.120614
    87  H    0.140590
    88  H    0.145070
    89  H    0.151048
    90  H    0.161396
    91  H    0.096675
    92  H    0.101216
    93  H    0.075221
    94  H    0.152010
    95  H    0.076476
    96  H    0.109545
    97  H    0.097257
    98  H    0.097441
    99  H    0.108074
   100  H    0.091898
   101  H    0.081940
   102  H    0.069943
   103  H    0.082783
   104  H    0.093717
   105  H    0.114718
   106  H    0.084510
   107  H    0.074906
   108  H    0.099566
   109  H    0.089404
   110  H    0.074390
   111  H    0.085842
   112  H    0.096783
   113  H    0.066558
   114  H    0.098241
   115  H    0.087689
   116  H    0.073902
   117  H    0.092731
   118  H    0.104338
   119  H    0.096373
   120  H    0.087033
   121  H    0.082133
   122  H    0.086677
   123  H    0.083036
   124  H    0.111847
   125  H    0.095417
   126  H    0.090118
   127  H    0.071719
   128  H    0.107145
   129  H    0.087331
   130  H    0.125451
   131  H    0.145602
   132  H    0.109476
   133  O   -0.391911
   134  H    0.070970
 Sum of Mulliken charges =   0.00000

 Dipole moment (field-independent basis, Debye):
    X=             -0.5929    Y=             -3.4430    Z=             -2.2424  Tot=              4.1513
 Quadrupole moment (field-independent basis, Debye-Ang):
   XX=           -371.6320   YY=           -436.7945   ZZ=           -390.3321
   XY=              1.9503   XZ=             34.5220   YZ=            -31.3522

 Normal termination of Gaussian 09 at Mon Oct  7 23:21:39 2019.
