 Gaussian 09, Revision D.01,
 Gaussian 09:  ES64L-G09RevD.01 24-Apr-2013

 ----------------------------------------------------------------------
 # td=(NStates=1) iop(3/107=0140000000,3/108=0140000000) iop(3/107=0140
 000000,3/108=0140000000) CAM-B3LYP/6-31G(d,p)
 ----------------------------------------------------------------------

 --
 TD
 --
 Symbolic Z-matrix:
 Charge =  0 Multiplicity = 1

                         Standard orientation:
 ---------------------------------------------------------------------
 Center     Atomic      Atomic             Coordinates (Angstroms)
 Number     Number       Type             X           Y           Z
 ---------------------------------------------------------------------
      1         12           0       -5.541589    1.274433    0.159302
      2          6           0       -5.061646   -2.115875   -0.447333
      3          6           0       -3.275310    1.108766    2.636898
      4          6           0       -6.156923    4.486103    0.607598
      5          6           0       -8.012844    1.249583   -2.292523
      6          7           0       -4.338532   -0.322513    1.034600
      7          6           0       -4.230690   -1.671310    0.663888
      8          6           0       -3.193891   -2.381704    1.483538
      9          6           0       -2.848843   -1.346857    2.624928
     10          6           0       -3.520308   -0.069943    2.041844
     11          6           0       -3.432139   -1.902687    3.881429
     12          6           0       -1.904177   -2.712700    0.578630
     13          6           0       -0.996761   -3.665544    1.354684
     14          6           0        0.404045   -3.833510    0.663552
     15          8           0        0.688950   -3.296566   -0.406872
     16          8           0        1.029291   -4.911399    1.242408
     17          7           0       -4.920700    2.547220    1.477850
     18          6           0       -3.944806    2.377031    2.481495
     19          6           0       -3.786977    3.490003    3.216138
     20          6           0       -4.582354    4.492562    2.664972
     21          6           0       -5.211646    3.857374    1.494893
     22          6           0       -2.825979    3.646173    4.437242
     23          6           0       -4.645850    5.887043    3.063067
     24          8           0       -4.262406    6.421419    4.064533
     25          7           0       -6.876081    2.652043   -0.678375
     26          6           0       -6.898848    4.053798   -0.370678
     27          6           0       -7.979912    4.713178   -1.142725
     28          6           0       -8.512657    3.657337   -2.029474
     29          6           0       -7.794838    2.460504   -1.672141
     30          6           0       -8.304877    6.150739   -1.123529
     31          6           0       -9.491249    3.860270   -3.130419
     32          6           0       -8.829869    4.140751   -4.473072
     33          7           0       -6.362777   -0.126728   -1.213958
     34          6           0       -7.363800    0.020725   -2.080822
     35          6           0       -7.550573   -1.221109   -2.735829
     36          6           0       -6.597893   -2.138408   -2.176385
     37          6           0       -5.947107   -1.391436   -1.173463
     38          6           0       -8.421348   -1.622176   -3.800645
     39          6           0       -6.177929   -3.540784   -2.078794
     40          8           0       -6.483837   -4.513943   -2.792004
     41          6           0       -5.055382   -3.530110   -0.962338
     42          6           0       -5.308788   -4.573662    0.094842
     43          8           0       -5.698262   -4.463811    1.216851
     44          8           0       -5.094839   -5.802103   -0.479497
     45          6           0       -5.406754   -6.961343    0.359022
     46          6           0        2.367701   -5.168643    0.551927
     47          6           0        3.529078   -4.229317    1.025616
     48          6           0        4.074567   -3.355630    0.224264
     49          6           0        3.791154   -3.205844   -1.284333
     50          6           0        5.180700   -2.464460    0.725870
     51          6           0        6.549684   -2.727540    0.115507
     52          6           0        7.557935   -1.774792    0.675764
     53          6           0        8.948915   -1.971311    0.088916
     54          6           0        9.589379   -3.308167    0.341031
     55          6           0        9.857257   -0.803294    0.526831
     56          6           0       11.262732   -0.813428   -0.257075
     57          6           0       12.146415    0.294313    0.152310
     58          6           0       13.536238    0.417518   -0.593130
     59          6           0       14.481178   -0.741373   -0.390125
     60          6           0       14.159699    1.754845   -0.219084
     61          6           0       15.574248    2.150040   -1.006186
     62          6           0       16.081274    3.611578   -0.703434
     63          6           0       17.312775    3.980410   -1.431304
     64          6           0       17.067908    4.195756   -2.929590
     65          6           0       17.935221    5.262755   -0.806083
     66          1           0       -2.611807    1.206060    3.604713
     67          1           0       -6.126406    5.570886    0.914838
     68          1           0       -8.653129    1.465467   -3.238735
     69          1           0       -3.656016   -3.180732    2.120882
     70          1           0       -1.728641   -1.519609    2.702054
     71          1           0       -3.002296   -2.720742    4.219081
     72          1           0       -3.346696   -1.293304    4.787909
     73          1           0       -4.529509   -2.095332    3.647641
     74          1           0       -2.251401   -3.020655   -0.239094
     75          1           0       -1.567687   -1.736638    0.462642
     76          1           0       -0.987516   -3.289415    2.426607
     77          1           0       -1.513513   -4.592286    1.423541
     78          1           0       -1.667031    3.568983    4.342826
     79          1           0       -2.918324    4.629242    4.637606
     80          1           0       -3.116462    2.742934    5.054920
     81          1           0       -5.158168    6.511516    2.286029
     82          1           0      -10.083345    2.998203   -3.267989
     83          1           0      -10.286123    4.543882   -2.808948
     84          1           0       -9.726079    4.471350   -5.126275
     85          1           0       -8.227931    4.959612   -4.535304
     86          1           0       -8.397407    3.347070   -4.877874
     87          1           0       -8.115284   -1.018279   -4.687616
     88          1           0       -8.218292   -2.633343   -4.300576
     89          1           0       -9.544602   -1.340942   -3.398238
     90          1           0       -4.073428   -3.823940   -1.467835
     91          1           0        2.560597   -6.193861    1.130389
     92          1           0        2.015774   -5.013944   -0.587020
     93          1           0        3.797047   -4.340548    2.005421
     94          1           0        2.704289   -3.490581   -1.535974
     95          1           0        3.904315   -2.072225   -1.472109
     96          1           0        4.515346   -3.828021   -1.798466
     97          1           0        4.887715   -1.451535    0.191480
     98          1           0        5.297032   -2.313934    1.819583
     99          1           0        6.882738   -3.766087    0.251761
    100          1           0        6.367000   -2.670675   -1.037889
    101          1           0        7.125994   -0.728597    0.353479
    102          1           0        7.746815   -1.704788    1.759528
    103          1           0        8.791105   -1.835830   -1.042255
    104          1           0        8.850543   -4.234155   -0.080636
    105          1           0       10.551776   -3.234642   -0.114938
    106          1           0        9.605492   -3.395318    1.458284
    107          1           0        9.118265    0.075493    0.168364
    108          1           0       10.028561   -0.769234    1.621119
    109          1           0       11.895256   -1.864448   -0.109366
    110          1           0       10.850136   -0.606099   -1.401989
    111          1           0       11.621083    1.301008    0.000766
    112          1           0       12.214684    0.295450    1.258929
    113          1           0       13.235996    0.385623   -1.763268
    114          1           0       14.667437   -0.753676    0.491256
    115          1           0       13.801783   -1.832550   -0.721044
    116          1           0       15.294943   -0.870099   -1.061374
    117          1           0       13.155853    2.509035   -0.403078
    118          1           0       14.360102    1.949721    0.847478
    119          1           0       16.234215    1.357030   -0.769508
    120          1           0       15.038835    2.226703   -1.966014
    121          1           0       15.284645    4.461751   -0.847610
    122          1           0       16.217893    3.697325    0.409601
    123          1           0       18.057234    3.116975   -1.235030
    124          1           0       16.243741    4.956596   -2.934461
    125          1           0       18.107960    4.394328   -3.395885
    126          1           0       16.690487    3.228887   -3.383513
    127          1           0       18.205261    5.234586    0.290938
    128          1           0       18.700914    5.656148   -1.392226
    129          1           0       17.167011    6.062263   -1.043146
    130          1           0       -5.379306   -7.755380   -0.504289
    131          1           0       -6.494003   -6.869558    0.727227
    132          1           0       -4.897121   -7.089427    1.327479
    133          8           0       -7.826726    6.897374   -0.282631
    134          1           0       -9.160859    6.377986   -1.746616
 ---------------------------------------------------------------------

 SCF Done:  E(RCAM-B3LYP) =  -3043.44537384     A.U. after   16 cycles

 Excitation energies and oscillator strengths:

 Excited State   1:      Singlet-A      1.9759 eV  627.49 nm  f=0.1747  <S**2>=0.000
     243 -> 246        0.28525
     244 -> 245        0.63258
 This state for optimization and/or second-order correction.
 Total Energy, E(TD-HF/TD-KS) =  -3043.37276167
 Copying the excited state density for this state as the 1-particle RhoCI density.

 The electronic state is 1-A.
 Alpha  occ. eigenvalues --  -46.81826 -19.22504 -19.21957 -19.18430 -19.17880
 Alpha  occ. eigenvalues --  -19.17523 -19.17229 -19.16498 -14.39603 -14.36810
 Alpha  occ. eigenvalues --  -14.36392 -14.36171 -10.35879 -10.35069 -10.31997
 Alpha  occ. eigenvalues --  -10.30625 -10.29526 -10.29405 -10.28682 -10.28321
 Alpha  occ. eigenvalues --  -10.26888 -10.26571 -10.26520 -10.26395 -10.26048
 Alpha  occ. eigenvalues --  -10.25839 -10.25666 -10.25157 -10.25132 -10.25074
 Alpha  occ. eigenvalues --  -10.24584 -10.24579 -10.24368 -10.24346 -10.24104
 Alpha  occ. eigenvalues --  -10.23911 -10.23904 -10.23833 -10.23633 -10.23448
 Alpha  occ. eigenvalues --  -10.23135 -10.23014 -10.22957 -10.22927 -10.22539
 Alpha  occ. eigenvalues --  -10.22483 -10.22422 -10.22366 -10.22228 -10.22164
 Alpha  occ. eigenvalues --  -10.21880 -10.21840 -10.21697 -10.21606 -10.21595
 Alpha  occ. eigenvalues --  -10.21581 -10.21514 -10.21468 -10.21418 -10.21408
 Alpha  occ. eigenvalues --  -10.21402 -10.21338 -10.21014 -10.20918 -10.20099
 Alpha  occ. eigenvalues --  -10.20086  -3.10360  -1.85299  -1.84834  -1.84765
 Alpha  occ. eigenvalues --   -1.13319  -1.11780  -1.07158  -1.06865  -1.05472
 Alpha  occ. eigenvalues --   -1.04938  -1.04234  -1.01810  -1.00507  -0.99617
 Alpha  occ. eigenvalues --   -0.97895  -0.89694  -0.86623  -0.86315  -0.86129
 Alpha  occ. eigenvalues --   -0.85103  -0.84543  -0.84409  -0.83936  -0.83566
 Alpha  occ. eigenvalues --   -0.83475  -0.82825  -0.81664  -0.80174  -0.79901
 Alpha  occ. eigenvalues --   -0.78989  -0.78165  -0.77615  -0.77073  -0.75815
 Alpha  occ. eigenvalues --   -0.75268  -0.74697  -0.73726  -0.73145  -0.71973
 Alpha  occ. eigenvalues --   -0.71101  -0.70904  -0.70692  -0.70358  -0.70098
 Alpha  occ. eigenvalues --   -0.69533  -0.69033  -0.67933  -0.67358  -0.66858
 Alpha  occ. eigenvalues --   -0.66340  -0.64821  -0.64688  -0.62669  -0.62219
 Alpha  occ. eigenvalues --   -0.61577  -0.60380  -0.59021  -0.58948  -0.58454
 Alpha  occ. eigenvalues --   -0.58304  -0.57952  -0.57317  -0.57121  -0.56869
 Alpha  occ. eigenvalues --   -0.56291  -0.55842  -0.55429  -0.55055  -0.54878
 Alpha  occ. eigenvalues --   -0.54099  -0.53855  -0.53175  -0.52730  -0.52398
 Alpha  occ. eigenvalues --   -0.51970  -0.51030  -0.50870  -0.50646  -0.50499
 Alpha  occ. eigenvalues --   -0.50360  -0.50273  -0.49714  -0.49571  -0.49388
 Alpha  occ. eigenvalues --   -0.48881  -0.48532  -0.48038  -0.48027  -0.47869
 Alpha  occ. eigenvalues --   -0.47850  -0.47702  -0.47295  -0.47244  -0.47174
 Alpha  occ. eigenvalues --   -0.46489  -0.46445  -0.46355  -0.46038  -0.45789
 Alpha  occ. eigenvalues --   -0.45720  -0.45471  -0.45338  -0.45193  -0.45000
 Alpha  occ. eigenvalues --   -0.44908  -0.44629  -0.44376  -0.44164  -0.44088
 Alpha  occ. eigenvalues --   -0.43758  -0.43597  -0.43451  -0.43193  -0.42861
 Alpha  occ. eigenvalues --   -0.42467  -0.42201  -0.42131  -0.41968  -0.41668
 Alpha  occ. eigenvalues --   -0.41533  -0.41328  -0.41246  -0.41140  -0.40986
 Alpha  occ. eigenvalues --   -0.40700  -0.40564  -0.40414  -0.40233  -0.40068
 Alpha  occ. eigenvalues --   -0.39909  -0.39763  -0.39490  -0.39212  -0.39025
 Alpha  occ. eigenvalues --   -0.38857  -0.38779  -0.38409  -0.38353  -0.38177
 Alpha  occ. eigenvalues --   -0.38076  -0.37752  -0.37631  -0.37461  -0.37332
 Alpha  occ. eigenvalues --   -0.37079  -0.36755  -0.36186  -0.36048  -0.35523
 Alpha  occ. eigenvalues --   -0.35359  -0.35118  -0.34901  -0.34687  -0.34104
 Alpha  occ. eigenvalues --   -0.34006  -0.33815  -0.33512  -0.33384  -0.33051
 Alpha  occ. eigenvalues --   -0.33021  -0.32928  -0.32266  -0.32097  -0.31832
 Alpha  occ. eigenvalues --   -0.31721  -0.31272  -0.31001  -0.30547  -0.30294
 Alpha  occ. eigenvalues --   -0.28390  -0.28177  -0.27960  -0.27932  -0.27631
 Alpha  occ. eigenvalues --   -0.27403  -0.27074  -0.22782  -0.22069
 Alpha virt. eigenvalues --   -0.09316  -0.06947  -0.02213  -0.00707   0.00968
 Alpha virt. eigenvalues --    0.02148   0.02813   0.03297   0.03746   0.04338
 Alpha virt. eigenvalues --    0.05268   0.05839   0.08067   0.08290   0.08512

 Mulliken charges:
               1
     1  Mg   0.837651
     2  C    0.063010
     3  C   -0.183676
     4  C   -0.183805
     5  C   -0.190160
     6  N   -0.614381
     7  C    0.301590
     8  C   -0.212537
     9  C   -0.138246
    10  C    0.371601
    11  C   -0.317267
    12  C   -0.134201
    13  C   -0.273377
    14  C    0.612363
    15  O   -0.464935
    16  O   -0.474052
    17  N   -0.742779
    18  C    0.287506
    19  C    0.027514
    20  C   -0.034405
    21  C    0.299709
    22  C   -0.349994
    23  C    0.238873
    24  O   -0.415248
    25  N   -0.701095
    26  C    0.305175
    27  C   -0.019908
    28  C    0.020979
    29  C    0.357363
    30  C    0.248257
    31  C   -0.273790
    32  C   -0.304625
    33  N   -0.749310
    34  C    0.351227
    35  C   -0.008056
    36  C    0.024979
    37  C    0.317524
    38  C   -0.390966
    39  C    0.372975
    40  O   -0.465287
    41  C   -0.338282
    42  C    0.618308
    43  O   -0.458431
    44  O   -0.454153
    45  C   -0.093438
    46  C   -0.017302
    47  C   -0.120071
    48  C    0.154146
    49  C   -0.369372
    50  C   -0.227568
    51  C   -0.166732
    52  C   -0.154531
    53  C   -0.058457
    54  C   -0.283875
    55  C   -0.171952
    56  C   -0.156872
    57  C   -0.166216
    58  C   -0.045636
    59  C   -0.267912
    60  C   -0.190422
    61  C   -0.186994
    62  C   -0.155478
    63  C   -0.051849
    64  C   -0.297725
    65  C   -0.305736
    66  H    0.079641
    67  H    0.118674
    68  H    0.084424
    69  H    0.132760
    70  H    0.096779
    71  H    0.124470
    72  H    0.102430
    73  H    0.117719
    74  H    0.109218
    75  H    0.127661
    76  H    0.118548
    77  H    0.147802
    78  H    0.107240
    79  H    0.154394
    80  H    0.119465
    81  H    0.062622
    82  H    0.121817
    83  H    0.120204
    84  H    0.097737
    85  H    0.130638
    86  H    0.127909
    87  H    0.125483
    88  H    0.151389
    89  H    0.111691
    90  H    0.167630
    91  H    0.107633
    92  H    0.130569
    93  H    0.082534
    94  H    0.140665
    95  H    0.102198
    96  H    0.130834
    97  H    0.082195
    98  H    0.097576
    99  H    0.095748
   100  H    0.087010
   101  H    0.073679
   102  H    0.089751
   103  H    0.070104
   104  H    0.070232
   105  H    0.114746
   106  H    0.092518
   107  H    0.079116
   108  H    0.085844
   109  H    0.080405
   110  H    0.071558
   111  H    0.085918
   112  H    0.086919
   113  H    0.063036
   114  H    0.113985
   115  H    0.037033
   116  H    0.116476
   117  H    0.050503
   118  H    0.090124
   119  H    0.107712
   120  H    0.115047
   121  H    0.072046
   122  H    0.080728
   123  H    0.068177
   124  H    0.101223
   125  H    0.098108
   126  H    0.103585
   127  H    0.100253
   128  H    0.104451
   129  H    0.083766
   130  H    0.130556
   131  H    0.122442
   132  H    0.134495
   133  O   -0.412184
   134  H    0.072693
 Sum of Mulliken charges =   0.00000

 Dipole moment (field-independent basis, Debye):
    X=              2.5143    Y=             -4.4018    Z=             -2.2616  Tot=              5.5509
 Quadrupole moment (field-independent basis, Debye-Ang):
   XX=           -364.4431   YY=           -443.9159   ZZ=           -397.1154
   XY=              3.2686   XZ=             37.5729   YZ=            -44.5934

 Normal termination of Gaussian 09 at Tue Oct  8 23:45:09 2019.
