 Gaussian 09, Revision D.01,
 Gaussian 09:  ES64L-G09RevD.01 24-Apr-2013

 ----------------------------------------------------------------------
 # td=(NStates=1) iop(3/107=0140000000,3/108=0140000000) iop(3/107=0140
 000000,3/108=0140000000) CAM-B3LYP/6-31G(d,p)
 ----------------------------------------------------------------------

 --
 TD
 --
 Symbolic Z-matrix:
 Charge =  0 Multiplicity = 1

                         Standard orientation:
 ---------------------------------------------------------------------
 Center     Atomic      Atomic             Coordinates (Angstroms)
 Number     Number       Type             X           Y           Z
 ---------------------------------------------------------------------
      1         12           0       -5.665447    1.227941    0.187374
      2          6           0       -4.975775   -2.170054   -0.323662
      3          6           0       -3.427484    1.221084    2.783782
      4          6           0       -6.269039    4.649419    0.653627
      5          6           0       -7.904813    1.105806   -2.447497
      6          7           0       -4.391823   -0.280511    0.962772
      7          6           0       -4.288166   -1.561113    0.716526
      8          6           0       -3.153741   -2.231612    1.423677
      9          6           0       -2.930835   -1.355738    2.621313
     10          6           0       -3.576816    0.054988    2.159282
     11          6           0       -3.444049   -1.735529    3.977244
     12          6           0       -1.884033   -2.663638    0.684361
     13          6           0       -0.990289   -3.516449    1.501949
     14          6           0        0.362524   -3.760565    0.698577
     15          8           0        0.618904   -3.215202   -0.341076
     16          8           0        1.054795   -4.773435    1.265362
     17          7           0       -4.871664    2.658976    1.471512
     18          6           0       -4.060420    2.503080    2.469007
     19          6           0       -3.759146    3.728416    3.185329
     20          6           0       -4.563573    4.691340    2.546214
     21          6           0       -5.279275    3.986433    1.483968
     22          6           0       -2.804728    3.958581    4.318257
     23          6           0       -4.752804    6.082051    2.915943
     24          8           0       -4.066556    6.762432    3.717029
     25          7           0       -6.949431    2.546254   -0.664887
     26          6           0       -6.949112    3.878750   -0.420349
     27          6           0       -7.914543    4.539689   -1.233411
     28          6           0       -8.394996    3.579430   -2.033975
     29          6           0       -7.753114    2.300692   -1.731788
     30          6           0       -8.337466    5.875431   -1.268033
     31          6           0       -9.470586    3.586137   -3.127967
     32          6           0       -8.775071    4.041266   -4.467376
     33          7           0       -6.337204   -0.180647   -1.135875
     34          6           0       -7.326592   -0.049571   -2.047134
     35          6           0       -7.556712   -1.386396   -2.707551
     36          6           0       -6.692114   -2.239760   -2.015164
     37          6           0       -5.955441   -1.384064   -1.034627
     38          6           0       -8.497795   -1.678751   -3.813246
     39          6           0       -6.224691   -3.673356   -1.954645
     40          8           0       -6.604306   -4.545574   -2.537314
     41          6           0       -5.107891   -3.609255   -0.834546
     42          6           0       -5.314941   -4.612515    0.227309
     43          8           0       -5.940675   -4.480839    1.281530
     44          8           0       -5.043759   -5.805740   -0.257278
     45          6           0       -5.418517   -7.048564    0.466706
     46          6           0        2.349130   -5.067832    0.635654
     47          6           0        3.365760   -4.000306    0.954297
     48          6           0        4.061836   -3.224008    0.086615
     49          6           0        3.710977   -3.165847   -1.398288
     50          6           0        5.213384   -2.401692    0.610362
     51          6           0        6.495266   -2.860551    0.057085
     52          6           0        7.710755   -1.938845    0.601728
     53          6           0        9.063316   -2.143877   -0.124038
     54          6           0        9.761283   -3.539984    0.064625
     55          6           0       10.042518   -0.939294    0.283955
     56          6           0       11.457420   -0.930801   -0.337731
     57          6           0       12.219845    0.321814    0.144151
     58          6           0       13.595743    0.414495   -0.529533
     59          6           0       14.438243   -0.802927   -0.118887
     60          6           0       14.272947    1.683952   -0.099887
     61          6           0       15.488684    2.241814   -0.895041
     62          6           0       16.021318    3.685062   -0.618614
     63          6           0       17.275094    4.020558   -1.359332
     64          6           0       17.068361    4.000541   -2.903711
     65          6           0       17.697273    5.435494   -0.802044
     66          1           0       -2.836249    1.105536    3.675070
     67          1           0       -6.344156    5.593535    0.713724
     68          1           0       -8.711151    1.192786   -3.325834
     69          1           0       -3.593785   -3.272449    1.968810
     70          1           0       -1.856696   -1.069955    2.738388
     71          1           0       -2.803437   -2.659893    4.287614
     72          1           0       -3.177548   -1.092996    4.820891
     73          1           0       -4.441573   -1.898578    4.216232
     74          1           0       -2.231986   -3.074286   -0.261230
     75          1           0       -1.342962   -1.640923    0.466593
     76          1           0       -0.985673   -3.154905    2.592991
     77          1           0       -1.305995   -4.407382    1.572679
     78          1           0       -1.695799    3.944010    3.914760
     79          1           0       -2.847006    5.020833    4.601031
     80          1           0       -3.011572    3.396171    5.261114
     81          1           0       -5.521098    6.650797    2.320833
     82          1           0      -10.089417    2.582785   -3.060714
     83          1           0      -10.311452    4.311537   -2.861889
     84          1           0       -9.576334    4.178830   -5.191414
     85          1           0       -8.270734    5.051862   -4.451154
     86          1           0       -8.175503    3.308626   -4.676949
     87          1           0       -8.303168   -0.999956   -4.675212
     88          1           0       -8.247332   -2.653861   -4.184673
     89          1           0       -9.427751   -1.355353   -3.583801
     90          1           0       -4.416332   -4.000589   -1.332955
     91          1           0        2.703130   -6.143778    0.953667
     92          1           0        2.249795   -5.111681   -0.506180
     93          1           0        3.800669   -3.908133    1.981449
     94          1           0        2.682606   -3.008837   -1.609442
     95          1           0        4.011187   -2.063797   -1.577995
     96          1           0        4.159563   -4.167139   -2.023029
     97          1           0        5.165925   -1.265763    0.312863
     98          1           0        5.240250   -2.523399    1.649547
     99          1           0        6.805290   -4.010220   -0.049759
    100          1           0        6.566944   -2.393569   -0.948712
    101          1           0        7.253119   -1.062292    0.418855
    102          1           0        7.859891   -2.234538    1.525173
    103          1           0        9.068822   -1.864391   -1.247914
    104          1           0        9.075942   -4.583026   -0.005045
    105          1           0       10.683342   -3.650408   -0.483716
    106          1           0       10.084845   -3.493728    1.178093
    107          1           0        9.372282   -0.208239    0.016845
    108          1           0       10.109696   -0.858966    1.348956
    109          1           0       12.090800   -1.832909   -0.216177
    110          1           0       11.527602   -0.935021   -1.496135
    111          1           0       11.689437    1.140231   -0.099052
    112          1           0       12.207755    0.280862    1.288130
    113          1           0       13.568402    0.579861   -1.652259
    114          1           0       14.453865   -1.096304    0.912570
    115          1           0       14.221514   -1.707315   -0.560725
    116          1           0       15.367592   -0.680743   -0.457247
    117          1           0       13.363050    2.485033   -0.207730
    118          1           0       14.660501    1.496218    0.988402
    119          1           0       16.465315    1.449163   -0.816843
    120          1           0       15.309425    2.043325   -1.850259
    121          1           0       15.274304    4.570924   -1.024721
    122          1           0       16.210213    3.761282    0.491213
    123          1           0       18.125813    3.433599   -1.187008
    124          1           0       15.927044    4.457945   -3.158648
    125          1           0       17.959255    4.582216   -3.428907
    126          1           0       17.203682    2.895023   -3.404224
    127          1           0       17.794829    5.398448    0.251313
    128          1           0       18.611703    5.755146   -1.313678
    129          1           0       16.769268    6.110337   -1.064582
    130          1           0       -5.077498   -7.765088   -0.263858
    131          1           0       -6.554634   -7.071318    0.482224
    132          1           0       -4.677294   -7.217786    1.546354
    133          8           0       -7.791408    6.794173   -0.714198
    134          1           0       -9.342958    6.171712   -1.973100
 ---------------------------------------------------------------------

 SCF Done:  E(RCAM-B3LYP) =  -3043.39486782     A.U. after   15 cycles

 Excitation energies and oscillator strengths:

 Excited State   1:      Singlet-A      2.0453 eV  606.19 nm  f=0.2303  <S**2>=0.000
     243 -> 246        0.22080
     244 -> 245        0.66065
 This state for optimization and/or second-order correction.
 Total Energy, E(TD-HF/TD-KS) =  -3043.31970391
 Copying the excited state density for this state as the 1-particle RhoCI density.

 The electronic state is 1-A.
 Alpha  occ. eigenvalues --  -46.81800 -19.22954 -19.22465 -19.18984 -19.17761
 Alpha  occ. eigenvalues --  -19.16911 -19.16539 -19.15581 -14.38148 -14.37623
 Alpha  occ. eigenvalues --  -14.37410 -14.36547 -10.35522 -10.34035 -10.32025
 Alpha  occ. eigenvalues --  -10.30623 -10.30285 -10.30048 -10.29389 -10.27111
 Alpha  occ. eigenvalues --  -10.26986 -10.26727 -10.26682 -10.26582 -10.26280
 Alpha  occ. eigenvalues --  -10.25901 -10.25749 -10.25354 -10.24880 -10.24551
 Alpha  occ. eigenvalues --  -10.24330 -10.24285 -10.24233 -10.24125 -10.23766
 Alpha  occ. eigenvalues --  -10.23404 -10.23392 -10.23386 -10.23185 -10.23184
 Alpha  occ. eigenvalues --  -10.22984 -10.22934 -10.22724 -10.22471 -10.22417
 Alpha  occ. eigenvalues --  -10.22355 -10.22253 -10.22232 -10.22127 -10.22113
 Alpha  occ. eigenvalues --  -10.22066 -10.21970 -10.21897 -10.21802 -10.21691
 Alpha  occ. eigenvalues --  -10.21608 -10.21506 -10.21444 -10.21324 -10.21285
 Alpha  occ. eigenvalues --  -10.21243 -10.20519 -10.20199 -10.20032 -10.19662
 Alpha  occ. eigenvalues --  -10.17979  -3.10358  -1.85308  -1.84797  -1.84790
 Alpha  occ. eigenvalues --   -1.14652  -1.13495  -1.13220  -1.07535  -1.05554
 Alpha  occ. eigenvalues --   -1.04085  -1.02676  -1.02233  -1.01211  -1.00362
 Alpha  occ. eigenvalues --   -0.98525  -0.88065  -0.86398  -0.86107  -0.85399
 Alpha  occ. eigenvalues --   -0.85128  -0.84751  -0.83996  -0.83893  -0.83557
 Alpha  occ. eigenvalues --   -0.83192  -0.82989  -0.81820  -0.80676  -0.79979
 Alpha  occ. eigenvalues --   -0.79096  -0.77994  -0.77811  -0.76748  -0.75991
 Alpha  occ. eigenvalues --   -0.75232  -0.75050  -0.74106  -0.73448  -0.72424
 Alpha  occ. eigenvalues --   -0.71674  -0.71059  -0.69798  -0.69586  -0.69515
 Alpha  occ. eigenvalues --   -0.69264  -0.68994  -0.67178  -0.66629  -0.66254
 Alpha  occ. eigenvalues --   -0.66025  -0.65050  -0.64441  -0.62576  -0.61987
 Alpha  occ. eigenvalues --   -0.61149  -0.60860  -0.60302  -0.58704  -0.58579
 Alpha  occ. eigenvalues --   -0.58450  -0.57700  -0.57466  -0.57380  -0.56783
 Alpha  occ. eigenvalues --   -0.56455  -0.55898  -0.55297  -0.54937  -0.54468
 Alpha  occ. eigenvalues --   -0.54264  -0.53778  -0.52695  -0.52398  -0.52352
 Alpha  occ. eigenvalues --   -0.51781  -0.51684  -0.51500  -0.50983  -0.50822
 Alpha  occ. eigenvalues --   -0.50471  -0.50040  -0.50003  -0.49664  -0.49359
 Alpha  occ. eigenvalues --   -0.49316  -0.48796  -0.48369  -0.48064  -0.47840
 Alpha  occ. eigenvalues --   -0.47767  -0.47686  -0.47366  -0.47258  -0.47121
 Alpha  occ. eigenvalues --   -0.46772  -0.46431  -0.46361  -0.46011  -0.45874
 Alpha  occ. eigenvalues --   -0.45530  -0.45415  -0.45154  -0.45072  -0.44770
 Alpha  occ. eigenvalues --   -0.44578  -0.44194  -0.44183  -0.43971  -0.43776
 Alpha  occ. eigenvalues --   -0.43621  -0.43605  -0.43452  -0.43244  -0.43011
 Alpha  occ. eigenvalues --   -0.42850  -0.42697  -0.42132  -0.42050  -0.41931
 Alpha  occ. eigenvalues --   -0.41760  -0.41690  -0.41535  -0.41407  -0.41337
 Alpha  occ. eigenvalues --   -0.41172  -0.40668  -0.40244  -0.40157  -0.39972
 Alpha  occ. eigenvalues --   -0.39943  -0.39794  -0.39730  -0.39423  -0.39208
 Alpha  occ. eigenvalues --   -0.39044  -0.38688  -0.38444  -0.38219  -0.37824
 Alpha  occ. eigenvalues --   -0.37605  -0.37451  -0.37348  -0.36850  -0.36791
 Alpha  occ. eigenvalues --   -0.36569  -0.36230  -0.36038  -0.35880  -0.35474
 Alpha  occ. eigenvalues --   -0.35406  -0.35103  -0.34801  -0.34737  -0.34168
 Alpha  occ. eigenvalues --   -0.34062  -0.33731  -0.33470  -0.33394  -0.33194
 Alpha  occ. eigenvalues --   -0.32926  -0.32669  -0.32325  -0.32058  -0.31452
 Alpha  occ. eigenvalues --   -0.31296  -0.30867  -0.30032  -0.29897  -0.29346
 Alpha  occ. eigenvalues --   -0.28939  -0.28518  -0.28203  -0.28054  -0.27662
 Alpha  occ. eigenvalues --   -0.27161  -0.27121  -0.23039  -0.21420
 Alpha virt. eigenvalues --   -0.08448  -0.05667  -0.00895  -0.00135   0.01129
 Alpha virt. eigenvalues --    0.02953   0.03226   0.03595   0.03847   0.04181
 Alpha virt. eigenvalues --    0.05229   0.06054   0.08087   0.08597   0.09187

 Mulliken charges:
               1
     1  Mg   0.830068
     2  C    0.055967
     3  C   -0.185899
     4  C   -0.068856
     5  C   -0.163837
     6  N   -0.648169
     7  C    0.365414
     8  C   -0.160432
     9  C   -0.133243
    10  C    0.295350
    11  C   -0.313550
    12  C   -0.149291
    13  C   -0.255167
    14  C    0.600938
    15  O   -0.442808
    16  O   -0.461730
    17  N   -0.686192
    18  C    0.309662
    19  C    0.056404
    20  C   -0.014700
    21  C    0.259335
    22  C   -0.405422
    23  C    0.224618
    24  O   -0.435538
    25  N   -0.712238
    26  C    0.260431
    27  C    0.060900
    28  C   -0.002572
    29  C    0.301938
    30  C    0.206785
    31  C   -0.268114
    32  C   -0.303336
    33  N   -0.724188
    34  C    0.279498
    35  C    0.017350
    36  C   -0.068248
    37  C    0.338009
    38  C   -0.376153
    39  C    0.370797
    40  O   -0.356277
    41  C   -0.269462
    42  C    0.583833
    43  O   -0.495238
    44  O   -0.445501
    45  C   -0.073471
    46  C   -0.013603
    47  C   -0.127297
    48  C    0.144601
    49  C   -0.364073
    50  C   -0.221277
    51  C   -0.196239
    52  C   -0.157596
    53  C   -0.077326
    54  C   -0.300805
    55  C   -0.175682
    56  C   -0.189515
    57  C   -0.151065
    58  C   -0.059301
    59  C   -0.321654
    60  C   -0.154369
    61  C   -0.168535
    62  C   -0.136702
    63  C   -0.051668
    64  C   -0.283380
    65  C   -0.301697
    66  H    0.087445
    67  H    0.095647
    68  H    0.097589
    69  H    0.091044
    70  H    0.105762
    71  H    0.086935
    72  H    0.110908
    73  H    0.138488
    74  H    0.114452
    75  H    0.107488
    76  H    0.125323
    77  H    0.143246
    78  H    0.116559
    79  H    0.164001
    80  H    0.121485
    81  H    0.081108
    82  H    0.099209
    83  H    0.103652
    84  H    0.109840
    85  H    0.120123
    86  H    0.126629
    87  H    0.120558
    88  H    0.147744
    89  H    0.141936
    90  H    0.136517
    91  H    0.116604
    92  H    0.124503
    93  H    0.070789
    94  H    0.161742
    95  H    0.093888
    96  H    0.099181
    97  H    0.088298
    98  H    0.102286
    99  H    0.085101
   100  H    0.101787
   101  H    0.094642
   102  H    0.103559
   103  H    0.070952
   104  H    0.072265
   105  H    0.116307
   106  H    0.086994
   107  H    0.102156
   108  H    0.087813
   109  H    0.097378
   110  H    0.073907
   111  H    0.098215
   112  H    0.083544
   113  H    0.076873
   114  H    0.106026
   115  H    0.102865
   116  H    0.103649
   117  H    0.060532
   118  H    0.074917
   119  H    0.044913
   120  H    0.104186
   121  H    0.065268
   122  H    0.089886
   123  H    0.097460
   124  H    0.075945
   125  H    0.088601
   126  H    0.086219
   127  H    0.111001
   128  H    0.096054
   129  H    0.082498
   130  H    0.142481
   131  H    0.148383
   132  H    0.105094
   133  O   -0.410272
   134  H    0.031338
 Sum of Mulliken charges =   0.00000

 Dipole moment (field-independent basis, Debye):
    X=              2.1404    Y=             -6.8661    Z=             -1.8757  Tot=              7.4326
 Quadrupole moment (field-independent basis, Debye-Ang):
   XX=           -363.2958   YY=           -439.7817   ZZ=           -392.1581
   XY=             13.8411   XZ=             26.0585   YZ=            -25.3058

 Normal termination of Gaussian 09 at Fri Oct  4 23:10:48 2019.
