 Gaussian 09, Revision D.01,
 Gaussian 09:  ES64L-G09RevD.01 24-Apr-2013

 ----------------------------------------------------------------------
 # td=(NStates=1) iop(3/107=0140000000,3/108=0140000000) iop(3/107=0140
 000000,3/108=0140000000) CAM-B3LYP/6-31G(d,p)
 ----------------------------------------------------------------------

 --
 TD
 --
 Symbolic Z-matrix:
 Charge =  0 Multiplicity = 1

                         Standard orientation:
 ---------------------------------------------------------------------
 Center     Atomic      Atomic             Coordinates (Angstroms)
 Number     Number       Type             X           Y           Z
 ---------------------------------------------------------------------
      1         12           0       -5.714907    1.186719    0.264203
      2          6           0       -5.085776   -2.151598   -0.271966
      3          6           0       -3.511244    1.127943    2.789290
      4          6           0       -6.239288    4.505512    0.636543
      5          6           0       -8.090595    1.136012   -2.365990
      6          7           0       -4.350144   -0.305693    1.087695
      7          6           0       -4.340284   -1.557888    0.684214
      8          6           0       -3.278217   -2.340809    1.583190
      9          6           0       -2.960822   -1.364828    2.723817
     10          6           0       -3.620276   -0.086257    2.102048
     11          6           0       -3.652738   -1.716154    4.045503
     12          6           0       -2.112726   -2.670435    0.652716
     13          6           0       -0.940482   -3.313437    1.480908
     14          6           0        0.246562   -3.754319    0.696477
     15          8           0        0.330334   -3.445616   -0.461687
     16          8           0        1.139620   -4.541424    1.403656
     17          7           0       -4.898259    2.527478    1.481803
     18          6           0       -4.056164    2.409699    2.553556
     19          6           0       -3.724826    3.573739    3.248294
     20          6           0       -4.521079    4.589723    2.591439
     21          6           0       -5.252422    3.894137    1.486254
     22          6           0       -2.807308    3.832734    4.416183
     23          6           0       -4.521606    6.067527    2.706694
     24          8           0       -3.971283    6.613230    3.645439
     25          7           0       -6.940110    2.589173   -0.722691
     26          6           0       -6.897754    3.930450   -0.441708
     27          6           0       -7.902643    4.564045   -1.236088
     28          6           0       -8.549156    3.670393   -2.060381
     29          6           0       -7.803124    2.395310   -1.749004
     30          6           0       -8.362297    5.955078   -1.177347
     31          6           0       -9.650560    3.749697   -3.114911
     32          6           0       -8.848779    3.860593   -4.476329
     33          7           0       -6.449180   -0.148914   -1.113641
     34          6           0       -7.349358   -0.070484   -2.129238
     35          6           0       -7.506887   -1.395067   -2.675361
     36          6           0       -6.656575   -2.266252   -2.029330
     37          6           0       -5.993504   -1.358803   -1.031218
     38          6           0       -8.335148   -1.635306   -3.939743
     39          6           0       -6.101005   -3.448330   -2.073477
     40          8           0       -6.306259   -4.504935   -2.813606
     41          6           0       -5.062004   -3.505531   -0.957241
     42          6           0       -5.467561   -4.600765    0.099494
     43          8           0       -5.933621   -4.517381    1.145193
     44          8           0       -5.026685   -5.789164   -0.367574
     45          6           0       -5.382679   -6.910327    0.472894
     46          6           0        2.270316   -4.895835    0.595392
     47          6           0        3.410381   -3.916843    0.952484
     48          6           0        4.016696   -3.204084    0.127377
     49          6           0        3.879808   -3.172730   -1.493957
     50          6           0        5.135333   -2.345720    0.626690
     51          6           0        6.518138   -2.719225    0.027277
     52          6           0        7.687272   -1.766328    0.679931
     53          6           0        9.107248   -2.022448    0.095722
     54          6           0        9.550240   -3.384478    0.375287
     55          6           0       10.076674   -0.847101    0.632988
     56          6           0       11.420761   -0.857385   -0.203298
     57          6           0       12.268955    0.261086    0.160773
     58          6           0       13.540917    0.456516   -0.615392
     59          6           0       14.554023   -0.790814   -0.506174
     60          6           0       14.247772    1.796905   -0.186691
     61          6           0       15.494530    2.076029   -1.010087
     62          6           0       16.209385    3.475977   -0.602204
     63          6           0       17.444478    3.834204   -1.448807
     64          6           0       17.359827    3.981201   -2.890419
     65          6           0       18.031530    5.090303   -0.857675
     66          1           0       -2.647315    1.108155    3.733315
     67          1           0       -6.595280    5.451083    0.793697
     68          1           0       -8.758518    1.132799   -3.351842
     69          1           0       -3.767931   -3.314030    1.946954
     70          1           0       -1.906013   -1.201530    2.868128
     71          1           0       -3.143013   -2.777513    4.410116
     72          1           0       -3.438221   -0.862501    4.787144
     73          1           0       -4.865271   -1.764466    4.012805
     74          1           0       -2.385179   -3.073682   -0.292340
     75          1           0       -1.831362   -1.635513    0.401716
     76          1           0       -0.667475   -2.891370    2.565310
     77          1           0       -1.488702   -4.362227    1.761105
     78          1           0       -1.641382    3.745167    4.353977
     79          1           0       -3.140907    4.829406    4.874746
     80          1           0       -3.058747    2.946014    5.052078
     81          1           0       -5.270339    6.553713    2.096733
     82          1           0      -10.476990    2.947340   -2.927279
     83          1           0      -10.406724    4.665427   -3.092149
     84          1           0       -9.546862    3.683039   -5.200302
     85          1           0       -8.299124    4.798402   -4.589379
     86          1           0       -7.902597    3.172258   -4.659946
     87          1           0       -8.030863   -1.120543   -4.942848
     88          1           0       -8.530356   -2.982893   -4.331140
     89          1           0       -9.405483   -1.288268   -3.834361
     90          1           0       -4.052753   -3.825438   -1.391025
     91          1           0        2.509195   -5.899348    0.961499
     92          1           0        2.098883   -4.690910   -0.517435
     93          1           0        3.293878   -3.754175    2.219520
     94          1           0        2.878307   -3.632968   -1.947399
     95          1           0        4.159471   -2.277019   -1.965950
     96          1           0        4.526427   -3.784208   -2.041146
     97          1           0        4.933569   -1.179926    0.235776
     98          1           0        5.248245   -2.454849    1.676603
     99          1           0        6.818891   -3.726983    0.311680
    100          1           0        6.668487   -2.528480   -1.097622
    101          1           0        7.248552   -0.651577    0.553969
    102          1           0        7.726928   -2.002431    1.848379
    103          1           0        9.113962   -1.899784   -0.852889
    104          1           0        8.917525   -4.299689    0.076753
    105          1           0       10.553831   -3.382211   -0.141828
    106          1           0        9.509737   -3.687195    1.395454
    107          1           0        9.538514    0.074153    0.563033
    108          1           0       10.449124   -1.095312    1.625648
    109          1           0       11.845365   -1.717825    0.127859
    110          1           0       10.997459   -0.788971   -1.316999
    111          1           0       11.669557    1.121641    0.188843
    112          1           0       12.642521    0.255638    1.251909
    113          1           0       13.359116    0.665316   -1.712845
    114          1           0       15.177384   -0.690340    0.472827
    115          1           0       14.211160   -1.800408   -0.641856
    116          1           0       15.287920   -0.613885   -1.139174
    117          1           0       13.526689    2.595833   -0.201836
    118          1           0       14.438221    1.727133    0.759048
    119          1           0       16.241321    1.310996   -0.911476
    120          1           0       15.372666    1.987084   -2.106693
    121          1           0       15.227877    4.152331   -0.865007
    122          1           0       16.614659    3.397293    0.487853
    123          1           0       18.207248    3.129412   -1.082650
    124          1           0       16.771736    4.799676   -3.306416
    125          1           0       18.596641    3.999661   -3.320524
    126          1           0       16.762354    3.163333   -3.513360
    127          1           0       18.123141    5.141751    0.260979
    128          1           0       19.016918    5.431703   -1.335764
    129          1           0       17.531133    5.880149   -0.962150
    130          1           0       -5.210239   -7.835772   -0.029792
    131          1           0       -6.490993   -6.819371    0.915017
    132          1           0       -4.553180   -6.937967    1.352315
    133          8           0       -7.910491    6.863263   -0.530579
    134          1           0       -9.148732    6.095551   -1.985101
 ---------------------------------------------------------------------

 SCF Done:  E(RCAM-B3LYP) =  -3043.36193720     A.U. after   16 cycles

 Excitation energies and oscillator strengths:

 Excited State   1:      Singlet-A      1.9740 eV  628.10 nm  f=0.2103  <S**2>=0.000
     243 -> 246        0.23586
     244 -> 245        0.65822
 This state for optimization and/or second-order correction.
 Total Energy, E(TD-HF/TD-KS) =  -3043.28939542
 Copying the excited state density for this state as the 1-particle RhoCI density.

 The electronic state is 1-A.
 Alpha  occ. eigenvalues --  -46.83075 -19.22330 -19.21421 -19.17846 -19.17694
 Alpha  occ. eigenvalues --  -19.17337 -19.17298 -19.15031 -14.39262 -14.37776
 Alpha  occ. eigenvalues --  -14.37702 -14.37543 -10.34922 -10.34499 -10.30596
 Alpha  occ. eigenvalues --  -10.30321 -10.29373 -10.28166 -10.27737 -10.27548
 Alpha  occ. eigenvalues --  -10.27511 -10.27326 -10.27166 -10.27042 -10.26965
 Alpha  occ. eigenvalues --  -10.26895 -10.26681 -10.26524 -10.26387 -10.26116
 Alpha  occ. eigenvalues --  -10.26009 -10.25917 -10.25857 -10.25440 -10.25320
 Alpha  occ. eigenvalues --  -10.25164 -10.24497 -10.24427 -10.24183 -10.24040
 Alpha  occ. eigenvalues --  -10.24038 -10.23712 -10.23575 -10.23421 -10.23232
 Alpha  occ. eigenvalues --  -10.23138 -10.22913 -10.22754 -10.22697 -10.22668
 Alpha  occ. eigenvalues --  -10.22482 -10.22006 -10.21913 -10.21838 -10.21823
 Alpha  occ. eigenvalues --  -10.21800 -10.21528 -10.20516 -10.20477 -10.20411
 Alpha  occ. eigenvalues --  -10.20367 -10.20238 -10.19746 -10.19573 -10.19064
 Alpha  occ. eigenvalues --  -10.18560  -3.11548  -1.86489  -1.86062  -1.85913
 Alpha  occ. eigenvalues --   -1.15430  -1.13022  -1.08074  -1.06974  -1.06077
 Alpha  occ. eigenvalues --   -1.05498  -1.03895  -1.02640  -1.00908  -1.00374
 Alpha  occ. eigenvalues --   -0.99123  -0.89745  -0.86012  -0.85793  -0.85531
 Alpha  occ. eigenvalues --   -0.85464  -0.84934  -0.84629  -0.84264  -0.83489
 Alpha  occ. eigenvalues --   -0.83295  -0.82975  -0.81019  -0.80116  -0.79714
 Alpha  occ. eigenvalues --   -0.79331  -0.78164  -0.77844  -0.76566  -0.75665
 Alpha  occ. eigenvalues --   -0.75094  -0.74780  -0.73234  -0.72516  -0.71966
 Alpha  occ. eigenvalues --   -0.71367  -0.71274  -0.71139  -0.69998  -0.69816
 Alpha  occ. eigenvalues --   -0.69336  -0.68344  -0.67724  -0.67121  -0.66728
 Alpha  occ. eigenvalues --   -0.66437  -0.65201  -0.64797  -0.62790  -0.62413
 Alpha  occ. eigenvalues --   -0.62007  -0.61098  -0.60400  -0.59655  -0.58871
 Alpha  occ. eigenvalues --   -0.58686  -0.58238  -0.57995  -0.57888  -0.57704
 Alpha  occ. eigenvalues --   -0.56895  -0.56173  -0.55546  -0.54824  -0.54608
 Alpha  occ. eigenvalues --   -0.54083  -0.53345  -0.52695  -0.52551  -0.52165
 Alpha  occ. eigenvalues --   -0.51874  -0.51473  -0.51373  -0.50996  -0.50685
 Alpha  occ. eigenvalues --   -0.50247  -0.49754  -0.49668  -0.49135  -0.48972
 Alpha  occ. eigenvalues --   -0.48742  -0.48591  -0.48235  -0.48006  -0.47780
 Alpha  occ. eigenvalues --   -0.47653  -0.47424  -0.47202  -0.46806  -0.46735
 Alpha  occ. eigenvalues --   -0.46481  -0.46346  -0.46213  -0.45972  -0.45735
 Alpha  occ. eigenvalues --   -0.45445  -0.45078  -0.44861  -0.44788  -0.44614
 Alpha  occ. eigenvalues --   -0.44434  -0.44258  -0.43831  -0.43734  -0.43671
 Alpha  occ. eigenvalues --   -0.43445  -0.43037  -0.42991  -0.42939  -0.42758
 Alpha  occ. eigenvalues --   -0.42690  -0.42512  -0.42214  -0.42040  -0.41957
 Alpha  occ. eigenvalues --   -0.41709  -0.41557  -0.41387  -0.40988  -0.40837
 Alpha  occ. eigenvalues --   -0.40730  -0.40657  -0.40532  -0.40178  -0.39960
 Alpha  occ. eigenvalues --   -0.39639  -0.39468  -0.39317  -0.39104  -0.39038
 Alpha  occ. eigenvalues --   -0.38868  -0.38357  -0.38316  -0.38253  -0.37848
 Alpha  occ. eigenvalues --   -0.37765  -0.37619  -0.37546  -0.37241  -0.37116
 Alpha  occ. eigenvalues --   -0.36669  -0.36487  -0.36308  -0.35776  -0.35521
 Alpha  occ. eigenvalues --   -0.35150  -0.35122  -0.35002  -0.34871  -0.34834
 Alpha  occ. eigenvalues --   -0.34300  -0.33963  -0.33945  -0.33175  -0.32889
 Alpha  occ. eigenvalues --   -0.32747  -0.32722  -0.32226  -0.31819  -0.31692
 Alpha  occ. eigenvalues --   -0.31255  -0.31210  -0.30454  -0.30369  -0.29622
 Alpha  occ. eigenvalues --   -0.29331  -0.28679  -0.28425  -0.28240  -0.28073
 Alpha  occ. eigenvalues --   -0.27921  -0.26645  -0.23368  -0.22104
 Alpha virt. eigenvalues --   -0.09543  -0.06798  -0.02537  -0.01129   0.00348
 Alpha virt. eigenvalues --    0.02176   0.03362   0.04047   0.04590   0.05207
 Alpha virt. eigenvalues --    0.05368   0.05783   0.07369   0.07817   0.08173

 Mulliken charges:
               1
     1  Mg   0.835332
     2  C    0.120205
     3  C   -0.218737
     4  C   -0.163089
     5  C   -0.174472
     6  N   -0.603338
     7  C    0.287414
     8  C   -0.169731
     9  C   -0.118835
    10  C    0.333132
    11  C   -0.284792
    12  C   -0.153782
    13  C   -0.276799
    14  C    0.629404
    15  O   -0.453629
    16  O   -0.475336
    17  N   -0.714440
    18  C    0.330212
    19  C    0.077954
    20  C   -0.061977
    21  C    0.285148
    22  C   -0.381026
    23  C    0.248401
    24  O   -0.411584
    25  N   -0.670639
    26  C    0.320941
    27  C   -0.061097
    28  C    0.054132
    29  C    0.274696
    30  C    0.257909
    31  C   -0.262185
    32  C   -0.316437
    33  N   -0.726826
    34  C    0.276947
    35  C    0.020014
    36  C    0.174984
    37  C    0.293878
    38  C   -0.372842
    39  C    0.257038
    40  O   -0.519281
    41  C   -0.345794
    42  C    0.621615
    43  O   -0.420510
    44  O   -0.441152
    45  C   -0.081679
    46  C   -0.012909
    47  C   -0.153861
    48  C    0.188582
    49  C   -0.385743
    50  C   -0.212084
    51  C   -0.179808
    52  C   -0.176227
    53  C   -0.031012
    54  C   -0.314445
    55  C   -0.194404
    56  C   -0.171360
    57  C   -0.158696
    58  C   -0.060806
    59  C   -0.326127
    60  C   -0.163708
    61  C   -0.201489
    62  C   -0.163930
    63  C   -0.032718
    64  C   -0.288295
    65  C   -0.305007
    66  H    0.060600
    67  H    0.117622
    68  H    0.101933
    69  H    0.110004
    70  H    0.111741
    71  H    0.092461
    72  H    0.106584
    73  H    0.113880
    74  H    0.126901
    75  H    0.109497
    76  H    0.127468
    77  H    0.115870
    78  H    0.126532
    79  H    0.162351
    80  H    0.114032
    81  H    0.095099
    82  H    0.121605
    83  H    0.113963
    84  H    0.125761
    85  H    0.131779
    86  H    0.107297
    87  H    0.129704
    88  H    0.094796
    89  H    0.121602
    90  H    0.164590
    91  H    0.113321
    92  H    0.136204
    93  H    0.068365
    94  H    0.114518
    95  H    0.122434
    96  H    0.130881
    97  H    0.067553
    98  H    0.103904
    99  H    0.101075
   100  H    0.087122
   101  H    0.063503
   102  H    0.067199
   103  H    0.092448
   104  H    0.090663
   105  H    0.096964
   106  H    0.105775
   107  H    0.095525
   108  H    0.093371
   109  H    0.110625
   110  H    0.073037
   111  H    0.088630
   112  H    0.071243
   113  H    0.072876
   114  H    0.080018
   115  H    0.106404
   116  H    0.119561
   117  H    0.086478
   118  H    0.100770
   119  H    0.092697
   120  H    0.086657
   121  H    0.068769
   122  H    0.086862
   123  H    0.098884
   124  H    0.113551
   125  H    0.066803
   126  H    0.081331
   127  H    0.082279
   128  H    0.077947
   129  H    0.118096
   130  H    0.134593
   131  H    0.128276
   132  H    0.091806
   133  O   -0.419012
   134  H    0.051022
 Sum of Mulliken charges =   0.00000

 Dipole moment (field-independent basis, Debye):
    X=              0.7713    Y=             -2.2124    Z=             -0.6874  Tot=              2.4418
 Quadrupole moment (field-independent basis, Debye-Ang):
   XX=           -365.4047   YY=           -448.1649   ZZ=           -393.8189
   XY=             -6.9456   XZ=             19.4702   YZ=            -38.2398

 Normal termination of Gaussian 09 at Fri Oct  4 21:51:57 2019.
