 Gaussian 09, Revision D.01,
 Gaussian 09:  ES64L-G09RevD.01 24-Apr-2013

 ----------------------------------------------------------------------
 # td=(NStates=1) iop(3/107=0140000000,3/108=0140000000) iop(3/107=0140
 000000,3/108=0140000000) CAM-B3LYP/6-31G(d,p)
 ----------------------------------------------------------------------

 --
 TD
 --
 Symbolic Z-matrix:
 Charge =  0 Multiplicity = 1

                         Standard orientation:
 ---------------------------------------------------------------------
 Center     Atomic      Atomic             Coordinates (Angstroms)
 Number     Number       Type             X           Y           Z
 ---------------------------------------------------------------------
      1         12           0       -5.706656    1.055109    0.333366
      2          6           0       -4.926116   -2.111487   -0.364951
      3          6           0       -3.480890    1.077542    2.875011
      4          6           0       -6.194243    4.553572    0.715357
      5          6           0       -7.838988    1.230998   -2.442042
      6          7           0       -4.313984   -0.311346    1.086848
      7          6           0       -4.207160   -1.614488    0.702862
      8          6           0       -3.165264   -2.477558    1.549603
      9          6           0       -2.868344   -1.456717    2.611633
     10          6           0       -3.511083   -0.104827    2.156606
     11          6           0       -3.566303   -1.860265    3.985520
     12          6           0       -1.926893   -2.655324    0.699291
     13          6           0       -0.944308   -3.656457    1.480229
     14          6           0        0.207442   -4.011447    0.577726
     15          8           0        0.335879   -3.619149   -0.594866
     16          8           0        1.127218   -4.777511    1.194205
     17          7           0       -4.915496    2.649605    1.452433
     18          6           0       -3.975713    2.339519    2.468541
     19          6           0       -3.764058    3.586704    3.295873
     20          6           0       -4.507455    4.578694    2.516284
     21          6           0       -5.224344    3.876027    1.516521
     22          6           0       -2.799736    3.691181    4.447348
     23          6           0       -4.623761    6.024282    2.965041
     24          8           0       -3.877515    6.603550    3.833020
     25          7           0       -6.859788    2.577329   -0.679725
     26          6           0       -6.984512    3.998145   -0.263309
     27          6           0       -7.896093    4.651373   -1.193816
     28          6           0       -8.364674    3.700929   -2.061219
     29          6           0       -7.644319    2.384012   -1.765790
     30          6           0       -8.228713    6.044259   -1.150259
     31          6           0       -9.298252    3.928247   -3.233063
     32          6           0       -8.596780    4.219600   -4.636063
     33          7           0       -6.284875   -0.183969   -1.093419
     34          6           0       -7.286454   -0.017521   -2.072045
     35          6           0       -7.543416   -1.244771   -2.704679
     36          6           0       -6.640464   -2.156511   -2.060325
     37          6           0       -5.913259   -1.358942   -1.083708
     38          6           0       -8.579383   -1.575813   -3.718807
     39          6           0       -6.264212   -3.468906   -2.040891
     40          8           0       -6.536484   -4.505157   -2.605734
     41          6           0       -5.058633   -3.491360   -0.881185
     42          6           0       -5.328337   -4.582150    0.121348
     43          8           0       -5.690253   -4.360354    1.295430
     44          8           0       -5.058888   -5.758542   -0.473037
     45          6           0       -5.272135   -6.900624    0.432989
     46          6           0        2.344732   -5.083003    0.550317
     47          6           0        3.426531   -4.119396    0.927799
     48          6           0        4.139482   -3.291790    0.079018
     49          6           0        3.791678   -3.224558   -1.469109
     50          6           0        5.152789   -2.366366    0.574754
     51          6           0        6.519046   -2.760501    0.036090
     52          6           0        7.518202   -1.840148    0.558924
     53          6           0        8.935138   -1.933493   -0.168110
     54          6           0        9.561845   -3.410313    0.027009
     55          6           0        9.932020   -0.712996    0.341705
     56          6           0       11.280162   -0.734759   -0.396189
     57          6           0       12.147648    0.318088    0.176065
     58          6           0       13.580002    0.454594   -0.484574
     59          6           0       14.390744   -0.832114   -0.251661
     60          6           0       14.148299    1.801550   -0.127484
     61          6           0       15.486632    2.112500   -0.899674
     62          6           0       15.932945    3.459913   -0.481892
     63          6           0       17.114014    3.909316   -1.315504
     64          6           0       16.894490    4.113018   -2.836889
     65          6           0       17.817277    5.258937   -0.810564
     66          1           0       -2.935165    1.096606    3.622270
     67          1           0       -6.467748    5.576788    0.855762
     68          1           0       -8.646348    1.500656   -3.251528
     69          1           0       -3.733046   -3.387094    1.592851
     70          1           0       -1.929667   -1.252842    2.779342
     71          1           0       -2.897175   -2.729179    4.327274
     72          1           0       -3.627228   -0.909174    4.607158
     73          1           0       -4.603034   -2.131098    3.976422
     74          1           0       -2.377994   -3.230064   -0.234628
     75          1           0       -1.496481   -1.825587    0.348784
     76          1           0       -0.593822   -3.257892    2.434145
     77          1           0       -1.501786   -4.634644    1.721839
     78          1           0       -1.786055    3.344378    4.173777
     79          1           0       -2.734174    4.769261    4.966064
     80          1           0       -3.114174    3.179065    5.201473
     81          1           0       -5.214240    6.701087    2.456255
     82          1           0       -9.934443    2.964709   -3.522700
     83          1           0       -9.849114    4.878718   -3.086024
     84          1           0       -9.278068    4.509707   -5.322564
     85          1           0       -7.826512    4.968563   -4.560182
     86          1           0       -8.107170    3.349213   -5.202972
     87          1           0       -8.115775   -1.189846   -4.742705
     88          1           0       -8.722084   -2.713030   -3.798035
     89          1           0       -9.618111   -0.730237   -3.413801
     90          1           0       -4.198809   -3.856050   -1.546540
     91          1           0        2.387404   -6.161558    1.099800
     92          1           0        2.151175   -5.167209   -0.434102
     93          1           0        3.325127   -3.955888    2.074639
     94          1           0        2.596243   -3.202583   -1.457001
     95          1           0        4.028553   -2.305998   -1.839731
     96          1           0        4.320100   -4.111545   -2.022130
     97          1           0        4.930753   -1.420190    0.175378
     98          1           0        5.326261   -2.406194    1.666354
     99          1           0        6.697507   -3.885486    0.374251
    100          1           0        6.602514   -2.586458   -0.962849
    101          1           0        7.132237   -0.783493    0.493931
    102          1           0        7.723378   -1.798940    1.645109
    103          1           0        8.654685   -1.997142   -1.294922
    104          1           0        8.914597   -4.293639   -0.274792
    105          1           0       10.552501   -3.333937   -0.370966
    106          1           0        9.663933   -3.468288    1.200442
    107          1           0        9.349587    0.240327    0.138455
    108          1           0       10.063866   -1.016186    1.454404
    109          1           0       11.736977   -1.843246   -0.263774
    110          1           0       11.169440   -0.613757   -1.499592
    111          1           0       11.773105    1.351445    0.036003
    112          1           0       12.338220    0.103668    1.293189
    113          1           0       13.314685    0.697896   -1.398515
    114          1           0       14.524730   -1.034934    0.824170
    115          1           0       13.796086   -1.803312   -0.684727
    116          1           0       15.199784   -0.791866   -0.794523
    117          1           0       13.510368    2.629011   -0.213551
    118          1           0       14.309814    1.881343    0.912793
    119          1           0       16.458274    1.442856   -0.832824
    120          1           0       15.248275    2.220681   -1.993647
    121          1           0       14.996807    4.260112   -0.514989
    122          1           0       16.133816    3.357246    0.559487
    123          1           0       18.158438    3.281806   -1.160188
    124          1           0       16.088859    5.037941   -2.993678
    125          1           0       17.738306    4.576282   -3.444077
    126          1           0       16.611940    3.258005   -3.303772
    127          1           0       17.860835    5.168278    0.215569
    128          1           0       18.728157    5.446725   -1.248936
    129          1           0       17.228724    6.166083   -0.910178
    130          1           0       -4.918833   -7.885994   -0.044329
    131          1           0       -6.488382   -7.108689    0.618611
    132          1           0       -4.991461   -6.713607    1.424720
    133          8           0       -7.639476    6.913816   -0.527189
    134          1           0       -9.205083    6.272186   -1.823202
 ---------------------------------------------------------------------

 SCF Done:  E(RCAM-B3LYP) =  -3043.41142979     A.U. after   16 cycles

 Excitation energies and oscillator strengths:

 Excited State   1:      Singlet-A      1.8973 eV  653.47 nm  f=0.2565  <S**2>=0.000
     243 -> 246       -0.17678
     244 -> 245        0.67864
 This state for optimization and/or second-order correction.
 Total Energy, E(TD-HF/TD-KS) =  -3043.34170429
 Copying the excited state density for this state as the 1-particle RhoCI density.

 The electronic state is 1-A.
 Alpha  occ. eigenvalues --  -46.82599 -19.23926 -19.21767 -19.18475 -19.17275
 Alpha  occ. eigenvalues --  -19.16752 -19.16428 -19.16119 -14.39420 -14.37160
 Alpha  occ. eigenvalues --  -14.37038 -14.36973 -10.35227 -10.34924 -10.31876
 Alpha  occ. eigenvalues --  -10.30350 -10.29682 -10.28895 -10.27785 -10.27531
 Alpha  occ. eigenvalues --  -10.27318 -10.26947 -10.26933 -10.26824 -10.26691
 Alpha  occ. eigenvalues --  -10.26388 -10.26217 -10.26143 -10.25973 -10.25580
 Alpha  occ. eigenvalues --  -10.25536 -10.25413 -10.25175 -10.24858 -10.23758
 Alpha  occ. eigenvalues --  -10.23738 -10.23728 -10.23659 -10.23540 -10.23484
 Alpha  occ. eigenvalues --  -10.23436 -10.23201 -10.23186 -10.23077 -10.22966
 Alpha  occ. eigenvalues --  -10.22924 -10.22909 -10.22184 -10.22183 -10.22087
 Alpha  occ. eigenvalues --  -10.21898 -10.21874 -10.21774 -10.21601 -10.21472
 Alpha  occ. eigenvalues --  -10.21416 -10.21229 -10.21057 -10.20874 -10.20796
 Alpha  occ. eigenvalues --  -10.20683 -10.20594 -10.20318 -10.19905 -10.19767
 Alpha  occ. eigenvalues --  -10.18236  -3.11091  -1.86019  -1.85533  -1.85526
 Alpha  occ. eigenvalues --   -1.13242  -1.13062  -1.07725  -1.06578  -1.03955
 Alpha  occ. eigenvalues --   -1.03588  -1.03094  -1.02369  -1.01068  -1.00255
 Alpha  occ. eigenvalues --   -0.97432  -0.88268  -0.86531  -0.86344  -0.85764
 Alpha  occ. eigenvalues --   -0.85689  -0.85162  -0.84525  -0.84060  -0.83620
 Alpha  occ. eigenvalues --   -0.82681  -0.82019  -0.81311  -0.80272  -0.79654
 Alpha  occ. eigenvalues --   -0.79321  -0.78259  -0.77550  -0.77215  -0.76694
 Alpha  occ. eigenvalues --   -0.75501  -0.75132  -0.73776  -0.72872  -0.71810
 Alpha  occ. eigenvalues --   -0.71655  -0.70879  -0.70788  -0.70393  -0.69781
 Alpha  occ. eigenvalues --   -0.69191  -0.68870  -0.67668  -0.66776  -0.66180
 Alpha  occ. eigenvalues --   -0.65673  -0.64974  -0.64529  -0.63451  -0.62576
 Alpha  occ. eigenvalues --   -0.62201  -0.61358  -0.60646  -0.59481  -0.59269
 Alpha  occ. eigenvalues --   -0.59171  -0.58059  -0.57847  -0.57500  -0.57168
 Alpha  occ. eigenvalues --   -0.56812  -0.55971  -0.55858  -0.55680  -0.54548
 Alpha  occ. eigenvalues --   -0.53828  -0.53075  -0.52864  -0.52554  -0.51892
 Alpha  occ. eigenvalues --   -0.51664  -0.51423  -0.51013  -0.50857  -0.50818
 Alpha  occ. eigenvalues --   -0.50263  -0.49817  -0.49571  -0.49252  -0.48833
 Alpha  occ. eigenvalues --   -0.48597  -0.48391  -0.48037  -0.47827  -0.47796
 Alpha  occ. eigenvalues --   -0.47684  -0.47446  -0.47357  -0.47207  -0.47046
 Alpha  occ. eigenvalues --   -0.46533  -0.46337  -0.46169  -0.45912  -0.45647
 Alpha  occ. eigenvalues --   -0.45494  -0.45266  -0.45050  -0.44778  -0.44658
 Alpha  occ. eigenvalues --   -0.44525  -0.44436  -0.44402  -0.44138  -0.44062
 Alpha  occ. eigenvalues --   -0.43574  -0.43459  -0.43041  -0.42960  -0.42804
 Alpha  occ. eigenvalues --   -0.42592  -0.42503  -0.42244  -0.42173  -0.41909
 Alpha  occ. eigenvalues --   -0.41688  -0.41450  -0.41271  -0.41126  -0.40874
 Alpha  occ. eigenvalues --   -0.40830  -0.40417  -0.40331  -0.40231  -0.40014
 Alpha  occ. eigenvalues --   -0.39885  -0.39779  -0.39676  -0.39442  -0.39310
 Alpha  occ. eigenvalues --   -0.39110  -0.38877  -0.38756  -0.38604  -0.38525
 Alpha  occ. eigenvalues --   -0.38424  -0.38180  -0.37774  -0.37263  -0.37237
 Alpha  occ. eigenvalues --   -0.36964  -0.36581  -0.36510  -0.35919  -0.35873
 Alpha  occ. eigenvalues --   -0.35377  -0.34755  -0.34658  -0.34586  -0.34266
 Alpha  occ. eigenvalues --   -0.34210  -0.33589  -0.33547  -0.33334  -0.33086
 Alpha  occ. eigenvalues --   -0.32581  -0.32239  -0.32118  -0.31986  -0.31874
 Alpha  occ. eigenvalues --   -0.31565  -0.30984  -0.30182  -0.29946  -0.29933
 Alpha  occ. eigenvalues --   -0.29022  -0.28822  -0.28171  -0.27469  -0.26855
 Alpha  occ. eigenvalues --   -0.26771  -0.26161  -0.23346  -0.21509
 Alpha virt. eigenvalues --   -0.09585  -0.06254  -0.01847  -0.01085   0.00497
 Alpha virt. eigenvalues --    0.01570   0.02471   0.02658   0.03706   0.04618
 Alpha virt. eigenvalues --    0.04808   0.05882   0.06568   0.07899   0.08436

 Mulliken charges:
               1
     1  Mg   0.842432
     2  C    0.121806
     3  C   -0.125856
     4  C   -0.157864
     5  C   -0.138516
     6  N   -0.629362
     7  C    0.279080
     8  C   -0.117029
     9  C   -0.119713
    10  C    0.305654
    11  C   -0.308979
    12  C   -0.154233
    13  C   -0.273683
    14  C    0.600239
    15  O   -0.485065
    16  O   -0.453605
    17  N   -0.696393
    18  C    0.243350
    19  C    0.038877
    20  C   -0.077246
    21  C    0.384990
    22  C   -0.386193
    23  C    0.240775
    24  O   -0.445530
    25  N   -0.693527
    26  C    0.243505
    27  C    0.035770
    28  C    0.023638
    29  C    0.336513
    30  C    0.240410
    31  C   -0.266390
    32  C   -0.323906
    33  N   -0.760673
    34  C    0.219571
    35  C    0.093368
    36  C    0.043353
    37  C    0.358808
    38  C   -0.358005
    39  C    0.289724
    40  O   -0.462703
    41  C   -0.383230
    42  C    0.642315
    43  O   -0.508212
    44  O   -0.422312
    45  C   -0.099348
    46  C    0.014956
    47  C   -0.126428
    48  C    0.102607
    49  C   -0.373829
    50  C   -0.221200
    51  C   -0.155490
    52  C   -0.171878
    53  C   -0.079809
    54  C   -0.312427
    55  C   -0.168635
    56  C   -0.162380
    57  C   -0.173018
    58  C   -0.042437
    59  C   -0.298725
    60  C   -0.200069
    61  C   -0.174204
    62  C   -0.151251
    63  C   -0.053329
    64  C   -0.295442
    65  C   -0.322867
    66  H    0.048568
    67  H    0.123657
    68  H    0.087981
    69  H    0.132435
    70  H    0.104725
    71  H    0.104797
    72  H    0.097169
    73  H    0.139548
    74  H    0.099904
    75  H    0.126265
    76  H    0.137090
    77  H    0.134447
    78  H    0.126636
    79  H    0.149988
    80  H    0.137992
    81  H    0.098090
    82  H    0.106035
    83  H    0.120956
    84  H    0.128647
    85  H    0.122492
    86  H    0.100707
    87  H    0.129119
    88  H    0.155690
    89  H    0.080846
    90  H    0.154352
    91  H    0.093312
    92  H    0.124307
    93  H    0.075888
    94  H    0.146277
    95  H    0.119466
    96  H    0.116791
    97  H    0.104745
    98  H    0.102126
    99  H    0.087774
   100  H    0.105802
   101  H    0.074833
   102  H    0.080890
   103  H    0.065258
   104  H    0.107194
   105  H    0.109618
   106  H    0.076895
   107  H    0.097401
   108  H    0.092830
   109  H    0.077787
   110  H    0.092982
   111  H    0.080274
   112  H    0.073653
   113  H    0.094141
   114  H    0.104848
   115  H    0.076062
   116  H    0.116167
   117  H    0.098395
   118  H    0.087651
   119  H    0.086136
   120  H    0.090735
   121  H    0.062517
   122  H    0.103469
   123  H    0.064650
   124  H    0.070546
   125  H    0.098532
   126  H    0.112021
   127  H    0.100039
   128  H    0.107889
   129  H    0.090615
   130  H    0.131285
   131  H    0.101411
   132  H    0.150962
   133  O   -0.417549
   134  H    0.044491
 Sum of Mulliken charges =   0.00000

 Dipole moment (field-independent basis, Debye):
    X=              0.7872    Y=             -3.7624    Z=             -0.7266  Tot=              3.9120
 Quadrupole moment (field-independent basis, Debye-Ang):
   XX=           -360.5599   YY=           -447.3591   ZZ=           -391.9895
   XY=              4.0300   XZ=             17.8084   YZ=            -37.5763

 Normal termination of Gaussian 09 at Sat Oct  5 12:31:12 2019.
