 Gaussian 09, Revision D.01,
 Gaussian 09:  ES64L-G09RevD.01 24-Apr-2013

 ----------------------------------------------------------------------
 # td=(NStates=1) iop(3/107=0140000000,3/108=0140000000) iop(3/107=0140
 000000,3/108=0140000000) CAM-B3LYP/6-31G(d,p)
 ----------------------------------------------------------------------

 --
 TD
 --
 Symbolic Z-matrix:
 Charge =  0 Multiplicity = 1

                         Standard orientation:
 ---------------------------------------------------------------------
 Center     Atomic      Atomic             Coordinates (Angstroms)
 Number     Number       Type             X           Y           Z
 ---------------------------------------------------------------------
      1         12           0       -5.670963    1.242501    0.150147
      2          6           0       -5.135124   -2.186783   -0.307659
      3          6           0       -3.403226    1.163356    2.813981
      4          6           0       -6.090588    4.564142    0.649607
      5          6           0       -7.990727    1.223635   -2.274610
      6          7           0       -4.471281   -0.361265    1.152274
      7          6           0       -4.379885   -1.626921    0.798512
      8          6           0       -3.193157   -2.357899    1.487314
      9          6           0       -2.938135   -1.322922    2.599675
     10          6           0       -3.760562   -0.079909    2.272588
     11          6           0       -3.330102   -1.717465    4.093121
     12          6           0       -1.886043   -2.681093    0.565203
     13          6           0       -1.030094   -3.658235    1.419319
     14          6           0        0.190977   -3.883234    0.547535
     15          8           0        0.493159   -3.413521   -0.535498
     16          8           0        1.125609   -4.708833    1.266199
     17          7           0       -4.869125    2.625195    1.438683
     18          6           0       -3.884269    2.402036    2.453805
     19          6           0       -3.571792    3.719121    3.181718
     20          6           0       -4.326893    4.619932    2.537888
     21          6           0       -5.160366    3.953377    1.409030
     22          6           0       -2.598306    3.912258    4.290765
     23          6           0       -4.475825    6.098742    2.868654
     24          8           0       -3.791149    6.580143    3.752615
     25          7           0       -6.805357    2.626342   -0.774392
     26          6           0       -6.749066    3.964677   -0.384751
     27          6           0       -7.775605    4.582267   -1.202118
     28          6           0       -8.482557    3.611179   -2.035874
     29          6           0       -7.751428    2.434174   -1.673468
     30          6           0       -8.229001    5.962877   -1.197908
     31          6           0       -9.595757    3.883861   -3.077286
     32          6           0       -9.009130    4.147086   -4.431767
     33          7           0       -6.413687   -0.125656   -1.163620
     34          6           0       -7.340182    0.017428   -2.157148
     35          6           0       -7.561329   -1.311553   -2.748936
     36          6           0       -6.711609   -2.209841   -2.046139
     37          6           0       -6.012104   -1.413693   -1.069932
     38          6           0       -8.511840   -1.637328   -3.771113
     39          6           0       -6.313030   -3.565300   -2.060255
     40          8           0       -6.722830   -4.579476   -2.626051
     41          6           0       -5.197328   -3.641365   -0.847522
     42          6           0       -5.456986   -4.658973    0.169405
     43          8           0       -5.856866   -4.489129    1.338104
     44          8           0       -5.182759   -5.823775   -0.334739
     45          6           0       -5.527133   -6.991694    0.566271
     46          6           0        2.308285   -5.039451    0.516321
     47          6           0        3.375810   -3.989674    0.963424
     48          6           0        3.989026   -3.136428    0.135852
     49          6           0        3.669594   -3.141705   -1.380579
     50          6           0        5.065337   -2.268925    0.618412
     51          6           0        6.494883   -2.565760    0.026038
     52          6           0        7.624798   -1.695915    0.635600
     53          6           0        8.984542   -1.985379   -0.034309
     54          6           0        9.528882   -3.476622    0.139126
     55          6           0       10.027520   -0.903767    0.477405
     56          6           0       11.402526   -0.965260   -0.264923
     57          6           0       12.266460    0.209167    0.254667
     58          6           0       13.605424    0.338088   -0.581991
     59          6           0       14.528716   -0.707385   -0.241069
     60          6           0       14.254394    1.701485   -0.265009
     61          6           0       15.519508    2.083823   -1.129860
     62          6           0       16.038288    3.451922   -0.618112
     63          6           0       17.353925    3.824517   -1.383869
     64          6           0       17.172557    3.964254   -2.883914
     65          6           0       17.917157    5.122339   -0.786947
     66          1           0       -2.667170    1.108708    3.783052
     67          1           0       -6.271429    5.611322    0.714209
     68          1           0       -8.801825    1.352949   -3.003756
     69          1           0       -3.424442   -3.292848    1.791024
     70          1           0       -1.878444   -0.907034    2.542316
     71          1           0       -2.997093   -2.608780    4.322251
     72          1           0       -3.376563   -1.129802    4.862141
     73          1           0       -4.269439   -2.123192    3.992758
     74          1           0       -2.323863   -3.322610   -0.269546
     75          1           0       -1.391763   -1.873820    0.208185
     76          1           0       -0.984163   -3.321860    2.407251
     77          1           0       -1.534766   -4.647115    1.508402
     78          1           0       -1.471399    3.764009    3.947125
     79          1           0       -2.755317    5.092463    4.611916
     80          1           0       -2.747100    3.211162    4.981909
     81          1           0       -5.398102    6.794003    2.493105
     82          1           0      -10.201134    2.956966   -3.100332
     83          1           0      -10.185859    4.885156   -2.795777
     84          1           0       -9.947886    4.181429   -5.038003
     85          1           0       -8.577525    5.191918   -4.512741
     86          1           0       -8.370633    3.469585   -4.845074
     87          1           0       -8.291608   -1.147088   -4.821867
     88          1           0       -8.664768   -2.691102   -3.932827
     89          1           0       -9.507660   -1.137804   -3.550102
     90          1           0       -4.214511   -3.736992   -1.259620
     91          1           0        2.705963   -5.885489    1.027464
     92          1           0        2.331365   -5.175951   -0.626883
     93          1           0        3.694232   -4.242358    1.974347
     94          1           0        2.614899   -3.082917   -1.582665
     95          1           0        4.208637   -2.349931   -1.982496
     96          1           0        4.069672   -3.880753   -2.067999
     97          1           0        5.063248   -1.074397    0.566813
     98          1           0        5.006211   -2.247094    1.759684
     99          1           0        6.908310   -3.614295    0.196907
    100          1           0        6.277570   -2.403575   -1.076596
    101          1           0        7.560678   -0.702460    0.415589
    102          1           0        7.792039   -1.927564    1.752315
    103          1           0        8.990648   -1.862822   -1.139694
    104          1           0        8.598129   -3.960227   -0.088700
    105          1           0       10.278208   -3.650916   -0.495123
    106          1           0        9.750397   -3.599105    1.270241
    107          1           0        9.579285    0.210764    0.333081
    108          1           0       10.036283   -1.113980    1.584348
    109          1           0       11.895960   -1.916152   -0.028253
    110          1           0       11.108046   -1.007512   -1.415701
    111          1           0       11.565055    1.041790    0.114812
    112          1           0       12.560283    0.206529    1.403465
    113          1           0       13.377066    0.505508   -1.827436
    114          1           0       14.889590   -0.659618    0.806958
    115          1           0       14.113536   -1.732778   -0.569611
    116          1           0       15.400780   -0.672858   -0.936874
    117          1           0       13.606893    2.706274   -0.166823
    118          1           0       14.465820    1.746655    0.750623
    119          1           0       16.233016    1.334079   -0.837961
    120          1           0       15.240175    2.259194   -2.296589
    121          1           0       15.297145    4.321188   -0.509810
    122          1           0       16.346414    3.058211    0.459233
    123          1           0       18.244868    2.953129   -1.332088
    124          1           0       16.621930    4.676783   -3.216144
    125          1           0       18.412529    3.931746   -3.401872
    126          1           0       16.722689    3.034622   -3.301293
    127          1           0       18.324755    5.035104    0.139257
    128          1           0       18.705991    5.448289   -1.498128
    129          1           0       17.180256    5.793698   -0.852997
    130          1           0       -4.996146   -8.007204    0.018593
    131          1           0       -6.688514   -6.900643    0.415188
    132          1           0       -5.152326   -6.943252    1.443201
    133          8           0       -7.747893    6.854998   -0.414255
    134          1           0       -8.894161    6.233511   -1.964793
 ---------------------------------------------------------------------

 SCF Done:  E(RCAM-B3LYP) =  -3043.41992155     A.U. after   16 cycles

 Excitation energies and oscillator strengths:

 Excited State   1:      Singlet-A      2.0776 eV  596.75 nm  f=0.1340  <S**2>=0.000
     243 -> 246        0.32660
     244 -> 245        0.61743
 This state for optimization and/or second-order correction.
 Total Energy, E(TD-HF/TD-KS) =  -3043.34356938
 Copying the excited state density for this state as the 1-particle RhoCI density.

 The electronic state is 1-A.
 Alpha  occ. eigenvalues --  -46.81688 -19.23044 -19.21781 -19.19243 -19.17931
 Alpha  occ. eigenvalues --  -19.17454 -19.16094 -19.15896 -14.39300 -14.37605
 Alpha  occ. eigenvalues --  -14.36421 -14.36127 -10.36433 -10.34488 -10.31903
 Alpha  occ. eigenvalues --  -10.31845 -10.29318 -10.29083 -10.27960 -10.27916
 Alpha  occ. eigenvalues --  -10.27798 -10.27114 -10.26584 -10.26200 -10.25949
 Alpha  occ. eigenvalues --  -10.25705 -10.25695 -10.25672 -10.25409 -10.25182
 Alpha  occ. eigenvalues --  -10.24986 -10.24956 -10.24733 -10.24624 -10.24483
 Alpha  occ. eigenvalues --  -10.24347 -10.24121 -10.23975 -10.23890 -10.23799
 Alpha  occ. eigenvalues --  -10.23240 -10.22875 -10.22721 -10.22671 -10.22608
 Alpha  occ. eigenvalues --  -10.22491 -10.22430 -10.22353 -10.22281 -10.22053
 Alpha  occ. eigenvalues --  -10.21975 -10.21887 -10.21831 -10.21752 -10.21735
 Alpha  occ. eigenvalues --  -10.21617 -10.21446 -10.21060 -10.20829 -10.20791
 Alpha  occ. eigenvalues --  -10.20743 -10.20520 -10.20373 -10.19635 -10.19389
 Alpha  occ. eigenvalues --  -10.17893  -3.10215  -1.85160  -1.84696  -1.84602
 Alpha  occ. eigenvalues --   -1.14048  -1.12007  -1.07653  -1.06246  -1.04642
 Alpha  occ. eigenvalues --   -1.02713  -1.02483  -1.01375  -1.00310  -0.99346
 Alpha  occ. eigenvalues --   -0.97883  -0.88404  -0.86137  -0.85744  -0.85169
 Alpha  occ. eigenvalues --   -0.84847  -0.84477  -0.84026  -0.83583  -0.83535
 Alpha  occ. eigenvalues --   -0.83250  -0.82911  -0.82068  -0.80498  -0.79216
 Alpha  occ. eigenvalues --   -0.78848  -0.78432  -0.77815  -0.77223  -0.76314
 Alpha  occ. eigenvalues --   -0.75476  -0.74695  -0.74087  -0.73613  -0.72793
 Alpha  occ. eigenvalues --   -0.71618  -0.71513  -0.70418  -0.70038  -0.69521
 Alpha  occ. eigenvalues --   -0.68901  -0.68628  -0.67794  -0.66779  -0.66474
 Alpha  occ. eigenvalues --   -0.65456  -0.64436  -0.63698  -0.63066  -0.62265
 Alpha  occ. eigenvalues --   -0.61513  -0.61169  -0.59675  -0.59470  -0.59042
 Alpha  occ. eigenvalues --   -0.58046  -0.57883  -0.57398  -0.56693  -0.56586
 Alpha  occ. eigenvalues --   -0.56201  -0.55959  -0.55561  -0.55148  -0.54810
 Alpha  occ. eigenvalues --   -0.54554  -0.53832  -0.53455  -0.52379  -0.52214
 Alpha  occ. eigenvalues --   -0.51910  -0.51709  -0.51090  -0.50882  -0.50557
 Alpha  occ. eigenvalues --   -0.50392  -0.50235  -0.50088  -0.49420  -0.49284
 Alpha  occ. eigenvalues --   -0.49023  -0.48954  -0.48449  -0.47906  -0.47857
 Alpha  occ. eigenvalues --   -0.47674  -0.47415  -0.47059  -0.46998  -0.46633
 Alpha  occ. eigenvalues --   -0.46591  -0.46262  -0.46148  -0.45886  -0.45543
 Alpha  occ. eigenvalues --   -0.45480  -0.45405  -0.45352  -0.45000  -0.44844
 Alpha  occ. eigenvalues --   -0.44381  -0.44105  -0.43949  -0.43801  -0.43561
 Alpha  occ. eigenvalues --   -0.43173  -0.43017  -0.42938  -0.42790  -0.42629
 Alpha  occ. eigenvalues --   -0.42503  -0.42177  -0.42065  -0.41983  -0.41728
 Alpha  occ. eigenvalues --   -0.41670  -0.41516  -0.41280  -0.41190  -0.40982
 Alpha  occ. eigenvalues --   -0.40886  -0.40575  -0.40518  -0.40449  -0.40121
 Alpha  occ. eigenvalues --   -0.40045  -0.39686  -0.39594  -0.39518  -0.39194
 Alpha  occ. eigenvalues --   -0.38969  -0.38721  -0.38487  -0.38375  -0.37941
 Alpha  occ. eigenvalues --   -0.37820  -0.37649  -0.37611  -0.37507  -0.37177
 Alpha  occ. eigenvalues --   -0.37165  -0.36476  -0.36203  -0.36078  -0.35649
 Alpha  occ. eigenvalues --   -0.35368  -0.34358  -0.34346  -0.34250  -0.34044
 Alpha  occ. eigenvalues --   -0.33749  -0.33732  -0.33372  -0.33227  -0.33118
 Alpha  occ. eigenvalues --   -0.32637  -0.32556  -0.32332  -0.31924  -0.31689
 Alpha  occ. eigenvalues --   -0.31366  -0.31025  -0.30297  -0.30084  -0.29152
 Alpha  occ. eigenvalues --   -0.28908  -0.28002  -0.27926  -0.27729  -0.27194
 Alpha  occ. eigenvalues --   -0.26917  -0.26570  -0.22928  -0.21341
 Alpha virt. eigenvalues --   -0.07893  -0.06905  -0.02603  -0.01012   0.00364
 Alpha virt. eigenvalues --    0.01480   0.03426   0.03674   0.03938   0.03996
 Alpha virt. eigenvalues --    0.05091   0.05739   0.07790   0.08200   0.08236

 Mulliken charges:
               1
     1  Mg   0.834055
     2  C    0.035873
     3  C   -0.199113
     4  C   -0.150541
     5  C   -0.176057
     6  N   -0.615338
     7  C    0.310578
     8  C   -0.133127
     9  C   -0.177650
    10  C    0.344290
    11  C   -0.322296
    12  C   -0.178674
    13  C   -0.275151
    14  C    0.613919
    15  O   -0.442143
    16  O   -0.486630
    17  N   -0.715560
    18  C    0.286784
    19  C    0.082435
    20  C   -0.066935
    21  C    0.352954
    22  C   -0.389391
    23  C    0.240475
    24  O   -0.398869
    25  N   -0.753331
    26  C    0.327688
    27  C   -0.088148
    28  C    0.047972
    29  C    0.338398
    30  C    0.234326
    31  C   -0.244782
    32  C   -0.299291
    33  N   -0.755717
    34  C    0.309727
    35  C    0.056420
    36  C    0.042154
    37  C    0.334862
    38  C   -0.408877
    39  C    0.336577
    40  O   -0.460884
    41  C   -0.330927
    42  C    0.625280
    43  O   -0.518227
    44  O   -0.431156
    45  C   -0.074029
    46  C    0.003191
    47  C   -0.147000
    48  C    0.176155
    49  C   -0.407188
    50  C   -0.245815
    51  C   -0.170619
    52  C   -0.158940
    53  C   -0.093277
    54  C   -0.301698
    55  C   -0.164669
    56  C   -0.175129
    57  C   -0.159918
    58  C   -0.037925
    59  C   -0.302493
    60  C   -0.176041
    61  C   -0.166127
    62  C   -0.167012
    63  C   -0.046078
    64  C   -0.279575
    65  C   -0.297575
    66  H    0.092747
    67  H    0.132543
    68  H    0.069249
    69  H    0.110720
    70  H    0.106280
    71  H    0.107317
    72  H    0.124195
    73  H    0.129853
    74  H    0.109734
    75  H    0.137411
    76  H    0.160124
    77  H    0.145425
    78  H    0.114722
    79  H    0.165065
    80  H    0.128941
    81  H    0.095607
    82  H    0.116878
    83  H    0.112114
    84  H    0.106274
    85  H    0.113331
    86  H    0.128223
    87  H    0.118865
    88  H    0.153723
    89  H    0.121841
    90  H    0.162576
    91  H    0.110556
    92  H    0.126224
    93  H    0.091743
    94  H    0.156104
    95  H    0.092504
    96  H    0.115009
    97  H    0.085100
    98  H    0.084014
    99  H    0.093869
   100  H    0.093539
   101  H    0.104534
   102  H    0.085702
   103  H    0.074182
   104  H    0.101589
   105  H    0.115343
   106  H    0.084531
   107  H    0.059970
   108  H    0.082030
   109  H    0.100698
   110  H    0.082733
   111  H    0.095286
   112  H    0.078527
   113  H    0.051265
   114  H    0.105607
   115  H    0.094600
   116  H    0.105277
   117  H    0.055373
   118  H    0.088585
   119  H    0.109810
   120  H    0.074978
   121  H    0.088849
   122  H    0.076803
   123  H    0.053051
   124  H    0.114519
   125  H    0.045914
   126  H    0.100823
   127  H    0.109872
   128  H    0.087427
   129  H    0.106652
   130  H    0.102374
   131  H    0.147977
   132  H    0.155640
   133  O   -0.467646
   134  H    0.070517
 Sum of Mulliken charges =   0.00000

 Dipole moment (field-independent basis, Debye):
    X=              0.8888    Y=             -4.9817    Z=             -0.6733  Tot=              5.1049
 Quadrupole moment (field-independent basis, Debye-Ang):
   XX=           -389.7942   YY=           -435.7322   ZZ=           -390.1869
   XY=              5.1995   XZ=             26.4861   YZ=            -31.0815

 Normal termination of Gaussian 09 at Thu Oct  3 11:52:14 2019.
