 Gaussian 09, Revision D.01,
 Gaussian 09:  ES64L-G09RevD.01 24-Apr-2013

 ----------------------------------------------------------------------
 # td=(NStates=1) iop(3/107=0140000000,3/108=0140000000) iop(3/107=0140
 000000,3/108=0140000000) CAM-B3LYP/6-31G(d,p)
 ----------------------------------------------------------------------

 --
 TD
 --
 Symbolic Z-matrix:
 Charge =  0 Multiplicity = 1

                         Standard orientation:
 ---------------------------------------------------------------------
 Center     Atomic      Atomic             Coordinates (Angstroms)
 Number     Number       Type             X           Y           Z
 ---------------------------------------------------------------------
      1         12           0       -5.688855    1.172968    0.270996
      2          6           0       -4.980672   -2.051253   -0.506828
      3          6           0       -3.337775    1.144868    2.787597
      4          6           0       -6.254118    4.506243    0.738585
      5          6           0       -8.023596    1.175172   -2.412966
      6          7           0       -4.466134   -0.326161    1.171228
      7          6           0       -4.310626   -1.605799    0.738985
      8          6           0       -3.222219   -2.324407    1.498537
      9          6           0       -2.800811   -1.356251    2.571519
     10          6           0       -3.587576   -0.056433    2.160258
     11          6           0       -3.429853   -1.813159    3.951930
     12          6           0       -1.964177   -2.710245    0.584891
     13          6           0       -1.012453   -3.649531    1.390602
     14          6           0        0.241352   -3.971877    0.587161
     15          8           0        0.428283   -3.528707   -0.566415
     16          8           0        0.972686   -4.741786    1.254784
     17          7           0       -4.911658    2.535161    1.543174
     18          6           0       -4.021948    2.383877    2.545020
     19          6           0       -3.754970    3.551504    3.265657
     20          6           0       -4.535603    4.503316    2.646981
     21          6           0       -5.279233    3.864694    1.605353
     22          6           0       -2.689917    3.883812    4.304475
     23          6           0       -4.527218    6.025757    2.913872
     24          8           0       -3.936226    6.589613    3.834830
     25          7           0       -6.910846    2.628997   -0.698429
     26          6           0       -6.965064    3.884736   -0.282799
     27          6           0       -7.909951    4.541674   -1.091451
     28          6           0       -8.455821    3.706690   -2.062917
     29          6           0       -7.850677    2.391403   -1.665070
     30          6           0       -8.205211    6.002766   -1.249249
     31          6           0       -9.520356    3.877023   -3.158716
     32          6           0       -8.810444    4.085902   -4.494971
     33          7           0       -6.391627   -0.103174   -1.092930
     34          6           0       -7.401222    0.027925   -2.086593
     35          6           0       -7.528792   -1.353808   -2.761991
     36          6           0       -6.612845   -2.135709   -2.112002
     37          6           0       -5.991060   -1.404410   -1.114167
     38          6           0       -8.533395   -1.637883   -3.895214
     39          6           0       -6.102139   -3.478018   -2.028336
     40          8           0       -6.531215   -4.439936   -2.584011
     41          6           0       -4.979264   -3.431045   -0.966662
     42          6           0       -5.195576   -4.613173    0.074652
     43          8           0       -5.656328   -4.507467    1.117614
     44          8           0       -4.856520   -5.860140   -0.395170
     45          6           0       -5.282745   -6.864253    0.525689
     46          6           0        2.350986   -5.060670    0.678235
     47          6           0        3.368981   -4.149173    0.971252
     48          6           0        4.030150   -3.345424    0.234220
     49          6           0        3.521802   -2.992924   -1.196694
     50          6           0        5.288040   -2.507168    0.789011
     51          6           0        6.528440   -2.803564   -0.040767
     52          6           0        7.656916   -1.888487    0.685631
     53          6           0        9.009025   -1.973073   -0.107738
     54          6           0        9.618743   -3.411487    0.187162
     55          6           0        9.955638   -0.785521    0.405967
     56          6           0       11.280847   -0.682423   -0.387755
     57          6           0       12.226565    0.346424    0.138045
     58          6           0       13.544742    0.505741   -0.647904
     59          6           0       14.364723   -0.757025   -0.495454
     60          6           0       14.333149    1.758946   -0.136076
     61          6           0       15.499020    2.155293   -1.068366
     62          6           0       15.938782    3.539640   -0.578601
     63          6           0       17.364541    4.038866   -1.284600
     64          6           0       17.115488    3.892685   -2.811059
     65          6           0       17.623831    5.472313   -0.824982
     66          1           0       -2.589812    1.175282    3.677436
     67          1           0       -6.355929    5.600805    0.925128
     68          1           0       -8.721145    1.061974   -3.240309
     69          1           0       -3.542299   -3.399059    1.906249
     70          1           0       -1.846190   -1.063148    2.570035
     71          1           0       -3.067632   -2.811617    4.226352
     72          1           0       -3.249171   -1.037337    4.773413
     73          1           0       -4.432795   -1.909999    3.947785
     74          1           0       -2.364322   -3.273489   -0.334269
     75          1           0       -1.346393   -1.824852    0.232856
     76          1           0       -0.744411   -3.227804    2.413362
     77          1           0       -1.662681   -4.532377    1.464484
     78          1           0       -1.703619    3.633648    4.003577
     79          1           0       -2.941746    4.684886    4.905013
     80          1           0       -2.723645    2.906015    5.032396
     81          1           0       -5.166380    6.660261    2.111321
     82          1           0       -9.827060    2.791614   -3.127380
     83          1           0      -10.383974    4.598014   -3.077054
     84          1           0       -9.690222    4.126178   -5.271581
     85          1           0       -8.433341    4.976084   -4.556435
     86          1           0       -7.922636    3.318532   -4.792266
     87          1           0       -8.564297   -0.585229   -4.634539
     88          1           0       -8.389782   -2.565621   -4.569516
     89          1           0       -9.608704   -1.648895   -3.392684
     90          1           0       -4.022248   -3.464373   -1.450265
     91          1           0        2.714957   -6.061763    1.256494
     92          1           0        2.290902   -5.103434   -0.327125
     93          1           0        3.912811   -4.342361    2.051167
     94          1           0        2.640506   -3.568148   -1.593970
     95          1           0        3.468143   -1.878541   -1.308456
     96          1           0        4.388379   -3.111602   -2.157297
     97          1           0        4.789253   -1.470780    0.899204
     98          1           0        5.380571   -2.718947    1.866230
     99          1           0        6.848885   -3.977856    0.053638
    100          1           0        6.503173   -2.502782   -1.106896
    101          1           0        7.468547   -0.777305    0.675659
    102          1           0        7.692135   -2.255010    1.657397
    103          1           0        8.823653   -1.790944   -1.104269
    104          1           0        8.850332   -4.101816   -0.624010
    105          1           0       10.541223   -3.429573    0.009289
    106          1           0        9.501615   -3.736665    1.275967
    107          1           0        9.493535    0.235302    0.287875
    108          1           0       10.028276   -1.177095    1.640821
    109          1           0       11.876813   -1.654665   -0.568933
    110          1           0       11.180385   -0.357462   -1.478130
    111          1           0       11.665552    1.325862    0.153853
    112          1           0       12.320687   -0.039262    1.152352
    113          1           0       13.318685    0.555649   -1.674277
    114          1           0       14.906479   -0.822408    0.550614
    115          1           0       14.001694   -1.910118   -0.878832
    116          1           0       15.106807   -0.654408   -0.969379
    117          1           0       13.536869    2.636672   -0.262243
    118          1           0       14.832348    1.781717    0.783449
    119          1           0       16.287953    1.335131   -0.888086
    120          1           0       15.145839    2.023464   -2.071179
    121          1           0       15.233722    4.075868   -0.808678
    122          1           0       16.097298    3.305747    0.511837
    123          1           0       18.132177    3.294769   -0.921278
    124          1           0       16.336316    4.486245   -3.097671
    125          1           0       18.151296    4.013092   -3.409093
    126          1           0       16.946827    2.766036   -3.198365
    127          1           0       17.346818    5.444213    0.191417
    128          1           0       18.658481    5.743416   -1.012147
    129          1           0       16.750454    6.355982   -1.363102
    130          1           0       -5.032195   -7.824375    0.166973
    131          1           0       -6.458211   -6.736573    0.657663
    132          1           0       -4.688106   -6.956647    1.522119
    133          8           0       -7.706327    6.884964   -0.559874
    134          1           0       -9.084752    6.281724   -1.879175
 ---------------------------------------------------------------------

 SCF Done:  E(RCAM-B3LYP) =  -3043.33432406     A.U. after   16 cycles

 Excitation energies and oscillator strengths:

 Excited State   1:      Singlet-A      2.0662 eV  600.07 nm  f=0.1428  <S**2>=0.000
     243 -> 246       -0.30605
     244 -> 245        0.62189
 This state for optimization and/or second-order correction.
 Total Energy, E(TD-HF/TD-KS) =  -3043.25839359
 Copying the excited state density for this state as the 1-particle RhoCI density.

 The electronic state is 1-A.
 Alpha  occ. eigenvalues --  -46.81289 -19.23672 -19.22331 -19.18271 -19.17496
 Alpha  occ. eigenvalues --  -19.17271 -19.16411 -19.15763 -14.39130 -14.36653
 Alpha  occ. eigenvalues --  -14.36577 -14.36193 -10.35416 -10.34498 -10.31474
 Alpha  occ. eigenvalues --  -10.31025 -10.29813 -10.28805 -10.28521 -10.27811
 Alpha  occ. eigenvalues --  -10.26756 -10.26700 -10.26697 -10.26686 -10.26637
 Alpha  occ. eigenvalues --  -10.25899 -10.25626 -10.25205 -10.25055 -10.24972
 Alpha  occ. eigenvalues --  -10.24705 -10.24610 -10.24301 -10.24220 -10.23907
 Alpha  occ. eigenvalues --  -10.23891 -10.23850 -10.23815 -10.23776 -10.23653
 Alpha  occ. eigenvalues --  -10.23516 -10.23506 -10.23443 -10.23339 -10.23260
 Alpha  occ. eigenvalues --  -10.23104 -10.22866 -10.22569 -10.22269 -10.22135
 Alpha  occ. eigenvalues --  -10.22034 -10.21918 -10.21845 -10.21743 -10.21723
 Alpha  occ. eigenvalues --  -10.21636 -10.21571 -10.21516 -10.21367 -10.21259
 Alpha  occ. eigenvalues --  -10.21211 -10.21109 -10.20475 -10.20058 -10.19877
 Alpha  occ. eigenvalues --  -10.19794  -3.09854  -1.84798  -1.84345  -1.84241
 Alpha  occ. eigenvalues --   -1.16116  -1.15518  -1.08788  -1.06674  -1.05851
 Alpha  occ. eigenvalues --   -1.05636  -1.02850  -1.00880  -1.00261  -0.99754
 Alpha  occ. eigenvalues --   -0.98830  -0.90203  -0.87208  -0.85705  -0.85264
 Alpha  occ. eigenvalues --   -0.84827  -0.83959  -0.83718  -0.83239  -0.82933
 Alpha  occ. eigenvalues --   -0.82904  -0.82521  -0.81252  -0.80313  -0.79486
 Alpha  occ. eigenvalues --   -0.78897  -0.78493  -0.77288  -0.76831  -0.76269
 Alpha  occ. eigenvalues --   -0.75426  -0.74230  -0.73539  -0.72634  -0.71947
 Alpha  occ. eigenvalues --   -0.70828  -0.70559  -0.70398  -0.69830  -0.69468
 Alpha  occ. eigenvalues --   -0.69009  -0.68583  -0.67115  -0.66319  -0.65587
 Alpha  occ. eigenvalues --   -0.65152  -0.64397  -0.63441  -0.62624  -0.61868
 Alpha  occ. eigenvalues --   -0.61629  -0.61071  -0.60378  -0.60008  -0.59386
 Alpha  occ. eigenvalues --   -0.58651  -0.58583  -0.58570  -0.57654  -0.56989
 Alpha  occ. eigenvalues --   -0.56365  -0.56141  -0.55696  -0.55594  -0.54861
 Alpha  occ. eigenvalues --   -0.53982  -0.53205  -0.52635  -0.52267  -0.52170
 Alpha  occ. eigenvalues --   -0.51688  -0.51605  -0.51332  -0.50986  -0.50729
 Alpha  occ. eigenvalues --   -0.50198  -0.49954  -0.49678  -0.49403  -0.48984
 Alpha  occ. eigenvalues --   -0.48711  -0.48603  -0.48185  -0.48001  -0.47573
 Alpha  occ. eigenvalues --   -0.47378  -0.47111  -0.46737  -0.46726  -0.46575
 Alpha  occ. eigenvalues --   -0.46497  -0.46414  -0.46258  -0.45940  -0.45862
 Alpha  occ. eigenvalues --   -0.45712  -0.45355  -0.45050  -0.44890  -0.44688
 Alpha  occ. eigenvalues --   -0.44522  -0.44229  -0.44010  -0.43781  -0.43554
 Alpha  occ. eigenvalues --   -0.43325  -0.43037  -0.42875  -0.42581  -0.42458
 Alpha  occ. eigenvalues --   -0.42142  -0.41998  -0.41850  -0.41706  -0.41683
 Alpha  occ. eigenvalues --   -0.41509  -0.41188  -0.41129  -0.40979  -0.40840
 Alpha  occ. eigenvalues --   -0.40692  -0.40504  -0.40455  -0.40350  -0.40279
 Alpha  occ. eigenvalues --   -0.40107  -0.39923  -0.39530  -0.39462  -0.39194
 Alpha  occ. eigenvalues --   -0.38948  -0.38609  -0.38300  -0.38106  -0.38042
 Alpha  occ. eigenvalues --   -0.37853  -0.37547  -0.37401  -0.37229  -0.36940
 Alpha  occ. eigenvalues --   -0.36602  -0.36404  -0.36164  -0.36024  -0.35868
 Alpha  occ. eigenvalues --   -0.35328  -0.35311  -0.35238  -0.34993  -0.34919
 Alpha  occ. eigenvalues --   -0.34537  -0.33967  -0.33722  -0.33552  -0.33485
 Alpha  occ. eigenvalues --   -0.33337  -0.32850  -0.32132  -0.31949  -0.31739
 Alpha  occ. eigenvalues --   -0.31233  -0.31092  -0.30083  -0.29581  -0.29321
 Alpha  occ. eigenvalues --   -0.28671  -0.28651  -0.28114  -0.27847  -0.27620
 Alpha  occ. eigenvalues --   -0.27400  -0.27059  -0.22712  -0.21355
 Alpha virt. eigenvalues --   -0.07979  -0.06277  -0.01591  -0.00070   0.01239
 Alpha virt. eigenvalues --    0.02762   0.03592   0.04102   0.04346   0.04637
 Alpha virt. eigenvalues --    0.05233   0.05627   0.07270   0.08415   0.08488

 Mulliken charges:
               1
     1  Mg   0.826597
     2  C   -0.010179
     3  C   -0.184677
     4  C   -0.153022
     5  C   -0.169689
     6  N   -0.611370
     7  C    0.338597
     8  C   -0.170751
     9  C   -0.112960
    10  C    0.305112
    11  C   -0.312828
    12  C   -0.182269
    13  C   -0.272346
    14  C    0.605334
    15  O   -0.512327
    16  O   -0.418943
    17  N   -0.711677
    18  C    0.303730
    19  C    0.044176
    20  C   -0.049886
    21  C    0.284703
    22  C   -0.351588
    23  C    0.256298
    24  O   -0.415239
    25  N   -0.693411
    26  C    0.372198
    27  C   -0.085744
    28  C    0.041192
    29  C    0.246411
    30  C    0.242413
    31  C   -0.239509
    32  C   -0.300307
    33  N   -0.738448
    34  C    0.280548
    35  C    0.015218
    36  C    0.052189
    37  C    0.341530
    38  C   -0.367486
    39  C    0.350756
    40  O   -0.434441
    41  C   -0.308592
    42  C    0.602186
    43  O   -0.409676
    44  O   -0.449117
    45  C   -0.077836
    46  C   -0.002899
    47  C   -0.114489
    48  C    0.141996
    49  C   -0.364137
    50  C   -0.221064
    51  C   -0.177434
    52  C   -0.167621
    53  C   -0.064679
    54  C   -0.274150
    55  C   -0.157477
    56  C   -0.191635
    57  C   -0.145620
    58  C   -0.061782
    59  C   -0.276398
    60  C   -0.176820
    61  C   -0.197774
    62  C   -0.151801
    63  C   -0.060329
    64  C   -0.289375
    65  C   -0.275392
    66  H    0.079960
    67  H    0.136246
    68  H    0.092371
    69  H    0.110488
    70  H    0.111355
    71  H    0.105659
    72  H    0.097708
    73  H    0.139165
    74  H    0.103943
    75  H    0.118935
    76  H    0.127442
    77  H    0.134196
    78  H    0.142271
    79  H    0.160584
    80  H    0.072319
    81  H    0.074046
    82  H    0.112874
    83  H    0.122338
    84  H    0.087746
    85  H    0.137439
    86  H    0.100539
    87  H    0.090523
    88  H    0.150632
    89  H    0.132670
    90  H    0.168221
    91  H    0.115007
    92  H    0.135194
    93  H    0.052166
    94  H    0.152127
    95  H    0.124802
    96  H    0.058065
    97  H    0.109207
    98  H    0.105365
    99  H    0.094353
   100  H    0.108398
   101  H    0.085665
   102  H    0.101301
   103  H    0.093693
   104  H    0.060992
   105  H    0.114636
   106  H    0.092733
   107  H    0.090809
   108  H    0.049494
   109  H    0.084427
   110  H    0.073540
   111  H    0.069111
   112  H    0.093061
   113  H    0.089009
   114  H    0.075763
   115  H    0.067046
   116  H    0.111232
   117  H    0.068951
   118  H    0.102505
   119  H    0.075935
   120  H    0.095747
   121  H    0.100658
   122  H    0.081271
   123  H    0.085012
   124  H    0.115672
   125  H    0.075153
   126  H    0.084791
   127  H    0.118274
   128  H    0.109924
   129  H    0.045888
   130  H    0.125152
   131  H    0.121117
   132  H    0.102317
   133  O   -0.425584
   134  H    0.064356
 Sum of Mulliken charges =   0.00000

 Dipole moment (field-independent basis, Debye):
    X=              3.6456    Y=             -5.4488    Z=             -1.0374  Tot=              6.6375
 Quadrupole moment (field-independent basis, Debye-Ang):
   XX=           -352.6097   YY=           -445.6433   ZZ=           -396.5830
   XY=              9.7665   XZ=             23.3568   YZ=            -35.8556

 Normal termination of Gaussian 09 at Wed Oct  9 01:42:07 2019.
