 Gaussian 09, Revision D.01,
 Gaussian 09:  ES64L-G09RevD.01 24-Apr-2013

 ----------------------------------------------------------------------
 # td=(NStates=1) iop(3/107=0140000000,3/108=0140000000) iop(3/107=0140
 000000,3/108=0140000000) CAM-B3LYP/6-31G(d,p)
 ----------------------------------------------------------------------

 --
 TD
 --
 Symbolic Z-matrix:
 Charge =  0 Multiplicity = 1

                         Standard orientation:
 ---------------------------------------------------------------------
 Center     Atomic      Atomic             Coordinates (Angstroms)
 Number     Number       Type             X           Y           Z
 ---------------------------------------------------------------------
      1         12           0       -5.611425    1.249824    0.205509
      2          6           0       -5.084422   -2.162948   -0.341623
      3          6           0       -3.373313    1.166948    2.700703
      4          6           0       -6.143461    4.531275    0.676230
      5          6           0       -8.025997    1.158164   -2.353892
      6          7           0       -4.408206   -0.232393    0.998983
      7          6           0       -4.307184   -1.602240    0.709536
      8          6           0       -3.214380   -2.274400    1.409867
      9          6           0       -3.003360   -1.354073    2.558839
     10          6           0       -3.644757   -0.057406    2.144555
     11          6           0       -3.577551   -1.855452    3.924454
     12          6           0       -1.988414   -2.736440    0.639683
     13          6           0       -1.000626   -3.661140    1.429105
     14          6           0        0.229419   -3.935415    0.629410
     15          8           0        0.531239   -3.519838   -0.453609
     16          8           0        1.077797   -4.665763    1.337946
     17          7           0       -4.839128    2.635976    1.422359
     18          6           0       -3.878321    2.396580    2.483476
     19          6           0       -3.706458    3.606556    3.206794
     20          6           0       -4.566821    4.590149    2.630740
     21          6           0       -5.279398    3.950860    1.549813
     22          6           0       -2.893913    3.677374    4.458921
     23          6           0       -4.570261    6.028334    2.918484
     24          8           0       -4.006498    6.481827    3.892767
     25          7           0       -6.893380    2.662123   -0.756802
     26          6           0       -6.810964    3.973730   -0.346936
     27          6           0       -7.856218    4.647229   -1.183888
     28          6           0       -8.432723    3.716018   -2.066452
     29          6           0       -7.759821    2.484393   -1.798620
     30          6           0       -8.291368    6.025679   -1.152820
     31          6           0       -9.407605    3.801022   -3.166846
     32          6           0       -8.589792    3.920903   -4.491769
     33          7           0       -6.370177   -0.086997   -1.108494
     34          6           0       -7.309279    0.008007   -2.110652
     35          6           0       -7.633145   -1.351569   -2.738600
     36          6           0       -6.805846   -2.192083   -2.036484
     37          6           0       -5.988844   -1.417717   -1.051283
     38          6           0       -8.437783   -1.652659   -3.856823
     39          6           0       -6.266099   -3.537195   -2.029108
     40          8           0       -6.627240   -4.440364   -2.654407
     41          6           0       -5.097914   -3.553112   -0.957166
     42          6           0       -5.258178   -4.616513    0.141205
     43          8           0       -5.754499   -4.390784    1.247392
     44          8           0       -5.096115   -5.822337   -0.456403
     45          6           0       -5.409119   -6.956410    0.331767
     46          6           0        2.400332   -5.025278    0.773992
     47          6           0        3.378480   -3.944079    1.129072
     48          6           0        3.920260   -3.181989    0.239959
     49          6           0        3.556099   -3.111649   -1.303732
     50          6           0        5.147532   -2.131918    0.607670
     51          6           0        6.477156   -2.539453   -0.033281
     52          6           0        7.651756   -1.745699    0.556050
     53          6           0        9.017347   -1.980032   -0.019541
     54          6           0        9.440469   -3.402290    0.202804
     55          6           0        9.979968   -0.951390    0.501651
     56          6           0       11.269522   -0.809304   -0.288034
     57          6           0       12.306062    0.161384    0.346652
     58          6           0       13.618047    0.420147   -0.547730
     59          6           0       14.457260   -0.808847   -0.389024
     60          6           0       14.286823    1.687551   -0.175635
     61          6           0       15.537723    2.041433   -0.948243
     62          6           0       16.120648    3.431417   -0.597659
     63          6           0       17.404959    3.886600   -1.373621
     64          6           0       17.058385    3.884521   -2.953927
     65          6           0       17.883405    5.342786   -0.971029
     66          1           0       -2.590044    1.012400    3.628298
     67          1           0       -6.518475    5.675800    0.668851
     68          1           0       -8.809730    1.227936   -2.993905
     69          1           0       -3.718577   -3.264613    1.778431
     70          1           0       -1.821342   -1.240227    2.959800
     71          1           0       -3.008576   -2.717606    4.399689
     72          1           0       -3.627709   -1.089276    4.698372
     73          1           0       -4.675116   -2.110488    3.815286
     74          1           0       -2.298977   -3.283788   -0.292456
     75          1           0       -1.347619   -1.842053    0.499314
     76          1           0       -0.525215   -2.970375    2.247145
     77          1           0       -1.395045   -4.732493    1.680396
     78          1           0       -1.851975    3.473923    4.062687
     79          1           0       -3.022294    4.789981    4.868180
     80          1           0       -3.161390    2.908646    5.112174
     81          1           0       -5.187482    6.727676    2.406472
     82          1           0      -10.029098    2.955466   -3.132908
     83          1           0      -10.042091    4.779822   -2.986550
     84          1           0       -9.345413    3.909151   -5.329464
     85          1           0       -7.828100    4.887317   -4.585174
     86          1           0       -7.895401    3.020077   -4.773757
     87          1           0       -7.970909   -1.070486   -4.715346
     88          1           0       -8.313027   -2.606699   -4.398385
     89          1           0       -9.644573   -1.310587   -3.821610
     90          1           0       -4.239878   -3.803851   -1.527800
     91          1           0        2.683002   -6.066332    1.242317
     92          1           0        2.206009   -5.237849   -0.152065
     93          1           0        3.684780   -3.856227    2.076417
     94          1           0        2.659258   -3.381803   -1.553869
     95          1           0        3.888468   -2.186518   -1.648436
     96          1           0        4.117520   -3.865343   -1.943091
     97          1           0        4.888725   -1.087528    0.196829
     98          1           0        5.293153   -2.196704    1.716577
     99          1           0        6.601939   -3.612230    0.245064
    100          1           0        6.262846   -2.238501   -1.134219
    101          1           0        7.518944   -0.737600    0.514947
    102          1           0        7.766602   -1.819497    1.661640
    103          1           0        8.768715   -1.636242   -1.036629
    104          1           0        8.731361   -4.104548   -0.130203
    105          1           0       10.512405   -3.592344   -0.115316
    106          1           0        9.330856   -3.724044    1.443181
    107          1           0        9.730620   -0.014221    0.376190
    108          1           0        9.959553   -1.169883    1.730083
    109          1           0       11.708605   -1.889487   -0.751605
    110          1           0       10.903416   -0.377929   -1.285681
    111          1           0       11.933493    1.168439    0.317452
    112          1           0       13.089925    0.003749    1.233939
    113          1           0       13.319857    0.424277   -1.634214
    114          1           0       14.914383   -0.908795    0.668147
    115          1           0       13.826867   -1.732548   -0.688507
    116          1           0       15.515791   -0.789614   -1.063298
    117          1           0       13.365545    2.428546   -0.160352
    118          1           0       14.591186    1.739677    0.896204
    119          1           0       16.437904    1.311426   -0.935491
    120          1           0       15.188024    1.859676   -2.036642
    121          1           0       15.393707    4.231008   -0.646293
    122          1           0       16.413024    3.166342    0.433821
    123          1           0       18.319554    2.993122   -1.363260
    124          1           0       16.310989    4.704813   -3.039310
    125          1           0       17.899602    4.081554   -3.604329
    126          1           0       16.440400    2.919234   -3.198392
    127          1           0       18.384179    5.471179    0.139146
    128          1           0       18.795124    5.666138   -1.467537
    129          1           0       17.013117    6.071412   -1.046902
    130          1           0       -5.019541   -7.734671   -0.179733
    131          1           0       -6.682216   -7.137611    0.705588
    132          1           0       -4.713597   -6.982477    1.269740
    133          8           0       -7.631945    6.942536   -0.506132
    134          1           0       -9.284498    6.041085   -1.640596
 ---------------------------------------------------------------------

 SCF Done:  E(RCAM-B3LYP) =  -3043.42180125     A.U. after   16 cycles

 Excitation energies and oscillator strengths:

 Excited State   1:      Singlet-A      2.0079 eV  617.49 nm  f=0.1556  <S**2>=0.000
     243 -> 246        0.28348
     244 -> 245        0.63879
 This state for optimization and/or second-order correction.
 Total Energy, E(TD-HF/TD-KS) =  -3043.34801379
 Copying the excited state density for this state as the 1-particle RhoCI density.

 The electronic state is 1-A.
 Alpha  occ. eigenvalues --  -46.80540 -19.24595 -19.21169 -19.18641 -19.18109
 Alpha  occ. eigenvalues --  -19.16801 -19.16297 -19.15759 -14.39354 -14.37118
 Alpha  occ. eigenvalues --  -14.36154 -14.36149 -10.36347 -10.34215 -10.31690
 Alpha  occ. eigenvalues --  -10.30232 -10.29640 -10.28816 -10.28291 -10.27754
 Alpha  occ. eigenvalues --  -10.27288 -10.27242 -10.26384 -10.26155 -10.25836
 Alpha  occ. eigenvalues --  -10.25728 -10.25717 -10.25593 -10.25442 -10.25330
 Alpha  occ. eigenvalues --  -10.25203 -10.24774 -10.24765 -10.24688 -10.24474
 Alpha  occ. eigenvalues --  -10.24345 -10.24246 -10.24023 -10.24011 -10.23992
 Alpha  occ. eigenvalues --  -10.23789 -10.23653 -10.23600 -10.23408 -10.23068
 Alpha  occ. eigenvalues --  -10.22995 -10.22781 -10.22707 -10.22619 -10.22468
 Alpha  occ. eigenvalues --  -10.22462 -10.22319 -10.22201 -10.22148 -10.22022
 Alpha  occ. eigenvalues --  -10.21820 -10.21711 -10.21482 -10.21345 -10.21314
 Alpha  occ. eigenvalues --  -10.21194 -10.20844 -10.20715 -10.20431 -10.19848
 Alpha  occ. eigenvalues --  -10.19668  -3.09206  -1.84142  -1.83692  -1.83609
 Alpha  occ. eigenvalues --   -1.14645  -1.13686  -1.11455  -1.06092  -1.05812
 Alpha  occ. eigenvalues --   -1.04278  -1.02088  -1.00220  -0.99039  -0.98283
 Alpha  occ. eigenvalues --   -0.96730  -0.88959  -0.86829  -0.86427  -0.85882
 Alpha  occ. eigenvalues --   -0.85576  -0.84992  -0.84930  -0.84322  -0.82914
 Alpha  occ. eigenvalues --   -0.82326  -0.81890  -0.81718  -0.80715  -0.80245
 Alpha  occ. eigenvalues --   -0.78881  -0.78146  -0.77890  -0.77478  -0.76485
 Alpha  occ. eigenvalues --   -0.75551  -0.75055  -0.74322  -0.73265  -0.72334
 Alpha  occ. eigenvalues --   -0.71771  -0.70817  -0.70005  -0.69702  -0.69590
 Alpha  occ. eigenvalues --   -0.69459  -0.68967  -0.67732  -0.67046  -0.66167
 Alpha  occ. eigenvalues --   -0.65400  -0.64497  -0.64171  -0.62633  -0.62024
 Alpha  occ. eigenvalues --   -0.61004  -0.60763  -0.59672  -0.59390  -0.58947
 Alpha  occ. eigenvalues --   -0.58709  -0.57803  -0.57410  -0.57152  -0.56751
 Alpha  occ. eigenvalues --   -0.56533  -0.56473  -0.55608  -0.54725  -0.54605
 Alpha  occ. eigenvalues --   -0.54124  -0.53534  -0.53309  -0.52395  -0.52289
 Alpha  occ. eigenvalues --   -0.52148  -0.51821  -0.51608  -0.51368  -0.50755
 Alpha  occ. eigenvalues --   -0.50440  -0.50267  -0.49653  -0.49579  -0.49429
 Alpha  occ. eigenvalues --   -0.48974  -0.48792  -0.48746  -0.48552  -0.47716
 Alpha  occ. eigenvalues --   -0.47596  -0.47552  -0.47299  -0.46967  -0.46751
 Alpha  occ. eigenvalues --   -0.46507  -0.46264  -0.45996  -0.45916  -0.45607
 Alpha  occ. eigenvalues --   -0.45404  -0.45238  -0.44983  -0.44676  -0.44504
 Alpha  occ. eigenvalues --   -0.44346  -0.44116  -0.44003  -0.43632  -0.43287
 Alpha  occ. eigenvalues --   -0.43246  -0.43030  -0.42813  -0.42738  -0.42384
 Alpha  occ. eigenvalues --   -0.42260  -0.42037  -0.41915  -0.41744  -0.41627
 Alpha  occ. eigenvalues --   -0.41610  -0.41371  -0.41171  -0.40886  -0.40755
 Alpha  occ. eigenvalues --   -0.40738  -0.40527  -0.40313  -0.40218  -0.40043
 Alpha  occ. eigenvalues --   -0.39845  -0.39607  -0.39280  -0.39207  -0.38888
 Alpha  occ. eigenvalues --   -0.38705  -0.38401  -0.38363  -0.38296  -0.38007
 Alpha  occ. eigenvalues --   -0.37788  -0.37663  -0.37522  -0.37444  -0.36951
 Alpha  occ. eigenvalues --   -0.36761  -0.36706  -0.36514  -0.36134  -0.35731
 Alpha  occ. eigenvalues --   -0.35385  -0.35212  -0.35123  -0.34642  -0.34550
 Alpha  occ. eigenvalues --   -0.34259  -0.34209  -0.33873  -0.33785  -0.32846
 Alpha  occ. eigenvalues --   -0.32526  -0.32375  -0.32058  -0.32029  -0.31598
 Alpha  occ. eigenvalues --   -0.31386  -0.31171  -0.30450  -0.30170  -0.29744
 Alpha  occ. eigenvalues --   -0.28824  -0.28652  -0.28488  -0.27370  -0.27287
 Alpha  occ. eigenvalues --   -0.26712  -0.26459  -0.23099  -0.21167
 Alpha virt. eigenvalues --   -0.08097  -0.06858  -0.02000  -0.00745   0.00112
 Alpha virt. eigenvalues --    0.01352   0.03368   0.04262   0.04382   0.04946
 Alpha virt. eigenvalues --    0.05203   0.06078   0.07907   0.08060   0.08856

 Mulliken charges:
               1
     1  Mg   0.810439
     2  C    0.088646
     3  C   -0.230448
     4  C   -0.173765
     5  C   -0.143019
     6  N   -0.648083
     7  C    0.309852
     8  C   -0.131567
     9  C   -0.161934
    10  C    0.382786
    11  C   -0.319171
    12  C   -0.153259
    13  C   -0.260411
    14  C    0.586648
    15  O   -0.470030
    16  O   -0.474147
    17  N   -0.733448
    18  C    0.341343
    19  C    0.031615
    20  C   -0.043882
    21  C    0.324685
    22  C   -0.379254
    23  C    0.240716
    24  O   -0.417174
    25  N   -0.694740
    26  C    0.341698
    27  C   -0.061381
    28  C    0.037557
    29  C    0.276047
    30  C    0.237915
    31  C   -0.242222
    32  C   -0.302935
    33  N   -0.713401
    34  C    0.278373
    35  C    0.092299
    36  C    0.005576
    37  C    0.273637
    38  C   -0.419080
    39  C    0.365574
    40  O   -0.401602
    41  C   -0.334791
    42  C    0.616251
    43  O   -0.462979
    44  O   -0.425378
    45  C   -0.070486
    46  C    0.021830
    47  C   -0.122906
    48  C    0.136197
    49  C   -0.362307
    50  C   -0.241691
    51  C   -0.159592
    52  C   -0.171016
    53  C   -0.048029
    54  C   -0.289791
    55  C   -0.129194
    56  C   -0.198979
    57  C   -0.149462
    58  C   -0.090156
    59  C   -0.282044
    60  C   -0.151653
    61  C   -0.184264
    62  C   -0.153838
    63  C   -0.049528
    64  C   -0.305478
    65  C   -0.303313
    66  H    0.076651
    67  H    0.157471
    68  H    0.065679
    69  H    0.126521
    70  H    0.081177
    71  H    0.110042
    72  H    0.114402
    73  H    0.121297
    74  H    0.110435
    75  H    0.122601
    76  H    0.136702
    77  H    0.128160
    78  H    0.114873
    79  H    0.156812
    80  H    0.129333
    81  H    0.090883
    82  H    0.126961
    83  H    0.101389
    84  H    0.107995
    85  H    0.108366
    86  H    0.110454
    87  H    0.131729
    88  H    0.155307
    89  H    0.110166
    90  H    0.157871
    91  H    0.103298
    92  H    0.123394
    93  H    0.079802
    94  H    0.152461
    95  H    0.110284
    96  H    0.096157
    97  H    0.095822
    98  H    0.090981
    99  H    0.100869
   100  H    0.089318
   101  H    0.090874
   102  H    0.075167
   103  H    0.079294
   104  H    0.118234
   105  H    0.102056
   106  H    0.053236
   107  H    0.103890
   108  H    0.058194
   109  H    0.062832
   110  H    0.095861
   111  H    0.090164
   112  H    0.094681
   113  H    0.079088
   114  H    0.090199
   115  H    0.098164
   116  H    0.063051
   117  H    0.075635
   118  H    0.081599
   119  H    0.094601
   120  H    0.078026
   121  H    0.095701
   122  H    0.101133
   123  H    0.048229
   124  H    0.091882
   125  H    0.107398
   126  H    0.094456
   127  H    0.073564
   128  H    0.113578
   129  H    0.103448
   130  H    0.137317
   131  H    0.103437
   132  H    0.108729
   133  O   -0.478534
   134  H    0.081301
 Sum of Mulliken charges =   0.00000

 Dipole moment (field-independent basis, Debye):
    X=              0.9107    Y=             -7.1741    Z=             -2.7102  Tot=              7.7229
 Quadrupole moment (field-independent basis, Debye-Ang):
   XX=           -380.5799   YY=           -437.2653   ZZ=           -396.4862
   XY=             26.8907   XZ=             27.8487   YZ=            -30.3851

 Normal termination of Gaussian 09 at Tue Oct  8 09:22:30 2019.
