 Gaussian 09, Revision D.01,
 Gaussian 09:  ES64L-G09RevD.01 24-Apr-2013

 ----------------------------------------------------------------------
 # td=(NStates=1) iop(3/107=0140000000,3/108=0140000000) iop(3/107=0140
 000000,3/108=0140000000) CAM-B3LYP/6-31G(d,p)
 ----------------------------------------------------------------------

 --
 TD
 --
 Symbolic Z-matrix:
 Charge =  0 Multiplicity = 1

                         Standard orientation:
 ---------------------------------------------------------------------
 Center     Atomic      Atomic             Coordinates (Angstroms)
 Number     Number       Type             X           Y           Z
 ---------------------------------------------------------------------
      1         12           0       -5.660397    1.230952    0.289704
      2          6           0       -5.082884   -2.130635   -0.288155
      3          6           0       -3.410078    1.198663    2.817341
      4          6           0       -6.075451    4.657148    0.596165
      5          6           0       -7.914062    1.279209   -2.263882
      6          7           0       -4.370462   -0.291336    0.982525
      7          6           0       -4.237664   -1.701275    0.722158
      8          6           0       -3.181237   -2.348925    1.539159
      9          6           0       -2.934844   -1.266316    2.625816
     10          6           0       -3.617289   -0.064370    2.112194
     11          6           0       -3.492321   -1.639384    3.948761
     12          6           0       -1.995550   -2.685563    0.728416
     13          6           0       -0.967088   -3.610951    1.506316
     14          6           0        0.258820   -3.944399    0.699202
     15          8           0        0.396151   -3.569871   -0.460325
     16          8           0        1.054628   -4.762691    1.333858
     17          7           0       -5.012099    2.579091    1.509901
     18          6           0       -4.049991    2.436374    2.526567
     19          6           0       -3.747449    3.613139    3.183981
     20          6           0       -4.476230    4.660308    2.568169
     21          6           0       -5.181022    4.015989    1.551846
     22          6           0       -2.803538    3.751244    4.419921
     23          6           0       -4.562389    6.065929    2.819667
     24          8           0       -3.885865    6.567669    3.718980
     25          7           0       -6.778638    2.677947   -0.672194
     26          6           0       -6.911258    4.080590   -0.462405
     27          6           0       -7.809278    4.727457   -1.239934
     28          6           0       -8.359574    3.737728   -2.095096
     29          6           0       -7.692283    2.512295   -1.755098
     30          6           0       -8.361286    6.062398   -1.151917
     31          6           0       -9.312569    3.806901   -3.245029
     32          6           0       -8.685524    4.081183   -4.599363
     33          7           0       -6.377079   -0.133749   -1.118954
     34          6           0       -7.377897   -0.071000   -2.043527
     35          6           0       -7.586427   -1.256690   -2.594087
     36          6           0       -6.672538   -2.140190   -2.070434
     37          6           0       -5.970652   -1.378399   -1.022188
     38          6           0       -8.463431   -1.610211   -3.877482
     39          6           0       -6.196452   -3.533793   -2.024525
     40          8           0       -6.526406   -4.518232   -2.570229
     41          6           0       -5.008382   -3.615848   -0.922620
     42          6           0       -5.377228   -4.660961    0.158230
     43          8           0       -5.729455   -4.511637    1.294027
     44          8           0       -5.213624   -5.890135   -0.454430
     45          6           0       -5.552451   -7.017146    0.380074
     46          6           0        2.286579   -5.109714    0.672221
     47          6           0        3.291192   -4.040898    1.015741
     48          6           0        4.005596   -3.302394    0.174600
     49          6           0        3.708953   -3.145935   -1.346038
     50          6           0        5.119170   -2.396357    0.672095
     51          6           0        6.429833   -2.670076   -0.063294
     52          6           0        7.627828   -1.861435    0.543838
     53          6           0        8.923211   -2.043915   -0.117377
     54          6           0        9.605791   -3.469729   -0.005227
     55          6           0        9.889017   -0.950457    0.448537
     56          6           0       11.212920   -0.834909   -0.302683
     57          6           0       12.176062    0.351417    0.173094
     58          6           0       13.556804    0.487459   -0.565996
     59          6           0       14.417703   -0.775543   -0.513037
     60          6           0       14.270224    1.697116   -0.211789
     61          6           0       15.518425    2.175189   -1.001314
     62          6           0       16.085771    3.504570   -0.522496
     63          6           0       17.427253    3.871273   -1.206513
     64          6           0       17.331630    3.892242   -2.789784
     65          6           0       17.872630    5.238512   -0.788126
     66          1           0       -2.904955    1.084438    3.585084
     67          1           0       -5.759080    5.707241    0.595283
     68          1           0       -8.571620    1.307429   -3.263693
     69          1           0       -3.580490   -3.202472    1.954193
     70          1           0       -1.916514   -1.198371    2.643495
     71          1           0       -3.320691   -2.655965    4.075655
     72          1           0       -3.244147   -0.894166    4.846997
     73          1           0       -4.380905   -1.759578    3.910574
     74          1           0       -2.184063   -3.221941   -0.174105
     75          1           0       -1.428276   -1.725138    0.502494
     76          1           0       -0.686033   -3.091933    2.547382
     77          1           0       -1.435758   -4.560594    1.781396
     78          1           0       -1.710018    3.788108    4.035748
     79          1           0       -2.907684    4.781184    5.034152
     80          1           0       -3.053635    2.728669    5.007428
     81          1           0       -5.185054    6.634819    2.032542
     82          1           0       -9.870677    2.855774   -3.236368
     83          1           0      -10.218265    4.642811   -3.071944
     84          1           0       -9.577668    4.070795   -5.278278
     85          1           0       -8.073720    4.863335   -4.799057
     86          1           0       -8.268204    3.084390   -4.901380
     87          1           0       -7.644922   -1.158204   -4.888152
     88          1           0       -8.699882   -2.696322   -4.012135
     89          1           0       -9.558246   -1.100475   -3.805774
     90          1           0       -4.098105   -3.835411   -1.313262
     91          1           0        2.390720   -6.038412    0.945249
     92          1           0        2.118986   -5.084206   -0.424595
     93          1           0        3.334250   -3.955261    2.001261
     94          1           0        2.567363   -3.176306   -1.343406
     95          1           0        4.063170   -2.159810   -1.565242
     96          1           0        4.178848   -4.148685   -1.801842
     97          1           0        5.006190   -1.383168    0.570936
     98          1           0        5.010214   -2.587625    1.546167
     99          1           0        6.649564   -3.611133   -0.251903
    100          1           0        6.065183   -2.304018   -0.999725
    101          1           0        7.217474   -0.762721    0.539631
    102          1           0        7.871444   -2.048879    1.686243
    103          1           0        8.911927   -1.808742   -1.119859
    104          1           0        8.929156   -4.395484   -0.448764
    105          1           0       10.616264   -3.629843   -0.315886
    106          1           0        9.584949   -3.732554    1.109669
    107          1           0        9.459347   -0.019971    0.624627
    108          1           0       10.062391   -1.220081    1.436642
    109          1           0       11.866640   -1.806810   -0.336380
    110          1           0       10.932258   -0.817511   -1.286901
    111          1           0       11.587768    1.360026    0.222330
    112          1           0       12.556069    0.111849    1.310494
    113          1           0       13.196592    0.510097   -1.694218
    114          1           0       14.614006   -0.850423    0.502701
    115          1           0       13.978906   -1.706872   -0.829925
    116          1           0       15.295679   -0.703228   -1.202128
    117          1           0       13.397882    2.480852   -0.344655
    118          1           0       14.381239    1.619758    0.881146
    119          1           0       16.326495    1.215813   -0.821138
    120          1           0       15.289322    2.134961   -2.065571
    121          1           0       15.346828    4.319242   -0.879907
    122          1           0       16.333555    3.463712    0.486385
    123          1           0       18.174400    3.132905   -0.781673
    124          1           0       16.652852    4.625195   -2.827393
    125          1           0       18.241968    4.305607   -3.156636
    126          1           0       16.982186    3.004508   -3.155493
    127          1           0       18.096552    5.396458    0.248018
    128          1           0       18.725059    5.622267   -1.309770
    129          1           0       17.280676    6.147473   -1.006754
    130          1           0       -5.307243   -7.889494   -0.256991
    131          1           0       -6.624306   -7.256283    0.314772
    132          1           0       -5.022621   -7.122113    1.285089
    133          8           0       -7.697250    6.888529   -0.456638
    134          1           0       -9.248900    6.334856   -2.008374
 ---------------------------------------------------------------------

 SCF Done:  E(RCAM-B3LYP) =  -3043.34328373     A.U. after   16 cycles

 Excitation energies and oscillator strengths:

 Excited State   1:      Singlet-A      2.0266 eV  611.78 nm  f=0.1163  <S**2>=0.000
     243 -> 245        0.58175
     243 -> 246        0.12854
     244 -> 245       -0.19052
     244 -> 246        0.31061
 This state for optimization and/or second-order correction.
 Total Energy, E(TD-HF/TD-KS) =  -3043.26880680
 Copying the excited state density for this state as the 1-particle RhoCI density.

 The electronic state is 1-A.
 Alpha  occ. eigenvalues --  -46.80732 -19.22977 -19.22014 -19.17956 -19.17648
 Alpha  occ. eigenvalues --  -19.17179 -19.16832 -19.16724 -14.39111 -14.36902
 Alpha  occ. eigenvalues --  -14.36489 -14.35774 -10.35107 -10.34988 -10.32212
 Alpha  occ. eigenvalues --  -10.31055 -10.30567 -10.27804 -10.27163 -10.26987
 Alpha  occ. eigenvalues --  -10.26709 -10.26546 -10.26514 -10.26391 -10.26387
 Alpha  occ. eigenvalues --  -10.25903 -10.25817 -10.25460 -10.25380 -10.25346
 Alpha  occ. eigenvalues --  -10.24945 -10.24831 -10.24763 -10.24723 -10.24170
 Alpha  occ. eigenvalues --  -10.24078 -10.23953 -10.23748 -10.23359 -10.23283
 Alpha  occ. eigenvalues --  -10.23224 -10.23156 -10.22984 -10.22884 -10.22823
 Alpha  occ. eigenvalues --  -10.22706 -10.22483 -10.22200 -10.22187 -10.21950
 Alpha  occ. eigenvalues --  -10.21776 -10.21776 -10.21748 -10.21729 -10.21420
 Alpha  occ. eigenvalues --  -10.21068 -10.20955 -10.20866 -10.20539 -10.20129
 Alpha  occ. eigenvalues --  -10.20087 -10.19388 -10.19306 -10.19133 -10.18594
 Alpha  occ. eigenvalues --  -10.18212  -3.09417  -1.84332  -1.83898  -1.83844
 Alpha  occ. eigenvalues --   -1.15085  -1.12797  -1.09063  -1.06066  -1.05149
 Alpha  occ. eigenvalues --   -1.04748  -1.04726  -1.01379  -0.99001  -0.98343
 Alpha  occ. eigenvalues --   -0.97590  -0.87421  -0.87116  -0.86870  -0.85455
 Alpha  occ. eigenvalues --   -0.85188  -0.84829  -0.84112  -0.83670  -0.83559
 Alpha  occ. eigenvalues --   -0.82908  -0.82689  -0.82409  -0.81337  -0.79485
 Alpha  occ. eigenvalues --   -0.79109  -0.78473  -0.77646  -0.76919  -0.76459
 Alpha  occ. eigenvalues --   -0.75682  -0.74626  -0.73499  -0.72847  -0.71955
 Alpha  occ. eigenvalues --   -0.71745  -0.71260  -0.70997  -0.70630  -0.70231
 Alpha  occ. eigenvalues --   -0.69797  -0.69005  -0.68393  -0.66884  -0.66821
 Alpha  occ. eigenvalues --   -0.66272  -0.65946  -0.64396  -0.63995  -0.62880
 Alpha  occ. eigenvalues --   -0.62318  -0.61197  -0.60040  -0.60022  -0.59443
 Alpha  occ. eigenvalues --   -0.58460  -0.57944  -0.57876  -0.57693  -0.57345
 Alpha  occ. eigenvalues --   -0.56622  -0.55579  -0.55288  -0.54820  -0.54199
 Alpha  occ. eigenvalues --   -0.53995  -0.53871  -0.52584  -0.52376  -0.52153
 Alpha  occ. eigenvalues --   -0.51870  -0.51590  -0.51332  -0.51080  -0.50725
 Alpha  occ. eigenvalues --   -0.50402  -0.50231  -0.50043  -0.49930  -0.49566
 Alpha  occ. eigenvalues --   -0.49081  -0.48706  -0.48446  -0.48339  -0.47807
 Alpha  occ. eigenvalues --   -0.47623  -0.47517  -0.47341  -0.47141  -0.46897
 Alpha  occ. eigenvalues --   -0.46770  -0.46493  -0.46442  -0.46346  -0.46024
 Alpha  occ. eigenvalues --   -0.45547  -0.45341  -0.45107  -0.44969  -0.44818
 Alpha  occ. eigenvalues --   -0.44465  -0.44407  -0.44093  -0.43880  -0.43848
 Alpha  occ. eigenvalues --   -0.43473  -0.43096  -0.43048  -0.43012  -0.42586
 Alpha  occ. eigenvalues --   -0.42531  -0.42348  -0.41889  -0.41677  -0.41609
 Alpha  occ. eigenvalues --   -0.41400  -0.41269  -0.41143  -0.40995  -0.40863
 Alpha  occ. eigenvalues --   -0.40646  -0.40611  -0.40357  -0.40046  -0.39980
 Alpha  occ. eigenvalues --   -0.39925  -0.39727  -0.39588  -0.39381  -0.39144
 Alpha  occ. eigenvalues --   -0.38999  -0.38737  -0.38597  -0.38446  -0.38165
 Alpha  occ. eigenvalues --   -0.37808  -0.37650  -0.37563  -0.37460  -0.37364
 Alpha  occ. eigenvalues --   -0.37209  -0.36942  -0.36865  -0.36783  -0.36210
 Alpha  occ. eigenvalues --   -0.36185  -0.35288  -0.35162  -0.35016  -0.34386
 Alpha  occ. eigenvalues --   -0.34326  -0.33908  -0.33850  -0.33555  -0.33475
 Alpha  occ. eigenvalues --   -0.33252  -0.33179  -0.32542  -0.31839  -0.31371
 Alpha  occ. eigenvalues --   -0.31287  -0.30981  -0.30782  -0.30617  -0.30209
 Alpha  occ. eigenvalues --   -0.28762  -0.28268  -0.27855  -0.27705  -0.27194
 Alpha  occ. eigenvalues --   -0.27176  -0.27030  -0.22243  -0.22118
 Alpha virt. eigenvalues --   -0.09009  -0.06978  -0.01807  -0.01367   0.00879
 Alpha virt. eigenvalues --    0.03029   0.03389   0.03929   0.04043   0.04273
 Alpha virt. eigenvalues --    0.04657   0.05848   0.07212   0.08366   0.08642

 Mulliken charges:
               1
     1  Mg   0.820261
     2  C    0.017715
     3  C   -0.124927
     4  C   -0.170972
     5  C   -0.214094
     6  N   -0.631243
     7  C    0.284555
     8  C   -0.134049
     9  C   -0.153701
    10  C    0.341295
    11  C   -0.281340
    12  C   -0.167432
    13  C   -0.284275
    14  C    0.615036
    15  O   -0.482582
    16  O   -0.445874
    17  N   -0.719398
    18  C    0.332410
    19  C    0.030522
    20  C    0.044851
    21  C    0.238574
    22  C   -0.360358
    23  C    0.227649
    24  O   -0.428002
    25  N   -0.660568
    26  C    0.259437
    27  C    0.045136
    28  C    0.058294
    29  C    0.335665
    30  C    0.214076
    31  C   -0.265482
    32  C   -0.298496
    33  N   -0.727741
    34  C    0.314940
    35  C   -0.033542
    36  C    0.019651
    37  C    0.334185
    38  C   -0.333657
    39  C    0.353342
    40  O   -0.417284
    41  C   -0.308694
    42  C    0.613325
    43  O   -0.455616
    44  O   -0.448300
    45  C   -0.095876
    46  C   -0.004775
    47  C   -0.120895
    48  C    0.076932
    49  C   -0.369948
    50  C   -0.187640
    51  C   -0.180951
    52  C   -0.159703
    53  C   -0.053197
    54  C   -0.315027
    55  C   -0.178790
    56  C   -0.181779
    57  C   -0.165673
    58  C   -0.057143
    59  C   -0.307653
    60  C   -0.147457
    61  C   -0.169316
    62  C   -0.140394
    63  C   -0.071000
    64  C   -0.309622
    65  C   -0.328864
    66  H    0.027633
    67  H    0.114423
    68  H    0.075176
    69  H    0.121932
    70  H    0.111206
    71  H    0.105678
    72  H    0.099990
    73  H    0.131580
    74  H    0.128252
    75  H    0.115342
    76  H    0.114357
    77  H    0.136760
    78  H    0.127030
    79  H    0.154673
    80  H    0.099831
    81  H    0.093020
    82  H    0.122186
    83  H    0.082317
    84  H    0.111189
    85  H    0.135048
    86  H    0.110513
    87  H    0.084184
    88  H    0.148293
    89  H    0.099269
    90  H    0.158100
    91  H    0.118175
    92  H    0.125541
    93  H    0.078723
    94  H    0.154142
    95  H    0.119652
    96  H    0.109225
    97  H    0.100247
    98  H    0.084158
    99  H    0.101570
   100  H    0.100406
   101  H    0.077757
   102  H    0.076748
   103  H    0.095214
   104  H    0.074620
   105  H    0.121004
   106  H    0.092638
   107  H    0.093882
   108  H    0.094452
   109  H    0.077060
   110  H    0.103279
   111  H    0.081486
   112  H    0.056692
   113  H    0.054217
   114  H    0.102576
   115  H    0.100452
   116  H    0.100500
   117  H    0.069706
   118  H    0.083193
   119  H    0.052748
   120  H    0.101003
   121  H    0.082322
   122  H    0.103102
   123  H    0.078112
   124  H    0.114428
   125  H    0.104983
   126  H    0.107913
   127  H    0.100152
   128  H    0.098849
   129  H    0.092548
   130  H    0.116533
   131  H    0.128171
   132  H    0.133821
   133  O   -0.424760
   134  H    0.070261
 Sum of Mulliken charges =   0.00000

 Dipole moment (field-independent basis, Debye):
    X=              1.9719    Y=             -4.4701    Z=             -0.6808  Tot=              4.9329
 Quadrupole moment (field-independent basis, Debye-Ang):
   XX=           -374.9525   YY=           -428.5942   ZZ=           -394.5127
   XY=              8.6098   XZ=             20.6762   YZ=            -36.2951

 Normal termination of Gaussian 09 at Mon Oct  7 15:02:33 2019.
