 Gaussian 09, Revision D.01,
 Gaussian 09:  ES64L-G09RevD.01 24-Apr-2013

 ----------------------------------------------------------------------
 # td=(NStates=1) iop(3/107=0140000000,3/108=0140000000) iop(3/107=0140
 000000,3/108=0140000000) CAM-B3LYP/6-31G(d,p)
 ----------------------------------------------------------------------

 --
 TD
 --
 Symbolic Z-matrix:
 Charge =  0 Multiplicity = 1

                         Standard orientation:
 ---------------------------------------------------------------------
 Center     Atomic      Atomic             Coordinates (Angstroms)
 Number     Number       Type             X           Y           Z
 ---------------------------------------------------------------------
      1         12           0       -5.610490    1.262155    0.231196
      2          6           0       -5.019814   -2.214043   -0.364130
      3          6           0       -3.419189    1.254771    2.768653
      4          6           0       -6.219569    4.581985    0.547346
      5          6           0       -7.960122    1.127995   -2.258163
      6          7           0       -4.388864   -0.253106    1.031689
      7          6           0       -4.281321   -1.518162    0.661714
      8          6           0       -3.190564   -2.269933    1.504417
      9          6           0       -2.873010   -1.237509    2.576128
     10          6           0       -3.548567    0.048969    2.092715
     11          6           0       -3.351067   -1.683416    3.930135
     12          6           0       -1.954952   -2.577328    0.565268
     13          6           0       -0.944805   -3.501398    1.450172
     14          6           0        0.126641   -3.905132    0.621365
     15          8           0        0.328521   -3.569648   -0.631786
     16          8           0        1.030982   -4.703216    1.361868
     17          7           0       -4.901780    2.743900    1.383033
     18          6           0       -3.934982    2.504710    2.425814
     19          6           0       -3.634630    3.782835    3.047693
     20          6           0       -4.379604    4.740997    2.452834
     21          6           0       -5.125223    4.051664    1.291472
     22          6           0       -2.586151    3.987229    4.158142
     23          6           0       -4.543571    6.101728    2.752917
     24          8           0       -3.850191    6.705411    3.659971
     25          7           0       -7.042942    2.599026   -0.580606
     26          6           0       -7.035012    3.978109   -0.317425
     27          6           0       -8.076077    4.608832   -1.241592
     28          6           0       -8.569310    3.526838   -1.986551
     29          6           0       -7.844630    2.391443   -1.631773
     30          6           0       -8.490317    5.905300   -1.109497
     31          6           0       -9.568124    3.645893   -3.135013
     32          6           0       -8.908952    3.865146   -4.570886
     33          7           0       -6.320966   -0.175485   -1.006923
     34          6           0       -7.337560   -0.070013   -1.991941
     35          6           0       -7.552457   -1.297140   -2.636480
     36          6           0       -6.637476   -2.206593   -2.060291
     37          6           0       -6.021836   -1.404710   -1.059755
     38          6           0       -8.564399   -1.658233   -3.717738
     39          6           0       -6.200736   -3.543192   -1.958113
     40          8           0       -6.471470   -4.517084   -2.659227
     41          6           0       -4.968306   -3.621195   -0.847243
     42          6           0       -5.374199   -4.710909    0.158083
     43          8           0       -5.872078   -4.468843    1.230939
     44          8           0       -5.092733   -5.832976   -0.347915
     45          6           0       -5.471817   -7.048065    0.417755
     46          6           0        2.256439   -5.085607    0.649640
     47          6           0        3.313765   -4.112944    1.050018
     48          6           0        4.117261   -3.437548    0.281459
     49          6           0        3.813280   -3.230928   -1.219492
     50          6           0        5.203898   -2.446649    0.777639
     51          6           0        6.576525   -2.725809    0.166843
     52          6           0        7.670945   -1.761642    0.582826
     53          6           0        9.047648   -1.959799   -0.022104
     54          6           0        9.492991   -3.388207    0.179583
     55          6           0       10.046165   -0.927336    0.533508
     56          6           0       11.372999   -0.901765   -0.189453
     57          6           0       12.228595    0.386173    0.127481
     58          6           0       13.571145    0.454560   -0.505710
     59          6           0       14.372891   -0.786866   -0.351722
     60          6           0       14.343372    1.761849   -0.016805
     61          6           0       15.506119    2.150520   -0.946939
     62          6           0       16.088802    3.490860   -0.604955
     63          6           0       17.343091    3.867145   -1.536011
     64          6           0       17.123102    3.957484   -3.080715
     65          6           0       17.998626    5.217283   -1.021085
     66          1           0       -2.936532    1.282248    3.637883
     67          1           0       -6.308630    5.721266    0.573411
     68          1           0       -8.930351    1.122655   -3.194230
     69          1           0       -3.488897   -3.209991    1.997093
     70          1           0       -1.751520   -1.176824    2.524217
     71          1           0       -2.859604   -2.550302    4.432072
     72          1           0       -3.252282   -0.854025    4.658937
     73          1           0       -4.450249   -2.152171    3.712249
     74          1           0       -2.054616   -3.124335   -0.304248
     75          1           0       -1.636254   -1.642747    0.007710
     76          1           0       -0.765011   -3.117255    2.409486
     77          1           0       -1.529333   -4.381225    1.760884
     78          1           0       -1.597598    3.541260    3.955631
     79          1           0       -2.364907    5.132870    4.374574
     80          1           0       -2.947006    3.386597    5.022712
     81          1           0       -5.321747    6.620352    2.233805
     82          1           0      -10.184222    2.727839   -3.051218
     83          1           0      -10.397003    4.432704   -2.990002
     84          1           0       -9.730205    4.332289   -5.318953
     85          1           0       -8.019107    4.654751   -4.416112
     86          1           0       -8.537332    2.890634   -4.928409
     87          1           0       -8.511844   -0.936669   -4.700500
     88          1           0       -8.437777   -2.776386   -3.915084
     89          1           0       -9.506681   -1.482571   -3.289878
     90          1           0       -4.169000   -4.167331   -1.539422
     91          1           0        2.550942   -6.148549    1.152543
     92          1           0        2.133569   -5.247667   -0.527088
     93          1           0        3.541863   -4.065235    2.138926
     94          1           0        2.770633   -3.705205   -1.451521
     95          1           0        3.816875   -2.234637   -1.665356
     96          1           0        4.535438   -3.855215   -1.671685
     97          1           0        4.976741   -1.364872    0.618069
     98          1           0        5.255146   -2.594310    1.892815
     99          1           0        6.966254   -3.760253    0.360230
    100          1           0        6.532545   -2.710165   -1.039124
    101          1           0        7.380768   -0.705086    0.352490
    102          1           0        7.870636   -1.946535    1.663069
    103          1           0        8.866149   -1.979535   -1.061676
    104          1           0        8.859671   -4.126129   -0.183904
    105          1           0       10.401555   -3.861461   -0.168064
    106          1           0        9.644842   -3.443431    1.307614
    107          1           0        9.582327    0.237215    0.538759
    108          1           0       10.096254   -0.922490    1.576850
    109          1           0       11.951307   -1.709982    0.096647
    110          1           0       11.194517   -1.000833   -1.266964
    111          1           0       11.647518    1.323267   -0.023584
    112          1           0       12.531092    0.336152    1.365947
    113          1           0       13.509569    0.639802   -1.481791
    114          1           0       14.466334   -0.894833    0.673484
    115          1           0       14.079515   -1.694041   -0.706239
    116          1           0       15.576711   -0.570784   -0.742166
    117          1           0       13.730116    2.590115   -0.213498
    118          1           0       14.520297    1.815493    0.918891
    119          1           0       16.267603    1.318465   -0.886038
    120          1           0       15.410917    2.105929   -2.060085
    121          1           0       15.328994    4.270342   -0.729554
    122          1           0       16.655803    3.542084    0.448148
    123          1           0       18.200869    3.044413   -1.425326
    124          1           0       16.428601    4.945945   -3.219758
    125          1           0       18.247976    3.906650   -3.592561
    126          1           0       16.341313    3.201011   -3.577233
    127          1           0       18.295483    5.145080   -0.006587
    128          1           0       18.873967    5.596077   -1.479896
    129          1           0       17.178113    5.888369   -1.168777
    130          1           0       -5.049837   -7.880290   -0.026212
    131          1           0       -6.509026   -6.878796    0.412162
    132          1           0       -5.135463   -6.727233    1.264951
    133          8           0       -7.907538    6.754501   -0.294617
    134          1           0       -9.408731    6.406703   -1.518312
 ---------------------------------------------------------------------

 SCF Done:  E(RCAM-B3LYP) =  -3043.44781313     A.U. after   16 cycles

 Excitation energies and oscillator strengths:

 Excited State   1:      Singlet-A      1.9303 eV  642.30 nm  f=0.1780  <S**2>=0.000
     243 -> 246       -0.26087
     244 -> 245        0.65008
 This state for optimization and/or second-order correction.
 Total Energy, E(TD-HF/TD-KS) =  -3043.37687511
 Copying the excited state density for this state as the 1-particle RhoCI density.

 The electronic state is 1-A.
 Alpha  occ. eigenvalues --  -46.82177 -19.22927 -19.22907 -19.17926 -19.16997
 Alpha  occ. eigenvalues --  -19.15996 -19.15830 -19.15552 -14.39740 -14.37668
 Alpha  occ. eigenvalues --  -14.37472 -14.37238 -10.36320 -10.34197 -10.31346
 Alpha  occ. eigenvalues --  -10.29696 -10.29575 -10.29048 -10.28374 -10.28067
 Alpha  occ. eigenvalues --  -10.27344 -10.27058 -10.26899 -10.26789 -10.26654
 Alpha  occ. eigenvalues --  -10.26525 -10.26511 -10.26013 -10.25909 -10.25280
 Alpha  occ. eigenvalues --  -10.25253 -10.24938 -10.24924 -10.24848 -10.24514
 Alpha  occ. eigenvalues --  -10.24436 -10.24193 -10.24141 -10.23985 -10.23709
 Alpha  occ. eigenvalues --  -10.23690 -10.23637 -10.23431 -10.23116 -10.23079
 Alpha  occ. eigenvalues --  -10.23033 -10.22999 -10.22767 -10.22682 -10.22430
 Alpha  occ. eigenvalues --  -10.22426 -10.22216 -10.22200 -10.22008 -10.21636
 Alpha  occ. eigenvalues --  -10.21219 -10.21205 -10.20850 -10.20685 -10.20482
 Alpha  occ. eigenvalues --  -10.20424 -10.19964 -10.19797 -10.19670 -10.19171
 Alpha  occ. eigenvalues --  -10.18850  -3.10769  -1.85711  -1.85240  -1.85179
 Alpha  occ. eigenvalues --   -1.16098  -1.10340  -1.06201  -1.05043  -1.02718
 Alpha  occ. eigenvalues --   -1.01972  -1.01566  -1.01383  -1.00690  -0.99991
 Alpha  occ. eigenvalues --   -0.98814  -0.87876  -0.86391  -0.86197  -0.85889
 Alpha  occ. eigenvalues --   -0.85437  -0.84844  -0.84681  -0.84522  -0.83935
 Alpha  occ. eigenvalues --   -0.83105  -0.82597  -0.82358  -0.81188  -0.79982
 Alpha  occ. eigenvalues --   -0.79091  -0.78640  -0.78159  -0.77553  -0.76497
 Alpha  occ. eigenvalues --   -0.75382  -0.75104  -0.73784  -0.73583  -0.72556
 Alpha  occ. eigenvalues --   -0.71181  -0.71086  -0.70367  -0.70201  -0.69973
 Alpha  occ. eigenvalues --   -0.69516  -0.69057  -0.67811  -0.66939  -0.66694
 Alpha  occ. eigenvalues --   -0.66055  -0.65058  -0.64851  -0.62299  -0.62142
 Alpha  occ. eigenvalues --   -0.61918  -0.61394  -0.60956  -0.59804  -0.59623
 Alpha  occ. eigenvalues --   -0.59479  -0.58652  -0.57934  -0.57158  -0.56652
 Alpha  occ. eigenvalues --   -0.56537  -0.55974  -0.55654  -0.55154  -0.54848
 Alpha  occ. eigenvalues --   -0.54591  -0.54140  -0.53741  -0.52937  -0.52132
 Alpha  occ. eigenvalues --   -0.51744  -0.51588  -0.51503  -0.51386  -0.50711
 Alpha  occ. eigenvalues --   -0.50461  -0.49765  -0.49752  -0.49058  -0.48841
 Alpha  occ. eigenvalues --   -0.48777  -0.48654  -0.48437  -0.48092  -0.47920
 Alpha  occ. eigenvalues --   -0.47571  -0.47525  -0.47288  -0.46865  -0.46729
 Alpha  occ. eigenvalues --   -0.46441  -0.46289  -0.46086  -0.46046  -0.45746
 Alpha  occ. eigenvalues --   -0.45683  -0.45437  -0.45303  -0.45104  -0.44878
 Alpha  occ. eigenvalues --   -0.44572  -0.44166  -0.43875  -0.43614  -0.43535
 Alpha  occ. eigenvalues --   -0.43342  -0.43304  -0.43068  -0.42964  -0.42662
 Alpha  occ. eigenvalues --   -0.42479  -0.42258  -0.42006  -0.41574  -0.41460
 Alpha  occ. eigenvalues --   -0.41292  -0.40939  -0.40863  -0.40717  -0.40599
 Alpha  occ. eigenvalues --   -0.40432  -0.40338  -0.39980  -0.39948  -0.39802
 Alpha  occ. eigenvalues --   -0.39313  -0.39256  -0.39135  -0.39032  -0.38972
 Alpha  occ. eigenvalues --   -0.38868  -0.38686  -0.38523  -0.38374  -0.38081
 Alpha  occ. eigenvalues --   -0.37883  -0.37617  -0.37501  -0.37299  -0.37129
 Alpha  occ. eigenvalues --   -0.36930  -0.36734  -0.36150  -0.36052  -0.35779
 Alpha  occ. eigenvalues --   -0.35451  -0.35394  -0.35339  -0.35035  -0.34356
 Alpha  occ. eigenvalues --   -0.33855  -0.33777  -0.33474  -0.33413  -0.33228
 Alpha  occ. eigenvalues --   -0.32613  -0.32413  -0.32328  -0.32140  -0.31908
 Alpha  occ. eigenvalues --   -0.31867  -0.30813  -0.30557  -0.30328  -0.29886
 Alpha  occ. eigenvalues --   -0.29257  -0.28385  -0.28157  -0.27985  -0.27371
 Alpha  occ. eigenvalues --   -0.26963  -0.26623  -0.23197  -0.21932
 Alpha virt. eigenvalues --   -0.09407  -0.07399  -0.02162  -0.01755   0.00179
 Alpha virt. eigenvalues --    0.00468   0.03149   0.03659   0.04471   0.04686
 Alpha virt. eigenvalues --    0.04939   0.05905   0.05995   0.08222   0.09032

 Mulliken charges:
               1
     1  Mg   0.830407
     2  C    0.091999
     3  C   -0.150011
     4  C   -0.179704
     5  C   -0.191400
     6  N   -0.639171
     7  C    0.309465
     8  C   -0.161808
     9  C   -0.130115
    10  C    0.331861
    11  C   -0.312362
    12  C   -0.186703
    13  C   -0.281147
    14  C    0.626196
    15  O   -0.503379
    16  O   -0.478626
    17  N   -0.685985
    18  C    0.276503
    19  C    0.063304
    20  C   -0.004455
    21  C    0.281962
    22  C   -0.386248
    23  C    0.211302
    24  O   -0.463477
    25  N   -0.689936
    26  C    0.290113
    27  C    0.040182
    28  C    0.033963
    29  C    0.339592
    30  C    0.162492
    31  C   -0.250622
    32  C   -0.291369
    33  N   -0.714888
    34  C    0.280060
    35  C    0.029545
    36  C    0.063459
    37  C    0.324671
    38  C   -0.374081
    39  C    0.320505
    40  O   -0.468594
    41  C   -0.343304
    42  C    0.613199
    43  O   -0.503743
    44  O   -0.428043
    45  C   -0.077520
    46  C   -0.008931
    47  C   -0.117406
    48  C    0.141578
    49  C   -0.374721
    50  C   -0.219452
    51  C   -0.179382
    52  C   -0.156987
    53  C   -0.061556
    54  C   -0.318973
    55  C   -0.158997
    56  C   -0.170562
    57  C   -0.164612
    58  C   -0.042123
    59  C   -0.301223
    60  C   -0.167718
    61  C   -0.186417
    62  C   -0.162179
    63  C   -0.064593
    64  C   -0.282034
    65  C   -0.310128
    66  H    0.072856
    67  H    0.150188
    68  H    0.070158
    69  H    0.111614
    70  H    0.108434
    71  H    0.110148
    72  H    0.111364
    73  H    0.112990
    74  H    0.135330
    75  H    0.117429
    76  H    0.155786
    77  H    0.151010
    78  H    0.121718
    79  H    0.164584
    80  H    0.120469
    81  H    0.102216
    82  H    0.109080
    83  H    0.109830
    84  H    0.102836
    85  H    0.110508
    86  H    0.119423
    87  H    0.109236
    88  H    0.149048
    89  H    0.142396
    90  H    0.155390
    91  H    0.101640
    92  H    0.131012
    93  H    0.079538
    94  H    0.118913
    95  H    0.119774
    96  H    0.121696
    97  H    0.108031
    98  H    0.087503
    99  H    0.099306
   100  H    0.066940
   101  H    0.088152
   102  H    0.081800
   103  H    0.088196
   104  H    0.109067
   105  H    0.099049
   106  H    0.081862
   107  H    0.044831
   108  H    0.102539
   109  H    0.109840
   110  H    0.094794
   111  H    0.090380
   112  H    0.036921
   113  H    0.092967
   114  H    0.106848
   115  H    0.113697
   116  H    0.056095
   117  H    0.092151
   118  H    0.096927
   119  H    0.084033
   120  H    0.089118
   121  H    0.092006
   122  H    0.081144
   123  H    0.064406
   124  H    0.075276
   125  H    0.094044
   126  H    0.088986
   127  H    0.102425
   128  H    0.104144
   129  H    0.103442
   130  H    0.142892
   131  H    0.151539
   132  H    0.143678
   133  O   -0.468428
   134  H    0.089110
 Sum of Mulliken charges =   0.00000

 Dipole moment (field-independent basis, Debye):
    X=              0.9260    Y=             -6.9722    Z=             -1.1571  Tot=              7.1280
 Quadrupole moment (field-independent basis, Debye-Ang):
   XX=           -376.4622   YY=           -437.0350   ZZ=           -398.3244
   XY=             17.2718   XZ=             27.7353   YZ=            -38.8470

 Normal termination of Gaussian 09 at Tue Oct  8 10:03:48 2019.
