 Gaussian 09, Revision D.01,
 Gaussian 09:  ES64L-G09RevD.01 24-Apr-2013

 ----------------------------------------------------------------------
 # td=(NStates=1) iop(3/107=0140000000,3/108=0140000000) iop(3/107=0140
 000000,3/108=0140000000) CAM-B3LYP/6-31G(d,p)
 ----------------------------------------------------------------------

 --
 TD
 --
 Symbolic Z-matrix:
 Charge =  0 Multiplicity = 1

                         Standard orientation:
 ---------------------------------------------------------------------
 Center     Atomic      Atomic             Coordinates (Angstroms)
 Number     Number       Type             X           Y           Z
 ---------------------------------------------------------------------
      1         12           0       -5.543986    1.257930    0.137360
      2          6           0       -5.020146   -2.194718   -0.328854
      3          6           0       -3.453152    1.142725    2.783630
      4          6           0       -6.202129    4.609249    0.571205
      5          6           0       -8.022550    1.179254   -2.336584
      6          7           0       -4.370067   -0.203735    1.091872
      7          6           0       -4.232819   -1.587064    0.643997
      8          6           0       -3.227239   -2.244805    1.520721
      9          6           0       -2.878979   -1.248599    2.654790
     10          6           0       -3.617198   -0.058871    2.238154
     11          6           0       -3.333311   -1.687881    4.005353
     12          6           0       -1.949500   -2.620781    0.606932
     13          6           0       -0.929400   -3.468829    1.471605
     14          6           0        0.252789   -3.841181    0.665659
     15          8           0        0.470351   -3.530740   -0.466506
     16          8           0        1.030870   -4.713358    1.338169
     17          7           0       -4.901682    2.577475    1.448937
     18          6           0       -4.020796    2.400443    2.488616
     19          6           0       -3.839892    3.628166    3.090745
     20          6           0       -4.546830    4.712047    2.507259
     21          6           0       -5.247172    4.025190    1.452865
     22          6           0       -2.840115    3.870525    4.212268
     23          6           0       -4.698878    6.048743    2.838721
     24          8           0       -4.077599    6.632116    3.793956
     25          7           0       -6.829332    2.618149   -0.737879
     26          6           0       -6.913876    3.905565   -0.431015
     27          6           0       -8.004639    4.489000   -1.268540
     28          6           0       -8.451814    3.600224   -2.140162
     29          6           0       -7.817761    2.387709   -1.773612
     30          6           0       -8.440666    5.939382   -1.173272
     31          6           0       -9.649583    3.761036   -3.030273
     32          6           0       -9.067571    3.757598   -4.567735
     33          7           0       -6.357626   -0.150774   -1.044869
     34          6           0       -7.421998   -0.090565   -2.005850
     35          6           0       -7.587724   -1.354123   -2.599826
     36          6           0       -6.695810   -2.205456   -1.969416
     37          6           0       -6.007642   -1.435003   -1.095334
     38          6           0       -8.566091   -1.656664   -3.771379
     39          6           0       -6.189307   -3.555201   -1.907805
     40          8           0       -6.512461   -4.549827   -2.412604
     41          6           0       -4.984854   -3.511564   -0.847713
     42          6           0       -5.279343   -4.666804    0.167059
     43          8           0       -5.605917   -4.546373    1.267832
     44          8           0       -4.875195   -5.842738   -0.328420
     45          6           0       -5.297715   -7.054589    0.375915
     46          6           0        2.222532   -5.120169    0.680101
     47          6           0        3.429264   -4.159923    1.087760
     48          6           0        4.062531   -3.349982    0.264466
     49          6           0        3.627902   -3.075052   -1.260484
     50          6           0        5.262049   -2.470114    0.780182
     51          6           0        6.516174   -2.678737   -0.087806
     52          6           0        7.624997   -1.884039    0.529755
     53          6           0        9.091957   -1.868803   -0.118562
     54          6           0        9.725483   -3.315034   -0.046591
     55          6           0       10.026557   -0.784514    0.361638
     56          6           0       11.363800   -0.781599   -0.347152
     57          6           0       12.120205    0.383981   -0.061445
     58          6           0       13.543737    0.473352   -0.625327
     59          6           0       14.465011   -0.622572   -0.445008
     60          6           0       14.204227    1.779755   -0.181175
     61          6           0       15.491815    2.111648   -1.046226
     62          6           0       16.043538    3.483166   -0.586191
     63          6           0       17.371943    3.812032   -1.253824
     64          6           0       17.278580    4.006372   -2.773102
     65          6           0       17.883568    5.161141   -0.603878
     66          1           0       -2.735736    1.235322    3.607644
     67          1           0       -6.404999    5.540499    0.708752
     68          1           0       -8.740457    1.197636   -3.189730
     69          1           0       -3.542559   -3.311194    1.759843
     70          1           0       -1.767192   -0.965523    2.619651
     71          1           0       -2.915168   -2.687859    4.257232
     72          1           0       -3.068906   -1.044784    4.963925
     73          1           0       -4.416146   -1.771471    3.862854
     74          1           0       -2.120710   -3.350928   -0.154599
     75          1           0       -1.416514   -1.777701    0.348807
     76          1           0       -0.638691   -2.828050    2.258419
     77          1           0       -1.381748   -4.285993    1.900957
     78          1           0       -1.793074    3.801444    3.834394
     79          1           0       -2.741078    4.913999    4.567984
     80          1           0       -3.033846    2.974819    4.956484
     81          1           0       -5.475709    6.743396    2.371176
     82          1           0      -10.343076    2.939317   -2.933329
     83          1           0      -10.114412    4.838787   -2.868107
     84          1           0       -9.634648    3.933163   -5.235745
     85          1           0       -8.378123    4.629466   -4.429381
     86          1           0       -8.672895    2.906839   -4.855014
     87          1           0       -8.531047   -0.969587   -4.597410
     88          1           0       -8.439499   -2.729712   -4.093762
     89          1           0       -9.623237   -1.395621   -3.366814
     90          1           0       -4.149468   -3.654360   -1.442800
     91          1           0        2.521240   -5.962135    1.153526
     92          1           0        1.892098   -5.137604   -0.407399
     93          1           0        3.713387   -4.173961    2.062791
     94          1           0        2.780147   -3.297243   -1.438272
     95          1           0        3.846901   -2.037419   -1.680028
     96          1           0        4.142986   -3.655957   -1.908553
     97          1           0        4.798415   -1.574698    0.764704
     98          1           0        5.417263   -2.628902    1.834056
     99          1           0        6.866498   -3.793842   -0.161066
    100          1           0        6.303502   -2.259076   -0.994323
    101          1           0        7.267097   -0.843256    0.447034
    102          1           0        7.768359   -2.033321    1.578795
    103          1           0        8.927562   -1.728413   -1.235007
    104          1           0        8.886408   -3.905974   -0.331563
    105          1           0       10.668671   -3.395189   -0.739950
    106          1           0       10.304431   -3.653724    1.060874
    107          1           0        9.668685    0.166096    0.352741
    108          1           0       10.203662   -1.051210    1.475702
    109          1           0       11.849298   -1.615532   -0.129693
    110          1           0       11.335507   -0.837857   -1.487431
    111          1           0       11.587799    1.332195   -0.258235
    112          1           0       12.279636    0.508619    1.076438
    113          1           0       13.576079    0.558679   -1.728995
    114          1           0       14.620124   -0.765928    0.650805
    115          1           0       13.937898   -1.547985   -0.915448
    116          1           0       15.450212   -0.165042   -0.869613
    117          1           0       13.561833    2.760653   -0.103161
    118          1           0       14.520899    1.715835    0.861201
    119          1           0       16.273831    1.383806   -0.957916
    120          1           0       15.275584    2.235266   -1.887927
    121          1           0       15.363565    4.417203   -1.016926
    122          1           0       16.192863    3.492750    0.396389
    123          1           0       17.965031    3.098609   -0.820918
    124          1           0       16.408183    4.467449   -2.925512
    125          1           0       18.286866    4.393016   -3.162919
    126          1           0       17.274923    2.972817   -3.231365
    127          1           0       18.049153    4.909642    0.442450
    128          1           0       18.796784    5.332408   -1.151302
    129          1           0       17.126857    6.027697   -0.839714
    130          1           0       -5.104247   -7.850006   -0.217831
    131          1           0       -6.381858   -6.947483    0.701583
    132          1           0       -4.636677   -7.157236    1.368892
    133          8           0       -7.868412    6.766338   -0.612758
    134          1           0       -9.295784    6.207653   -1.961978
 ---------------------------------------------------------------------

 SCF Done:  E(RCAM-B3LYP) =  -3043.39760739     A.U. after   16 cycles

 Excitation energies and oscillator strengths:

 Excited State   1:      Singlet-A      1.9727 eV  628.50 nm  f=0.2275  <S**2>=0.000
     243 -> 245       -0.10220
     243 -> 246        0.21024
     244 -> 245        0.66142
 This state for optimization and/or second-order correction.
 Total Energy, E(TD-HF/TD-KS) =  -3043.32511245
 Copying the excited state density for this state as the 1-particle RhoCI density.

 The electronic state is 1-A.
 Alpha  occ. eigenvalues --  -46.80040 -19.21527 -19.21450 -19.18789 -19.17173
 Alpha  occ. eigenvalues --  -19.17169 -19.16965 -19.16178 -14.38562 -14.37386
 Alpha  occ. eigenvalues --  -14.36958 -14.36053 -10.34481 -10.34388 -10.31573
 Alpha  occ. eigenvalues --  -10.30598 -10.30193 -10.27884 -10.27505 -10.27108
 Alpha  occ. eigenvalues --  -10.27025 -10.26786 -10.26754 -10.26627 -10.26037
 Alpha  occ. eigenvalues --  -10.25873 -10.25223 -10.25155 -10.25138 -10.24840
 Alpha  occ. eigenvalues --  -10.24683 -10.24671 -10.24432 -10.24198 -10.23552
 Alpha  occ. eigenvalues --  -10.23478 -10.23256 -10.23156 -10.23093 -10.23069
 Alpha  occ. eigenvalues --  -10.22975 -10.22937 -10.22477 -10.22398 -10.22382
 Alpha  occ. eigenvalues --  -10.22308 -10.22227 -10.22221 -10.21478 -10.20819
 Alpha  occ. eigenvalues --  -10.20787 -10.20775 -10.20704 -10.20442 -10.20267
 Alpha  occ. eigenvalues --  -10.20248 -10.20203 -10.20161 -10.20139 -10.20107
 Alpha  occ. eigenvalues --  -10.20087 -10.20012 -10.19857 -10.19069 -10.18655
 Alpha  occ. eigenvalues --  -10.18407  -3.08840  -1.83765  -1.83322  -1.83257
 Alpha  occ. eigenvalues --   -1.14882  -1.14159  -1.12010  -1.10131  -1.05889
 Alpha  occ. eigenvalues --   -1.05489  -1.03034  -1.00248  -0.99510  -0.98732
 Alpha  occ. eigenvalues --   -0.97473  -0.89117  -0.86694  -0.86597  -0.85751
 Alpha  occ. eigenvalues --   -0.85310  -0.84827  -0.84653  -0.83867  -0.83357
 Alpha  occ. eigenvalues --   -0.83142  -0.82713  -0.82267  -0.81089  -0.80308
 Alpha  occ. eigenvalues --   -0.79198  -0.78557  -0.78159  -0.77115  -0.76767
 Alpha  occ. eigenvalues --   -0.75920  -0.75181  -0.74261  -0.73120  -0.72681
 Alpha  occ. eigenvalues --   -0.71662  -0.71141  -0.70308  -0.70136  -0.69564
 Alpha  occ. eigenvalues --   -0.69225  -0.69120  -0.68365  -0.67944  -0.66529
 Alpha  occ. eigenvalues --   -0.65929  -0.65620  -0.63920  -0.63550  -0.62686
 Alpha  occ. eigenvalues --   -0.61698  -0.61278  -0.60700  -0.58787  -0.58696
 Alpha  occ. eigenvalues --   -0.58413  -0.58119  -0.57605  -0.57133  -0.57043
 Alpha  occ. eigenvalues --   -0.56579  -0.56023  -0.55397  -0.55378  -0.55150
 Alpha  occ. eigenvalues --   -0.54733  -0.54102  -0.53639  -0.52981  -0.52556
 Alpha  occ. eigenvalues --   -0.52072  -0.51742  -0.51652  -0.51340  -0.51182
 Alpha  occ. eigenvalues --   -0.50911  -0.50804  -0.50327  -0.49892  -0.49594
 Alpha  occ. eigenvalues --   -0.49441  -0.49179  -0.48983  -0.48819  -0.48095
 Alpha  occ. eigenvalues --   -0.48013  -0.47759  -0.47697  -0.47507  -0.47315
 Alpha  occ. eigenvalues --   -0.46942  -0.46867  -0.46618  -0.46377  -0.46224
 Alpha  occ. eigenvalues --   -0.45867  -0.45672  -0.45497  -0.45340  -0.45307
 Alpha  occ. eigenvalues --   -0.45101  -0.44621  -0.44057  -0.43917  -0.43798
 Alpha  occ. eigenvalues --   -0.43706  -0.43663  -0.43546  -0.43200  -0.43008
 Alpha  occ. eigenvalues --   -0.42978  -0.42892  -0.42653  -0.42383  -0.42201
 Alpha  occ. eigenvalues --   -0.41973  -0.41821  -0.41682  -0.41549  -0.41251
 Alpha  occ. eigenvalues --   -0.41079  -0.40667  -0.40601  -0.40521  -0.40234
 Alpha  occ. eigenvalues --   -0.39822  -0.39799  -0.39663  -0.39483  -0.39155
 Alpha  occ. eigenvalues --   -0.38968  -0.38610  -0.38600  -0.38243  -0.38169
 Alpha  occ. eigenvalues --   -0.38061  -0.37971  -0.37718  -0.37626  -0.37417
 Alpha  occ. eigenvalues --   -0.37224  -0.37179  -0.36939  -0.36673  -0.36519
 Alpha  occ. eigenvalues --   -0.36174  -0.35539  -0.35397  -0.35244  -0.34657
 Alpha  occ. eigenvalues --   -0.34506  -0.34089  -0.33352  -0.33253  -0.33011
 Alpha  occ. eigenvalues --   -0.32439  -0.32356  -0.32333  -0.31995  -0.31518
 Alpha  occ. eigenvalues --   -0.31345  -0.31137  -0.30745  -0.30154  -0.30067
 Alpha  occ. eigenvalues --   -0.29156  -0.28357  -0.27799  -0.27638  -0.27452
 Alpha  occ. eigenvalues --   -0.27395  -0.27211  -0.23035  -0.22093
 Alpha virt. eigenvalues --   -0.09625  -0.05967  -0.01562  -0.00413   0.01569
 Alpha virt. eigenvalues --    0.03522   0.04172   0.04471   0.04769   0.05094
 Alpha virt. eigenvalues --    0.05891   0.06250   0.07802   0.08652   0.09053

 Mulliken charges:
               1
     1  Mg   0.812460
     2  C    0.131175
     3  C   -0.196373
     4  C   -0.107452
     5  C   -0.181966
     6  N   -0.647384
     7  C    0.305879
     8  C   -0.184888
     9  C   -0.139351
    10  C    0.375969
    11  C   -0.300658
    12  C   -0.184407
    13  C   -0.287788
    14  C    0.606457
    15  O   -0.462927
    16  O   -0.462916
    17  N   -0.740977
    18  C    0.407454
    19  C   -0.013823
    20  C    0.101860
    21  C    0.227329
    22  C   -0.387365
    23  C    0.173930
    24  O   -0.448601
    25  N   -0.699175
    26  C    0.350219
    27  C   -0.088023
    28  C    0.105273
    29  C    0.277368
    30  C    0.255103
    31  C   -0.272558
    32  C   -0.294574
    33  N   -0.731135
    34  C    0.242084
    35  C    0.001135
    36  C    0.068994
    37  C    0.297068
    38  C   -0.373993
    39  C    0.318660
    40  O   -0.417995
    41  C   -0.376252
    42  C    0.606574
    43  O   -0.428714
    44  O   -0.452772
    45  C   -0.077930
    46  C    0.014817
    47  C   -0.166170
    48  C    0.115569
    49  C   -0.351722
    50  C   -0.235899
    51  C   -0.165301
    52  C   -0.184031
    53  C   -0.065072
    54  C   -0.289969
    55  C   -0.159435
    56  C   -0.155775
    57  C   -0.168638
    58  C   -0.053535
    59  C   -0.286847
    60  C   -0.189506
    61  C   -0.156339
    62  C   -0.164126
    63  C   -0.082012
    64  C   -0.297330
    65  C   -0.297245
    66  H    0.073837
    67  H    0.082640
    68  H    0.086019
    69  H    0.122450
    70  H    0.110798
    71  H    0.111801
    72  H    0.103124
    73  H    0.132118
    74  H    0.127769
    75  H    0.124249
    76  H    0.135694
    77  H    0.140243
    78  H    0.124315
    79  H    0.164391
    80  H    0.102987
    81  H    0.099309
    82  H    0.123547
    83  H    0.107792
    84  H    0.108694
    85  H    0.108244
    86  H    0.116480
    87  H    0.129084
    88  H    0.142087
    89  H    0.115572
    90  H    0.166476
    91  H    0.115329
    92  H    0.126851
    93  H    0.080763
    94  H    0.132063
    95  H    0.092524
    96  H    0.121020
    97  H    0.123684
    98  H    0.094022
    99  H    0.090313
   100  H    0.113317
   101  H    0.084057
   102  H    0.093999
   103  H    0.073546
   104  H    0.105430
   105  H    0.094689
   106  H    0.057938
   107  H    0.093876
   108  H    0.077208
   109  H    0.106393
   110  H    0.074262
   111  H    0.088393
   112  H    0.065678
   113  H    0.076772
   114  H    0.088938
   115  H    0.089958
   116  H    0.091158
   117  H    0.075663
   118  H    0.085202
   119  H    0.095867
   120  H    0.101527
   121  H    0.048435
   122  H    0.092768
   123  H    0.088569
   124  H    0.114989
   125  H    0.096678
   126  H    0.094085
   127  H    0.097475
   128  H    0.097412
   129  H    0.084712
   130  H    0.140473
   131  H    0.132947
   132  H    0.102610
   133  O   -0.358317
   134  H    0.030577
 Sum of Mulliken charges =   0.00000

 Dipole moment (field-independent basis, Debye):
    X=              0.4874    Y=             -3.7190    Z=             -2.0061  Tot=              4.2536
 Quadrupole moment (field-independent basis, Debye-Ang):
   XX=           -367.8492   YY=           -436.3379   ZZ=           -393.6372
   XY=              2.6108   XZ=             26.1856   YZ=            -34.3809

 Normal termination of Gaussian 09 at Wed Oct  9 12:02:59 2019.
