 Gaussian 09, Revision D.01,
 Gaussian 09:  ES64L-G09RevD.01 24-Apr-2013

 ----------------------------------------------------------------------
 # td=(NStates=1) iop(3/107=0140000000,3/108=0140000000) iop(3/107=0140
 000000,3/108=0140000000) CAM-B3LYP/6-31G(d,p)
 ----------------------------------------------------------------------

 --
 TD
 --
 Symbolic Z-matrix:
 Charge =  0 Multiplicity = 1

                         Standard orientation:
 ---------------------------------------------------------------------
 Center     Atomic      Atomic             Coordinates (Angstroms)
 Number     Number       Type             X           Y           Z
 ---------------------------------------------------------------------
      1         12           0       -5.529915    1.239818    0.214708
      2          6           0       -5.034874   -2.169930   -0.300988
      3          6           0       -3.311664    1.258698    2.783891
      4          6           0       -6.230591    4.554944    0.625716
      5          6           0       -7.956696    1.148859   -2.356959
      6          7           0       -4.540347   -0.283623    1.141504
      7          6           0       -4.377843   -1.637074    0.867997
      8          6           0       -3.277591   -2.326437    1.631517
      9          6           0       -3.120995   -1.259412    2.707535
     10          6           0       -3.674429   -0.022681    2.177488
     11          6           0       -3.653001   -1.834396    3.960753
     12          6           0       -2.114861   -2.664776    0.661596
     13          6           0       -1.060463   -3.680261    1.345748
     14          6           0        0.245456   -3.898471    0.567044
     15          8           0        0.398522   -3.490881   -0.574771
     16          8           0        1.009319   -4.603619    1.379621
     17          7           0       -4.758647    2.703790    1.457628
     18          6           0       -3.894696    2.474844    2.405535
     19          6           0       -3.517201    3.728190    3.108926
     20          6           0       -4.368097    4.683803    2.426812
     21          6           0       -5.105298    4.001741    1.380992
     22          6           0       -2.617460    4.017303    4.162097
     23          6           0       -4.276562    6.163389    2.692112
     24          8           0       -3.785612    6.709250    3.658124
     25          7           0       -6.801778    2.642648   -0.739004
     26          6           0       -7.010051    3.948102   -0.304874
     27          6           0       -7.989130    4.569614   -1.124328
     28          6           0       -8.490334    3.650328   -1.969070
     29          6           0       -7.701444    2.377478   -1.718864
     30          6           0       -8.318066    5.971200   -1.180649
     31          6           0       -9.407730    3.748648   -3.094421
     32          6           0       -8.879097    3.914173   -4.528451
     33          7           0       -6.320715   -0.088771   -1.093164
     34          6           0       -7.210824   -0.037565   -2.137036
     35          6           0       -7.418221   -1.304550   -2.875236
     36          6           0       -6.610253   -2.132334   -2.083080
     37          6           0       -5.917886   -1.403675   -1.079515
     38          6           0       -8.527453   -1.726705   -3.778113
     39          6           0       -6.266905   -3.573075   -2.050737
     40          8           0       -6.614871   -4.575749   -2.572829
     41          6           0       -5.055909   -3.484266   -0.930750
     42          6           0       -5.305356   -4.593023    0.181085
     43          8           0       -5.980108   -4.384674    1.234046
     44          8           0       -5.072448   -5.776190   -0.363598
     45          6           0       -5.284388   -7.001848    0.514011
     46          6           0        2.223974   -5.017665    0.755677
     47          6           0        3.273372   -4.019690    1.055867
     48          6           0        3.999519   -3.293510    0.220849
     49          6           0        3.665066   -3.255183   -1.218912
     50          6           0        5.121389   -2.351353    0.639638
     51          6           0        6.467910   -2.693982    0.104826
     52          6           0        7.643764   -1.816371    0.677756
     53          6           0        8.900484   -1.999836   -0.061250
     54          6           0        9.567212   -3.400727    0.113830
     55          6           0        9.944340   -0.850358    0.408841
     56          6           0       11.313362   -0.892795   -0.353206
     57          6           0       12.119661    0.299527    0.159151
     58          6           0       13.524484    0.342046   -0.571954
     59          6           0       14.555257   -0.857707   -0.404560
     60          6           0       14.248522    1.731892   -0.316280
     61          6           0       15.481777    2.011820   -1.131073
     62          6           0       16.078800    3.445699   -0.629522
     63          6           0       17.420383    3.767514   -1.276484
     64          6           0       17.299679    4.040000   -2.843012
     65          6           0       17.920277    5.107464   -0.705212
     66          1           0       -2.573157    1.296980    3.544572
     67          1           0       -6.601974    5.626296    0.863922
     68          1           0       -8.758873    1.073646   -3.123093
     69          1           0       -3.676950   -3.362657    1.936022
     70          1           0       -2.046109   -1.209955    3.166520
     71          1           0       -3.284858   -2.746885    4.264972
     72          1           0       -3.559054   -1.168761    4.861377
     73          1           0       -4.810686   -1.633613    3.856368
     74          1           0       -2.591673   -3.177001   -0.157756
     75          1           0       -1.490675   -1.756342    0.538468
     76          1           0       -0.710986   -3.294543    2.463165
     77          1           0       -1.401761   -4.712938    1.816278
     78          1           0       -1.511255    3.913698    3.663296
     79          1           0       -2.725678    5.048902    4.633090
     80          1           0       -2.653761    3.331804    4.946896
     81          1           0       -4.734861    6.715492    1.914329
     82          1           0      -10.266412    2.925795   -2.945954
     83          1           0       -9.998134    4.621787   -2.828837
     84          1           0       -9.700934    4.062170   -5.238482
     85          1           0       -8.323667    4.973264   -4.709833
     86          1           0       -8.217828    3.172544   -4.987481
     87          1           0       -8.328689   -1.553192   -4.756580
     88          1           0       -8.841146   -2.699993   -4.002127
     89          1           0       -9.670126   -1.409814   -3.445226
     90          1           0       -4.308866   -3.718939   -1.602651
     91          1           0        2.474135   -5.893918    1.269325
     92          1           0        2.020471   -5.060249   -0.359983
     93          1           0        3.613158   -4.021531    1.983975
     94          1           0        2.646518   -3.660661   -1.446949
     95          1           0        3.731297   -2.203432   -1.690187
     96          1           0        4.412775   -3.776988   -1.895406
     97          1           0        4.803380   -1.391580    0.362826
     98          1           0        5.233158   -2.388366    1.759505
     99          1           0        6.473960   -3.837377    0.450818
    100          1           0        6.470289   -2.626590   -0.946211
    101          1           0        7.322350   -0.784236    0.757149
    102          1           0        7.738537   -1.948594    1.781618
    103          1           0        8.674310   -1.694432   -1.073115
    104          1           0        8.750242   -4.190281   -0.173461
    105          1           0       10.417598   -3.550274   -0.487258
    106          1           0        9.742839   -3.345938    1.210938
    107          1           0        9.738863    0.240006    0.254916
    108          1           0       10.327338   -0.891124    1.551938
    109          1           0       11.845139   -1.763792   -0.297016
    110          1           0       11.127148   -0.937095   -1.489635
    111          1           0       11.561509    1.306704   -0.261239
    112          1           0       12.406495    0.228766    1.171534
    113          1           0       13.475001    0.237295   -1.639101
    114          1           0       14.697450   -0.759050    0.854883
    115          1           0       14.096569   -1.868029   -0.595422
    116          1           0       15.451587   -0.701034   -0.888864
    117          1           0       13.523136    2.569450   -0.593124
    118          1           0       14.196532    1.621110    0.827920
    119          1           0       16.185866    1.177589   -1.093073
    120          1           0       15.048569    2.090554   -2.213735
    121          1           0       15.349600    4.188324   -0.908019
    122          1           0       16.316598    3.229316    0.538929
    123          1           0       18.332527    2.979897   -1.225403
    124          1           0       16.702379    4.914199   -3.075405
    125          1           0       18.126591    4.314109   -3.305569
    126          1           0       16.923882    3.143258   -3.352292
    127          1           0       18.308177    4.754863    0.302454
    128          1           0       18.792033    5.736993   -1.223028
    129          1           0       17.082815    5.950929   -0.568045
    130          1           0       -4.736978   -7.679960   -0.076731
    131          1           0       -6.436439   -7.176448    0.679005
    132          1           0       -4.728647   -6.547623    1.443845
    133          8           0       -7.854331    6.768487   -0.367440
    134          1           0       -9.120928    6.282688   -1.961548
 ---------------------------------------------------------------------

 SCF Done:  E(RCAM-B3LYP) =  -3043.47514230     A.U. after   16 cycles

 Excitation energies and oscillator strengths:

 Excited State   1:      Singlet-A      1.9060 eV  650.48 nm  f=0.2089  <S**2>=0.000
     243 -> 246        0.23647
     244 -> 245        0.65360
 This state for optimization and/or second-order correction.
 Total Energy, E(TD-HF/TD-KS) =  -3043.40509704
 Copying the excited state density for this state as the 1-particle RhoCI density.

 The electronic state is 1-A.
 Alpha  occ. eigenvalues --  -46.81500 -19.23479 -19.22623 -19.18486 -19.17802
 Alpha  occ. eigenvalues --  -19.17473 -19.16422 -19.16280 -14.39801 -14.36586
 Alpha  occ. eigenvalues --  -14.36559 -14.36377 -10.35408 -10.34819 -10.31860
 Alpha  occ. eigenvalues --  -10.30980 -10.29386 -10.28966 -10.27887 -10.27819
 Alpha  occ. eigenvalues --  -10.27427 -10.26444 -10.26389 -10.25960 -10.25720
 Alpha  occ. eigenvalues --  -10.25362 -10.25338 -10.25325 -10.25325 -10.24485
 Alpha  occ. eigenvalues --  -10.24198 -10.24161 -10.23892 -10.23832 -10.23802
 Alpha  occ. eigenvalues --  -10.23697 -10.23687 -10.23629 -10.23527 -10.23387
 Alpha  occ. eigenvalues --  -10.23293 -10.23117 -10.22805 -10.22729 -10.22671
 Alpha  occ. eigenvalues --  -10.22523 -10.22313 -10.22226 -10.22198 -10.22079
 Alpha  occ. eigenvalues --  -10.22021 -10.21981 -10.21928 -10.21855 -10.21731
 Alpha  occ. eigenvalues --  -10.21720 -10.21694 -10.21301 -10.21264 -10.21157
 Alpha  occ. eigenvalues --  -10.21154 -10.21109 -10.20990 -10.20388 -10.19794
 Alpha  occ. eigenvalues --  -10.18479  -3.10064  -1.85003  -1.84532  -1.84480
 Alpha  occ. eigenvalues --   -1.15245  -1.12050  -1.09503  -1.06701  -1.05998
 Alpha  occ. eigenvalues --   -1.05897  -1.01864  -1.01016  -1.00249  -0.99551
 Alpha  occ. eigenvalues --   -0.98615  -0.88397  -0.86810  -0.85806  -0.85517
 Alpha  occ. eigenvalues --   -0.84867  -0.84115  -0.83933  -0.83384  -0.82965
 Alpha  occ. eigenvalues --   -0.82614  -0.82439  -0.81574  -0.80325  -0.79218
 Alpha  occ. eigenvalues --   -0.78772  -0.78312  -0.77306  -0.76739  -0.76240
 Alpha  occ. eigenvalues --   -0.75008  -0.74829  -0.73880  -0.72403  -0.72063
 Alpha  occ. eigenvalues --   -0.71305  -0.70796  -0.70468  -0.69569  -0.69513
 Alpha  occ. eigenvalues --   -0.69163  -0.68307  -0.67282  -0.66675  -0.66279
 Alpha  occ. eigenvalues --   -0.65622  -0.64545  -0.63669  -0.62323  -0.61379
 Alpha  occ. eigenvalues --   -0.60694  -0.60531  -0.60185  -0.59584  -0.59348
 Alpha  occ. eigenvalues --   -0.58069  -0.57791  -0.57633  -0.57364  -0.56836
 Alpha  occ. eigenvalues --   -0.56583  -0.56275  -0.55742  -0.55027  -0.54012
 Alpha  occ. eigenvalues --   -0.53882  -0.53371  -0.53091  -0.52312  -0.52060
 Alpha  occ. eigenvalues --   -0.51766  -0.51600  -0.51231  -0.50926  -0.50611
 Alpha  occ. eigenvalues --   -0.50273  -0.49945  -0.49864  -0.49472  -0.49316
 Alpha  occ. eigenvalues --   -0.48624  -0.48288  -0.48267  -0.48011  -0.47996
 Alpha  occ. eigenvalues --   -0.47549  -0.47365  -0.47031  -0.46931  -0.46771
 Alpha  occ. eigenvalues --   -0.46447  -0.46050  -0.45995  -0.45807  -0.45734
 Alpha  occ. eigenvalues --   -0.45350  -0.45128  -0.45059  -0.44886  -0.44751
 Alpha  occ. eigenvalues --   -0.44249  -0.44206  -0.44078  -0.43933  -0.43534
 Alpha  occ. eigenvalues --   -0.43464  -0.43263  -0.43203  -0.43081  -0.42913
 Alpha  occ. eigenvalues --   -0.42751  -0.42222  -0.42160  -0.41895  -0.41662
 Alpha  occ. eigenvalues --   -0.41580  -0.41204  -0.41049  -0.40819  -0.40670
 Alpha  occ. eigenvalues --   -0.40631  -0.40551  -0.40465  -0.40174  -0.39927
 Alpha  occ. eigenvalues --   -0.39803  -0.39758  -0.39680  -0.39546  -0.39272
 Alpha  occ. eigenvalues --   -0.39039  -0.38595  -0.38355  -0.38041  -0.37952
 Alpha  occ. eigenvalues --   -0.37527  -0.37477  -0.37378  -0.37111  -0.36653
 Alpha  occ. eigenvalues --   -0.36556  -0.36271  -0.36045  -0.35779  -0.35635
 Alpha  occ. eigenvalues --   -0.35274  -0.35213  -0.34867  -0.34810  -0.34172
 Alpha  occ. eigenvalues --   -0.34015  -0.33756  -0.33714  -0.33684  -0.33331
 Alpha  occ. eigenvalues --   -0.32639  -0.32612  -0.31690  -0.31590  -0.31029
 Alpha  occ. eigenvalues --   -0.31013  -0.30927  -0.29914  -0.29402  -0.29303
 Alpha  occ. eigenvalues --   -0.28650  -0.28402  -0.28104  -0.27734  -0.27441
 Alpha  occ. eigenvalues --   -0.26758  -0.26417  -0.22211  -0.20673
 Alpha virt. eigenvalues --   -0.08359  -0.05763  -0.01925  -0.00443   0.00667
 Alpha virt. eigenvalues --    0.02529   0.03176   0.03707   0.04175   0.04361
 Alpha virt. eigenvalues --    0.04639   0.05974   0.08018   0.08557   0.09255

 Mulliken charges:
               1
     1  Mg   0.826500
     2  C    0.103044
     3  C   -0.172451
     4  C   -0.193426
     5  C   -0.176992
     6  N   -0.651044
     7  C    0.310951
     8  C   -0.141235
     9  C   -0.163685
    10  C    0.359966
    11  C   -0.299189
    12  C   -0.144389
    13  C   -0.291587
    14  C    0.629667
    15  O   -0.475342
    16  O   -0.429469
    17  N   -0.705506
    18  C    0.341948
    19  C    0.074555
    20  C   -0.097929
    21  C    0.294127
    22  C   -0.412836
    23  C    0.263964
    24  O   -0.424199
    25  N   -0.688995
    26  C    0.307872
    27  C    0.028504
    28  C    0.018324
    29  C    0.314751
    30  C    0.239381
    31  C   -0.255102
    32  C   -0.310305
    33  N   -0.714028
    34  C    0.248365
    35  C    0.052892
    36  C   -0.027521
    37  C    0.306584
    38  C   -0.381917
    39  C    0.375744
    40  O   -0.417247
    41  C   -0.365867
    42  C    0.595302
    43  O   -0.504565
    44  O   -0.446849
    45  C   -0.085804
    46  C   -0.018895
    47  C   -0.120896
    48  C    0.162683
    49  C   -0.393970
    50  C   -0.233417
    51  C   -0.165451
    52  C   -0.166017
    53  C   -0.064567
    54  C   -0.299796
    55  C   -0.179640
    56  C   -0.178055
    57  C   -0.166388
    58  C   -0.089897
    59  C   -0.300860
    60  C   -0.146869
    61  C   -0.197057
    62  C   -0.140579
    63  C   -0.054874
    64  C   -0.317530
    65  C   -0.290878
    66  H    0.089685
    67  H    0.147647
    68  H    0.094965
    69  H    0.119774
    70  H    0.094092
    71  H    0.125865
    72  H    0.096804
    73  H    0.103420
    74  H    0.127082
    75  H    0.126703
    76  H    0.100466
    77  H    0.117269
    78  H    0.103469
    79  H    0.170328
    80  H    0.126681
    81  H    0.077563
    82  H    0.103685
    83  H    0.109725
    84  H    0.119684
    85  H    0.093577
    86  H    0.125660
    87  H    0.134950
    88  H    0.151549
    89  H    0.105182
    90  H    0.156823
    91  H    0.119050
    92  H    0.125843
    93  H    0.069936
    94  H    0.140182
    95  H    0.100017
    96  H    0.106914
    97  H    0.109977
    98  H    0.086147
    99  H    0.078396
   100  H    0.099604
   101  H    0.098012
   102  H    0.082752
   103  H    0.089057
   104  H    0.093875
   105  H    0.115736
   106  H    0.109560
   107  H    0.090654
   108  H    0.062980
   109  H    0.101766
   110  H    0.075412
   111  H    0.083156
   112  H    0.105502
   113  H    0.078884
   114  H    0.046191
   115  H    0.102440
   116  H    0.118708
   117  H    0.076348
   118  H    0.072054
   119  H    0.097220
   120  H    0.091028
   121  H    0.107775
   122  H    0.085162
   123  H    0.074677
   124  H    0.091767
   125  H    0.111921
   126  H    0.091455
   127  H    0.092805
   128  H    0.083888
   129  H    0.084557
   130  H    0.148390
   131  H    0.149763
   132  H    0.131018
   133  O   -0.424725
   134  H    0.069491
 Sum of Mulliken charges =   0.00000

 Dipole moment (field-independent basis, Debye):
    X=              2.1476    Y=             -6.0402    Z=             -2.4548  Tot=              6.8645
 Quadrupole moment (field-independent basis, Debye-Ang):
   XX=           -379.9130   YY=           -429.0097   ZZ=           -390.9256
   XY=              7.6370   XZ=             25.8106   YZ=            -35.6919

 Normal termination of Gaussian 09 at Fri Oct  4 11:00:34 2019.
