 Gaussian 09, Revision D.01,
 Gaussian 09:  ES64L-G09RevD.01 24-Apr-2013

 ----------------------------------------------------------------------
 # td=(NStates=1) iop(3/107=0140000000,3/108=0140000000) iop(3/107=0140
 000000,3/108=0140000000) CAM-B3LYP/6-31G(d,p)
 ----------------------------------------------------------------------

 --
 TD
 --
 Symbolic Z-matrix:
 Charge =  0 Multiplicity = 1

                         Standard orientation:
 ---------------------------------------------------------------------
 Center     Atomic      Atomic             Coordinates (Angstroms)
 Number     Number       Type             X           Y           Z
 ---------------------------------------------------------------------
      1         12           0       -5.550817    1.165940    0.164138
      2          6           0       -5.079491   -2.244437   -0.306078
      3          6           0       -3.585755    1.199617    2.764682
      4          6           0       -6.204868    4.614644    0.592742
      5          6           0       -8.014526    1.126006   -2.320155
      6          7           0       -4.399398   -0.297801    1.028485
      7          6           0       -4.373384   -1.638747    0.737290
      8          6           0       -3.234243   -2.289083    1.575192
      9          6           0       -2.940577   -1.327254    2.660008
     10          6           0       -3.678642   -0.057987    2.062994
     11          6           0       -3.431163   -1.675688    3.992345
     12          6           0       -1.948118   -2.629618    0.538644
     13          6           0       -0.951218   -3.346077    1.443155
     14          6           0        0.257918   -3.691066    0.613752
     15          8           0        0.516931   -3.341456   -0.434989
     16          8           0        1.103438   -4.589387    1.344483
     17          7           0       -5.032588    2.608607    1.435609
     18          6           0       -4.125794    2.402410    2.488230
     19          6           0       -3.894798    3.586271    3.222866
     20          6           0       -4.651239    4.582808    2.563484
     21          6           0       -5.311441    3.920311    1.464436
     22          6           0       -3.051568    3.813985    4.435090
     23          6           0       -4.667397    6.029922    2.918298
     24          8           0       -4.135908    6.576265    3.918425
     25          7           0       -6.845011    2.601888   -0.660366
     26          6           0       -6.919110    3.922302   -0.469994
     27          6           0       -7.906942    4.606052   -1.355595
     28          6           0       -8.419848    3.582614   -2.175184
     29          6           0       -7.760190    2.450466   -1.735839
     30          6           0       -8.274345    5.983465   -1.263110
     31          6           0       -9.422240    3.800569   -3.204411
     32          6           0       -8.847026    3.831689   -4.724384
     33          7           0       -6.318823   -0.175042   -1.006493
     34          6           0       -7.334215   -0.059013   -1.969742
     35          6           0       -7.530837   -1.327332   -2.611656
     36          6           0       -6.595586   -2.239603   -2.066426
     37          6           0       -5.966287   -1.434556   -1.165005
     38          6           0       -8.635380   -1.658016   -3.676532
     39          6           0       -6.180961   -3.582215   -1.934860
     40          8           0       -6.514029   -4.579467   -2.528458
     41          6           0       -4.922957   -3.527513   -0.906484
     42          6           0       -5.198278   -4.735095    0.141882
     43          8           0       -5.610590   -4.603120    1.280193
     44          8           0       -4.919604   -5.888503   -0.431657
     45          6           0       -5.130664   -7.033573    0.462249
     46          6           0        2.366305   -5.089816    0.653396
     47          6           0        3.389908   -4.057720    1.048741
     48          6           0        4.028114   -3.257349    0.162524
     49          6           0        3.803468   -3.116127   -1.351281
     50          6           0        5.131445   -2.457053    0.709309
     51          6           0        6.552478   -2.737181    0.156846
     52          6           0        7.535457   -1.685959    0.556552
     53          6           0        8.957710   -1.890716   -0.140721
     54          6           0        9.623572   -3.140685    0.110449
     55          6           0        9.898189   -0.735543    0.276915
     56          6           0       11.330278   -0.793699   -0.247182
     57          6           0       12.141716    0.352358    0.054250
     58          6           0       13.516960    0.492006   -0.548564
     59          6           0       14.551345   -0.676694   -0.233336
     60          6           0       14.202743    1.819121   -0.217561
     61          6           0       15.517480    2.029967   -0.975838
     62          6           0       16.038320    3.506324   -0.608578
     63          6           0       17.405210    3.755673   -1.282837
     64          6           0       17.268977    3.795463   -2.829276
     65          6           0       18.001481    5.104375   -0.815148
     66          1           0       -2.796184    1.033389    3.499667
     67          1           0       -6.116888    5.670749    0.617934
     68          1           0       -8.781502    1.259674   -3.248256
     69          1           0       -3.738565   -3.156526    2.024873
     70          1           0       -1.833970   -0.896407    2.663975
     71          1           0       -2.699489   -2.507457    4.295714
     72          1           0       -3.413642   -0.951232    4.924131
     73          1           0       -4.415998   -1.847395    3.783133
     74          1           0       -2.483321   -3.240404   -0.340809
     75          1           0       -1.421263   -1.562312    0.460483
     76          1           0       -0.827951   -2.585856    2.223652
     77          1           0       -1.567306   -4.412022    1.785243
     78          1           0       -2.064750    3.558797    4.128033
     79          1           0       -2.920816    4.825322    4.650453
     80          1           0       -3.171599    3.156594    5.268070
     81          1           0       -5.224996    6.762254    2.427914
     82          1           0      -10.120958    3.057689   -3.210195
     83          1           0       -9.965224    4.702252   -3.069157
     84          1           0       -9.921830    4.032867   -5.209182
     85          1           0       -8.252751    4.794888   -4.956641
     86          1           0       -8.198619    2.920797   -4.853640
     87          1           0       -8.727585   -1.015389   -4.619831
     88          1           0       -8.389017   -2.597820   -3.876621
     89          1           0       -9.551381   -1.330717   -3.451664
     90          1           0       -4.098846   -3.993739   -1.551242
     91          1           0        2.583149   -6.102236    0.976857
     92          1           0        2.094790   -5.033115   -0.377622
     93          1           0        3.621463   -4.152687    2.015434
     94          1           0        2.908868   -3.486580   -1.559951
     95          1           0        4.125349   -2.124137   -1.816134
     96          1           0        4.340148   -3.901950   -1.839560
     97          1           0        4.959129   -1.404594    0.541091
     98          1           0        5.167018   -2.406049    1.578045
     99          1           0        6.870633   -3.752383    0.479704
    100          1           0        6.404343   -2.721300   -0.998885
    101          1           0        7.287219   -0.721683    0.171130
    102          1           0        7.654059   -1.799817    1.740343
    103          1           0        8.658204   -1.586833   -1.178633
    104          1           0        9.055474   -3.899303   -0.323269
    105          1           0       10.635604   -3.166451   -0.257028
    106          1           0        9.740647   -3.453280    1.155076
    107          1           0        9.750391    0.341852   -0.046453
    108          1           0       10.033781   -0.621871    1.440418
    109          1           0       11.546866   -1.741545   -0.041539
    110          1           0       11.341404   -1.048230   -1.448320
    111          1           0       11.760329    1.244075   -0.304628
    112          1           0       12.308357    0.535309    1.275226
    113          1           0       13.370617    0.402355   -1.637507
    114          1           0       14.729419   -0.646621    0.764337
    115          1           0       13.817559   -1.599906   -0.476325
    116          1           0       15.413032   -0.817565   -0.878792
    117          1           0       13.525962    2.764115   -0.373538
    118          1           0       14.202852    1.918251    0.800734
    119          1           0       16.295403    1.498083   -0.571198
    120          1           0       15.210248    1.798038   -1.952185
    121          1           0       15.390927    4.378193   -0.974143
    122          1           0       16.167364    3.726075    0.487459
    123          1           0       18.052519    2.791148   -1.069361
    124          1           0       16.608775    4.674422   -2.898705
    125          1           0       18.174915    4.024680   -3.330433
    126          1           0       16.770406    2.933001   -3.183688
    127          1           0       18.424146    5.222805    0.218521
    128          1           0       18.986212    5.482380   -1.236085
    129          1           0       17.215742    5.915724   -0.896492
    130          1           0       -5.034675   -8.003983   -0.086194
    131          1           0       -6.337743   -7.102479    0.830013
    132          1           0       -4.389155   -7.037919    1.370380
    133          8           0       -7.785398    6.769881   -0.600927
    134          1           0       -9.175385    6.057430   -2.004271
 ---------------------------------------------------------------------

 SCF Done:  E(RCAM-B3LYP) =  -3043.36615019     A.U. after   16 cycles

 Excitation energies and oscillator strengths:

 Excited State   1:      Singlet-A      2.0358 eV  609.03 nm  f=0.1448  <S**2>=0.000
     243 -> 246       -0.26588
     244 -> 245        0.64471
 This state for optimization and/or second-order correction.
 Total Energy, E(TD-HF/TD-KS) =  -3043.29133679
 Copying the excited state density for this state as the 1-particle RhoCI density.

 The electronic state is 1-A.
 Alpha  occ. eigenvalues --  -46.80816 -19.24102 -19.18981 -19.18283 -19.17227
 Alpha  occ. eigenvalues --  -19.17187 -19.17083 -19.16582 -14.39173 -14.37089
 Alpha  occ. eigenvalues --  -14.37075 -14.36490 -10.35356 -10.34416 -10.31258
 Alpha  occ. eigenvalues --  -10.30187 -10.29925 -10.29484 -10.27924 -10.27483
 Alpha  occ. eigenvalues --  -10.26736 -10.26505 -10.26466 -10.26405 -10.26404
 Alpha  occ. eigenvalues --  -10.26327 -10.26156 -10.26098 -10.25873 -10.25833
 Alpha  occ. eigenvalues --  -10.25469 -10.25460 -10.25204 -10.24777 -10.24729
 Alpha  occ. eigenvalues --  -10.24180 -10.23962 -10.23856 -10.23634 -10.23062
 Alpha  occ. eigenvalues --  -10.22873 -10.22847 -10.22756 -10.22727 -10.22335
 Alpha  occ. eigenvalues --  -10.22133 -10.21851 -10.21687 -10.21660 -10.21643
 Alpha  occ. eigenvalues --  -10.21606 -10.21444 -10.21230 -10.21149 -10.21124
 Alpha  occ. eigenvalues --  -10.20997 -10.20519 -10.20431 -10.20363 -10.20188
 Alpha  occ. eigenvalues --  -10.20149 -10.19974 -10.19902 -10.19483 -10.18959
 Alpha  occ. eigenvalues --  -10.18176  -3.09740  -1.84648  -1.84240  -1.84159
 Alpha  occ. eigenvalues --   -1.14673  -1.14402  -1.11404  -1.07539  -1.04860
 Alpha  occ. eigenvalues --   -1.04413  -1.02698  -1.02547  -1.01307  -1.00126
 Alpha  occ. eigenvalues --   -0.99045  -0.89306  -0.86831  -0.86739  -0.86227
 Alpha  occ. eigenvalues --   -0.85948  -0.84871  -0.84608  -0.83887  -0.83173
 Alpha  occ. eigenvalues --   -0.83082  -0.82653  -0.81948  -0.80610  -0.79280
 Alpha  occ. eigenvalues --   -0.78888  -0.78619  -0.77928  -0.76554  -0.76215
 Alpha  occ. eigenvalues --   -0.75552  -0.75480  -0.74526  -0.73377  -0.73023
 Alpha  occ. eigenvalues --   -0.72615  -0.70901  -0.70603  -0.69914  -0.69658
 Alpha  occ. eigenvalues --   -0.69472  -0.68781  -0.67234  -0.67129  -0.66262
 Alpha  occ. eigenvalues --   -0.65665  -0.64830  -0.64143  -0.63195  -0.62056
 Alpha  occ. eigenvalues --   -0.61679  -0.60705  -0.60338  -0.59031  -0.58816
 Alpha  occ. eigenvalues --   -0.58250  -0.58179  -0.58048  -0.57463  -0.57105
 Alpha  occ. eigenvalues --   -0.57064  -0.56677  -0.55801  -0.55327  -0.54720
 Alpha  occ. eigenvalues --   -0.54316  -0.53507  -0.53191  -0.52898  -0.52668
 Alpha  occ. eigenvalues --   -0.52365  -0.51872  -0.51543  -0.51463  -0.51283
 Alpha  occ. eigenvalues --   -0.50749  -0.50311  -0.50046  -0.49881  -0.49643
 Alpha  occ. eigenvalues --   -0.48984  -0.48756  -0.48720  -0.48577  -0.47854
 Alpha  occ. eigenvalues --   -0.47772  -0.47577  -0.47515  -0.47325  -0.47095
 Alpha  occ. eigenvalues --   -0.46962  -0.46916  -0.46371  -0.46227  -0.46068
 Alpha  occ. eigenvalues --   -0.45782  -0.45541  -0.45447  -0.45310  -0.45144
 Alpha  occ. eigenvalues --   -0.44836  -0.44761  -0.44452  -0.44214  -0.44036
 Alpha  occ. eigenvalues --   -0.43935  -0.43673  -0.43594  -0.43282  -0.43228
 Alpha  occ. eigenvalues --   -0.43047  -0.42530  -0.42407  -0.42340  -0.42184
 Alpha  occ. eigenvalues --   -0.41933  -0.41725  -0.41215  -0.40981  -0.40937
 Alpha  occ. eigenvalues --   -0.40811  -0.40599  -0.40573  -0.40425  -0.40288
 Alpha  occ. eigenvalues --   -0.40023  -0.39928  -0.39809  -0.39560  -0.39269
 Alpha  occ. eigenvalues --   -0.39229  -0.39157  -0.38763  -0.38726  -0.38289
 Alpha  occ. eigenvalues --   -0.38194  -0.37697  -0.37411  -0.37334  -0.37016
 Alpha  occ. eigenvalues --   -0.36935  -0.36668  -0.36623  -0.36494  -0.36199
 Alpha  occ. eigenvalues --   -0.35503  -0.35360  -0.35271  -0.34911  -0.34521
 Alpha  occ. eigenvalues --   -0.34437  -0.34190  -0.33987  -0.33459  -0.32994
 Alpha  occ. eigenvalues --   -0.32586  -0.32431  -0.32202  -0.31818  -0.31664
 Alpha  occ. eigenvalues --   -0.31168  -0.31020  -0.30804  -0.30351  -0.29395
 Alpha  occ. eigenvalues --   -0.28931  -0.28150  -0.27805  -0.27633  -0.27409
 Alpha  occ. eigenvalues --   -0.27210  -0.26237  -0.23140  -0.21472
 Alpha virt. eigenvalues --   -0.08427  -0.06860  -0.01806  -0.00214   0.01038
 Alpha virt. eigenvalues --    0.02711   0.03688   0.03923   0.04604   0.04611
 Alpha virt. eigenvalues --    0.05246   0.05738   0.06974   0.07463   0.08463

 Mulliken charges:
               1
     1  Mg   0.829473
     2  C    0.111568
     3  C   -0.203125
     4  C   -0.159885
     5  C   -0.172612
     6  N   -0.602230
     7  C    0.266032
     8  C   -0.168716
     9  C   -0.148949
    10  C    0.313137
    11  C   -0.286412
    12  C   -0.159732
    13  C   -0.241522
    14  C    0.601574
    15  O   -0.392222
    16  O   -0.530097
    17  N   -0.722768
    18  C    0.339161
    19  C    0.069183
    20  C   -0.050714
    21  C    0.321428
    22  C   -0.385003
    23  C    0.234589
    24  O   -0.434287
    25  N   -0.646817
    26  C    0.288648
    27  C   -0.058075
    28  C    0.109676
    29  C    0.227339
    30  C    0.258729
    31  C   -0.276002
    32  C   -0.306992
    33  N   -0.722418
    34  C    0.280452
    35  C   -0.044094
    36  C    0.107784
    37  C    0.260144
    38  C   -0.344254
    39  C    0.336850
    40  O   -0.455222
    41  C   -0.381995
    42  C    0.617326
    43  O   -0.475996
    44  O   -0.418915
    45  C   -0.090065
    46  C   -0.014734
    47  C   -0.111712
    48  C    0.126767
    49  C   -0.369322
    50  C   -0.177491
    51  C   -0.181298
    52  C   -0.157186
    53  C   -0.053897
    54  C   -0.324528
    55  C   -0.175888
    56  C   -0.166325
    57  C   -0.146201
    58  C   -0.083492
    59  C   -0.309703
    60  C   -0.176201
    61  C   -0.166102
    62  C   -0.177366
    63  C   -0.059037
    64  C   -0.293572
    65  C   -0.321080
    66  H    0.075722
    67  H    0.122900
    68  H    0.092738
    69  H    0.133431
    70  H    0.089188
    71  H    0.112281
    72  H    0.106957
    73  H    0.136998
    74  H    0.117303
    75  H    0.110232
    76  H    0.137350
    77  H    0.108964
    78  H    0.122675
    79  H    0.164635
    80  H    0.129410
    81  H    0.096777
    82  H    0.124536
    83  H    0.124379
    84  H    0.105287
    85  H    0.117006
    86  H    0.119875
    87  H    0.102504
    88  H    0.144672
    89  H    0.137407
    90  H    0.162271
    91  H    0.119917
    92  H    0.116413
    93  H    0.084355
    94  H    0.137125
    95  H    0.113105
    96  H    0.122609
    97  H    0.083130
    98  H    0.076955
    99  H    0.094376
   100  H    0.074274
   101  H    0.100430
   102  H    0.070430
   103  H    0.088712
   104  H    0.110357
   105  H    0.110524
   106  H    0.107071
   107  H    0.077111
   108  H    0.071079
   109  H    0.110039
   110  H    0.044946
   111  H    0.110267
   112  H    0.051247
   113  H    0.075416
   114  H    0.113165
   115  H    0.071973
   116  H    0.109946
   117  H    0.061260
   118  H    0.095198
   119  H    0.113597
   120  H    0.109072
   121  H    0.077028
   122  H    0.095337
   123  H    0.062335
   124  H    0.091519
   125  H    0.107526
   126  H    0.102686
   127  H    0.093868
   128  H    0.093066
   129  H    0.097024
   130  H    0.133236
   131  H    0.116875
   132  H    0.127137
   133  O   -0.384582
   134  H    0.011742
 Sum of Mulliken charges =   0.00000

 Dipole moment (field-independent basis, Debye):
    X=              1.9391    Y=             -4.7255    Z=             -1.5279  Tot=              5.3315
 Quadrupole moment (field-independent basis, Debye-Ang):
   XX=           -386.8935   YY=           -433.6215   ZZ=           -397.4574
   XY=              4.3041   XZ=             26.8285   YZ=            -31.2755

 Normal termination of Gaussian 09 at Wed Oct  9 11:26:00 2019.
