 Gaussian 09, Revision D.01,
 Gaussian 09:  ES64L-G09RevD.01 24-Apr-2013

 ----------------------------------------------------------------------
 # td=(NStates=1) iop(3/107=0140000000,3/108=0140000000) iop(3/107=0140
 000000,3/108=0140000000) CAM-B3LYP/6-31G(d,p)
 ----------------------------------------------------------------------

 --
 TD
 --
 Symbolic Z-matrix:
 Charge =  0 Multiplicity = 1

                         Standard orientation:
 ---------------------------------------------------------------------
 Center     Atomic      Atomic             Coordinates (Angstroms)
 Number     Number       Type             X           Y           Z
 ---------------------------------------------------------------------
      1         12           0       -5.620237    1.229190    0.106371
      2          6           0       -4.990684   -2.103588   -0.365142
      3          6           0       -3.516326    1.158774    2.812529
      4          6           0       -6.103149    4.669073    0.660072
      5          6           0       -8.016366    1.186894   -2.462718
      6          7           0       -4.419198   -0.336567    1.061438
      7          6           0       -4.267500   -1.583914    0.695467
      8          6           0       -3.192547   -2.319448    1.476562
      9          6           0       -2.882087   -1.346582    2.679389
     10          6           0       -3.617334   -0.137785    2.207946
     11          6           0       -3.485004   -1.701450    4.064366
     12          6           0       -2.007586   -2.686827    0.605488
     13          6           0       -1.089674   -3.623175    1.436547
     14          6           0        0.175391   -3.922383    0.641835
     15          8           0        0.301885   -3.543352   -0.550873
     16          8           0        1.044194   -4.665001    1.385683
     17          7           0       -4.919972    2.605302    1.422928
     18          6           0       -4.050732    2.369235    2.506215
     19          6           0       -3.705171    3.656459    3.229451
     20          6           0       -4.440154    4.631633    2.568022
     21          6           0       -5.166294    4.007341    1.495051
     22          6           0       -2.783187    3.772979    4.473170
     23          6           0       -4.566725    6.001668    2.880355
     24          8           0       -3.796487    6.539663    3.791664
     25          7           0       -6.882297    2.626661   -0.662885
     26          6           0       -6.911136    4.062829   -0.377216
     27          6           0       -7.903753    4.618315   -1.176431
     28          6           0       -8.490361    3.711304   -1.996793
     29          6           0       -7.752467    2.467297   -1.652519
     30          6           0       -8.373204    6.030926   -1.126935
     31          6           0       -9.568973    3.796769   -3.106894
     32          6           0       -8.975779    3.876794   -4.479192
     33          7           0       -6.329060   -0.118361   -1.141064
     34          6           0       -7.398975    0.002230   -2.039756
     35          6           0       -7.575877   -1.250053   -2.820812
     36          6           0       -6.578104   -2.109847   -2.160723
     37          6           0       -5.927574   -1.311599   -1.157477
     38          6           0       -8.474484   -1.694402   -3.765457
     39          6           0       -6.190064   -3.554391   -2.024631
     40          8           0       -6.475227   -4.419626   -2.685958
     41          6           0       -5.052185   -3.608714   -1.010471
     42          6           0       -5.369530   -4.662450    0.049443
     43          8           0       -5.746961   -4.475188    1.171882
     44          8           0       -5.013492   -5.882753   -0.466674
     45          6           0       -5.371060   -6.897775    0.424870
     46          6           0        2.264371   -5.031940    0.636575
     47          6           0        3.453022   -4.107772    0.961187
     48          6           0        4.085888   -3.334506    0.112473
     49          6           0        3.813768   -3.178097   -1.307572
     50          6           0        5.156429   -2.479043    0.650737
     51          6           0        6.517242   -2.748174    0.176545
     52          6           0        7.666143   -1.898885    0.599594
     53          6           0        9.062301   -1.968318   -0.029513
     54          6           0        9.719414   -3.413902    0.158079
     55          6           0        9.868181   -0.824930    0.439008
     56          6           0       11.261942   -0.804962   -0.165395
     57          6           0       12.158850    0.362088    0.323636
     58          6           0       13.504477    0.517859   -0.583655
     59          6           0       14.334934   -0.770239   -0.308226
     60          6           0       14.323267    1.799550   -0.141701
     61          6           0       15.497145    2.218888   -1.020636
     62          6           0       16.097173    3.495043   -0.701219
     63          6           0       17.385537    3.956437   -1.453038
     64          6           0       17.208244    3.930820   -2.983953
     65          6           0       18.092891    5.215402   -1.019560
     66          1           0       -2.693337    1.097791    3.572097
     67          1           0       -6.357072    5.670793    0.744498
     68          1           0       -8.725509    1.229846   -3.264014
     69          1           0       -3.682597   -3.228795    1.739161
     70          1           0       -1.994072   -1.324365    2.938228
     71          1           0       -3.002017   -2.683914    4.244402
     72          1           0       -3.025181   -1.001767    4.993797
     73          1           0       -4.523378   -1.841639    4.002986
     74          1           0       -2.476623   -3.249183   -0.216986
     75          1           0       -1.488044   -1.876341    0.447250
     76          1           0       -0.784779   -3.184567    2.437266
     77          1           0       -1.316735   -4.595947    1.877414
     78          1           0       -1.732248    3.797542    4.361002
     79          1           0       -2.936113    4.575517    5.004496
     80          1           0       -2.804731    2.921462    5.108188
     81          1           0       -5.148847    6.619554    2.255430
     82          1           0      -10.407393    2.923330   -3.006221
     83          1           0      -10.294993    4.708161   -3.074773
     84          1           0       -9.894008    4.165436   -5.172665
     85          1           0       -8.195183    4.690490   -4.682477
     86          1           0       -8.643170    2.912813   -4.851733
     87          1           0       -8.395584   -1.115292   -4.652786
     88          1           0       -8.282191   -2.658730   -4.085917
     89          1           0       -9.437486   -1.555284   -3.062147
     90          1           0       -4.217646   -3.940527   -1.500703
     91          1           0        2.449717   -6.046339    0.950806
     92          1           0        2.090242   -5.091258   -0.422043
     93          1           0        3.793637   -4.274179    2.000143
     94          1           0        2.824187   -3.743133   -1.552475
     95          1           0        3.734317   -1.943567   -1.440864
     96          1           0        4.633989   -3.773166   -1.749706
     97          1           0        4.690653   -1.379472    0.507294
     98          1           0        5.270573   -2.659752    1.747414
     99          1           0        6.708916   -3.819979    0.551210
    100          1           0        6.504180   -2.608763   -0.883997
    101          1           0        7.175827   -0.831689    0.255847
    102          1           0        7.693553   -2.169208    1.652747
    103          1           0        8.733204   -1.916899   -1.255615
    104          1           0        8.999260   -4.018958   -0.407676
    105          1           0       10.702160   -3.513607   -0.218657
    106          1           0        9.876343   -3.540204    1.325536
    107          1           0        9.130423    0.156237    0.505510
    108          1           0       10.022582   -0.953858    1.592266
    109          1           0       11.615114   -1.783582    0.010209
    110          1           0       11.237509   -0.748167   -1.155699
    111          1           0       11.648105    1.242536    0.269139
    112          1           0       12.507559    0.200332    1.491219
    113          1           0       13.179393    0.735488   -1.469906
    114          1           0       14.733246   -0.983501    0.681124
    115          1           0       13.797774   -1.694435   -0.688080
    116          1           0       15.237421   -0.624728   -0.768070
    117          1           0       13.581144    2.573781    0.121397
    118          1           0       14.861153    1.485477    0.795864
    119          1           0       16.174327    1.364613   -1.123538
    120          1           0       14.990546    2.270820   -2.084979
    121          1           0       15.305501    4.442894   -0.774428
    122          1           0       16.376940    3.444473    0.168879
    123          1           0       18.019348    3.037100   -1.274440
    124          1           0       16.320135    4.575707   -3.173074
    125          1           0       18.158592    4.273215   -3.625327
    126          1           0       16.935999    3.025240   -3.176262
    127          1           0       18.677153    5.244208    0.169932
    128          1           0       19.078516    5.373006   -1.475497
    129          1           0       17.456869    6.097795   -1.096340
    130          1           0       -4.799466   -7.717947    0.245960
    131          1           0       -6.518672   -7.162901    0.237877
    132          1           0       -5.327813   -6.619878    1.523246
    133          8           0       -7.865521    6.929048   -0.469112
    134          1           0       -9.227183    6.319280   -1.756855
 ---------------------------------------------------------------------

 SCF Done:  E(RCAM-B3LYP) =  -3043.37575077     A.U. after   16 cycles

 Excitation energies and oscillator strengths:

 Excited State   1:      Singlet-A      1.9957 eV  621.27 nm  f=0.1425  <S**2>=0.000
     243 -> 246       -0.27370
     244 -> 245        0.63674
 This state for optimization and/or second-order correction.
 Total Energy, E(TD-HF/TD-KS) =  -3043.30241190
 Copying the excited state density for this state as the 1-particle RhoCI density.

 The electronic state is 1-A.
 Alpha  occ. eigenvalues --  -46.81071 -19.23332 -19.23218 -19.18447 -19.17448
 Alpha  occ. eigenvalues --  -19.17219 -19.16933 -19.15712 -14.38526 -14.36992
 Alpha  occ. eigenvalues --  -14.36866 -14.36696 -10.35637 -10.35335 -10.30860
 Alpha  occ. eigenvalues --  -10.30040 -10.28992 -10.27889 -10.27330 -10.27012
 Alpha  occ. eigenvalues --  -10.26957 -10.26726 -10.26718 -10.26526 -10.26301
 Alpha  occ. eigenvalues --  -10.25901 -10.25768 -10.25742 -10.25650 -10.25429
 Alpha  occ. eigenvalues --  -10.25243 -10.24568 -10.24306 -10.24022 -10.23872
 Alpha  occ. eigenvalues --  -10.23700 -10.23567 -10.23447 -10.23346 -10.23190
 Alpha  occ. eigenvalues --  -10.23135 -10.23107 -10.22862 -10.22676 -10.22559
 Alpha  occ. eigenvalues --  -10.22557 -10.22373 -10.22320 -10.22290 -10.22239
 Alpha  occ. eigenvalues --  -10.22062 -10.21999 -10.21855 -10.21801 -10.21726
 Alpha  occ. eigenvalues --  -10.21447 -10.21372 -10.21260 -10.21229 -10.21107
 Alpha  occ. eigenvalues --  -10.20984 -10.20042 -10.19958 -10.19881 -10.19636
 Alpha  occ. eigenvalues --  -10.19552  -3.09752  -1.84680  -1.84212  -1.84184
 Alpha  occ. eigenvalues --   -1.14947  -1.12900  -1.12032  -1.06682  -1.06286
 Alpha  occ. eigenvalues --   -1.03274  -1.01778  -1.01033  -1.00231  -0.98421
 Alpha  occ. eigenvalues --   -0.96819  -0.87930  -0.87064  -0.86775  -0.85956
 Alpha  occ. eigenvalues --   -0.85761  -0.85264  -0.84320  -0.84018  -0.83170
 Alpha  occ. eigenvalues --   -0.83022  -0.82425  -0.81608  -0.81152  -0.79955
 Alpha  occ. eigenvalues --   -0.79254  -0.78676  -0.77789  -0.77288  -0.76701
 Alpha  occ. eigenvalues --   -0.75970  -0.75553  -0.74460  -0.72707  -0.72317
 Alpha  occ. eigenvalues --   -0.71799  -0.71132  -0.70849  -0.70558  -0.69621
 Alpha  occ. eigenvalues --   -0.68963  -0.68767  -0.67781  -0.66744  -0.66353
 Alpha  occ. eigenvalues --   -0.65822  -0.64768  -0.63862  -0.63274  -0.62456
 Alpha  occ. eigenvalues --   -0.60871  -0.60641  -0.60478  -0.59957  -0.59294
 Alpha  occ. eigenvalues --   -0.58954  -0.57936  -0.57827  -0.57793  -0.57151
 Alpha  occ. eigenvalues --   -0.56559  -0.55752  -0.55523  -0.55293  -0.54901
 Alpha  occ. eigenvalues --   -0.54508  -0.53718  -0.53230  -0.52815  -0.52757
 Alpha  occ. eigenvalues --   -0.52298  -0.51872  -0.51532  -0.51294  -0.51145
 Alpha  occ. eigenvalues --   -0.50905  -0.50148  -0.49997  -0.49626  -0.49511
 Alpha  occ. eigenvalues --   -0.49287  -0.48930  -0.48878  -0.48363  -0.47998
 Alpha  occ. eigenvalues --   -0.47855  -0.47726  -0.47534  -0.47381  -0.47148
 Alpha  occ. eigenvalues --   -0.46802  -0.46736  -0.46345  -0.46262  -0.45950
 Alpha  occ. eigenvalues --   -0.45802  -0.45605  -0.45453  -0.45111  -0.44794
 Alpha  occ. eigenvalues --   -0.44704  -0.44436  -0.44379  -0.44244  -0.44030
 Alpha  occ. eigenvalues --   -0.43738  -0.43520  -0.43291  -0.42936  -0.42825
 Alpha  occ. eigenvalues --   -0.42704  -0.42667  -0.42430  -0.42314  -0.42083
 Alpha  occ. eigenvalues --   -0.41994  -0.41699  -0.41493  -0.41362  -0.41164
 Alpha  occ. eigenvalues --   -0.40796  -0.40608  -0.40535  -0.40432  -0.40230
 Alpha  occ. eigenvalues --   -0.39842  -0.39716  -0.39567  -0.39329  -0.39219
 Alpha  occ. eigenvalues --   -0.39008  -0.38779  -0.38734  -0.38584  -0.38489
 Alpha  occ. eigenvalues --   -0.38360  -0.37968  -0.37794  -0.37680  -0.37446
 Alpha  occ. eigenvalues --   -0.37391  -0.37258  -0.36876  -0.36445  -0.36237
 Alpha  occ. eigenvalues --   -0.35653  -0.35155  -0.34710  -0.34411  -0.34245
 Alpha  occ. eigenvalues --   -0.34020  -0.33818  -0.33398  -0.32899  -0.32691
 Alpha  occ. eigenvalues --   -0.32441  -0.32156  -0.32084  -0.31807  -0.31737
 Alpha  occ. eigenvalues --   -0.31728  -0.31202  -0.31098  -0.30463  -0.29273
 Alpha  occ. eigenvalues --   -0.28485  -0.28059  -0.27928  -0.27632  -0.27483
 Alpha  occ. eigenvalues --   -0.27193  -0.26752  -0.22650  -0.20741
 Alpha virt. eigenvalues --   -0.07764  -0.06328  -0.01745  -0.00575   0.01249
 Alpha virt. eigenvalues --    0.02916   0.02979   0.03650   0.04208   0.04443
 Alpha virt. eigenvalues --    0.04973   0.06107   0.07967   0.08340   0.09198

 Mulliken charges:
               1
     1  Mg   0.831294
     2  C    0.008613
     3  C   -0.212319
     4  C   -0.161033
     5  C   -0.140437
     6  N   -0.630696
     7  C    0.337887
     8  C   -0.176080
     9  C   -0.103780
    10  C    0.311700
    11  C   -0.308350
    12  C   -0.113775
    13  C   -0.298103
    14  C    0.616148
    15  O   -0.492207
    16  O   -0.469948
    17  N   -0.695513
    18  C    0.314807
    19  C    0.047052
    20  C    0.024729
    21  C    0.294260
    22  C   -0.365088
    23  C    0.207266
    24  O   -0.462195
    25  N   -0.682467
    26  C    0.242276
    27  C   -0.029490
    28  C    0.042303
    29  C    0.269229
    30  C    0.249927
    31  C   -0.252630
    32  C   -0.294427
    33  N   -0.740612
    34  C    0.249348
    35  C    0.040681
    36  C   -0.079384
    37  C    0.378723
    38  C   -0.383350
    39  C    0.373393
    40  O   -0.383744
    41  C   -0.304865
    42  C    0.616300
    43  O   -0.455404
    44  O   -0.432776
    45  C   -0.100500
    46  C   -0.015662
    47  C   -0.140181
    48  C    0.166524
    49  C   -0.349036
    50  C   -0.212704
    51  C   -0.180184
    52  C   -0.145855
    53  C   -0.034987
    54  C   -0.314779
    55  C   -0.156962
    56  C   -0.174352
    57  C   -0.171214
    58  C   -0.048536
    59  C   -0.318275
    60  C   -0.188581
    61  C   -0.182803
    62  C   -0.117687
    63  C   -0.071109
    64  C   -0.288084
    65  C   -0.290672
    66  H    0.074639
    67  H    0.118004
    68  H    0.099837
    69  H    0.124191
    70  H    0.093241
    71  H    0.103798
    72  H    0.094770
    73  H    0.139172
    74  H    0.124416
    75  H    0.125446
    76  H    0.124736
    77  H    0.142362
    78  H    0.129448
    79  H    0.156865
    80  H    0.109655
    81  H    0.106976
    82  H    0.098342
    83  H    0.109737
    84  H    0.088420
    85  H    0.121094
    86  H    0.113200
    87  H    0.131727
    88  H    0.158725
    89  H    0.129974
    90  H    0.166719
    91  H    0.113854
    92  H    0.128877
    93  H    0.080382
    94  H    0.127638
    95  H    0.097551
    96  H    0.133180
    97  H    0.077024
    98  H    0.087760
    99  H    0.083185
   100  H    0.088834
   101  H    0.066601
   102  H    0.083846
   103  H    0.037233
   104  H    0.114828
   105  H    0.116191
   106  H    0.088157
   107  H    0.068963
   108  H    0.076847
   109  H    0.100396
   110  H    0.104878
   111  H    0.095803
   112  H    0.059963
   113  H    0.093097
   114  H    0.107785
   115  H    0.094200
   116  H    0.102667
   117  H    0.088714
   118  H    0.081127
   119  H    0.096353
   120  H    0.067877
   121  H    0.053079
   122  H    0.105783
   123  H    0.073233
   124  H    0.091143
   125  H    0.082483
   126  H    0.117405
   127  H    0.037225
   128  H    0.115087
   129  H    0.110339
   130  H    0.125114
   131  H    0.104463
   132  H    0.136483
   133  O   -0.421820
   134  H    0.069051
 Sum of Mulliken charges =   0.00000

 Dipole moment (field-independent basis, Debye):
    X=              1.9286    Y=             -7.3037    Z=             -1.8661  Tot=              7.7811
 Quadrupole moment (field-independent basis, Debye-Ang):
   XX=           -361.6468   YY=           -443.0590   ZZ=           -395.3099
   XY=              5.5739   XZ=             27.9978   YZ=            -37.1751

 Normal termination of Gaussian 09 at Fri Oct  4 04:24:53 2019.
