 Gaussian 09, Revision D.01,
 Gaussian 09:  ES64L-G09RevD.01 24-Apr-2013

 ----------------------------------------------------------------------
 # td=(NStates=1) iop(3/107=0140000000,3/108=0140000000) iop(3/107=0140
 000000,3/108=0140000000) CAM-B3LYP/6-31G(d,p)
 ----------------------------------------------------------------------

 --
 TD
 --
 Symbolic Z-matrix:
 Charge =  0 Multiplicity = 1

                         Standard orientation:
 ---------------------------------------------------------------------
 Center     Atomic      Atomic             Coordinates (Angstroms)
 Number     Number       Type             X           Y           Z
 ---------------------------------------------------------------------
      1         12           0       -5.663505    1.237427    0.258023
      2          6           0       -5.087669   -2.131332   -0.225157
      3          6           0       -3.528217    1.194908    2.866651
      4          6           0       -6.163160    4.683425    0.601155
      5          6           0       -7.986710    1.171830   -2.468073
      6          7           0       -4.407312   -0.185489    1.136062
      7          6           0       -4.340478   -1.579025    0.743786
      8          6           0       -3.238032   -2.323411    1.560836
      9          6           0       -2.868091   -1.315129    2.668593
     10          6           0       -3.535421   -0.077264    2.216162
     11          6           0       -3.438411   -1.695960    4.174396
     12          6           0       -2.095974   -2.765685    0.707303
     13          6           0       -0.915953   -3.546435    1.436198
     14          6           0        0.320471   -3.896967    0.601001
     15          8           0        0.403325   -3.435152   -0.545994
     16          8           0        1.140749   -4.683137    1.260399
     17          7           0       -5.020957    2.635183    1.528395
     18          6           0       -4.133744    2.406407    2.498180
     19          6           0       -3.747445    3.688534    3.117737
     20          6           0       -4.548399    4.701225    2.545669
     21          6           0       -5.259464    4.004237    1.556214
     22          6           0       -2.694552    3.783436    4.202918
     23          6           0       -4.758138    6.020569    2.829156
     24          8           0       -4.140439    6.668175    3.730522
     25          7           0       -6.849096    2.657314   -0.709324
     26          6           0       -6.951518    3.955846   -0.406412
     27          6           0       -7.943033    4.617847   -1.252724
     28          6           0       -8.580871    3.565602   -2.066294
     29          6           0       -7.731909    2.405510   -1.852442
     30          6           0       -8.434491    5.966257   -1.287755
     31          6           0       -9.478131    3.707429   -3.232177
     32          6           0       -8.784085    3.805510   -4.514436
     33          7           0       -6.431357   -0.167207   -0.989026
     34          6           0       -7.378013   -0.017779   -2.109919
     35          6           0       -7.545991   -1.355778   -2.787903
     36          6           0       -6.674167   -2.250150   -2.082819
     37          6           0       -6.016132   -1.450864   -1.060786
     38          6           0       -8.574668   -1.950626   -3.678648
     39          6           0       -6.073745   -3.536980   -2.033998
     40          8           0       -6.355263   -4.519509   -2.704014
     41          6           0       -5.076240   -3.583339   -0.798644
     42          6           0       -5.300919   -4.650253    0.253860
     43          8           0       -5.684717   -4.453816    1.351993
     44          8           0       -4.993573   -5.904032   -0.241613
     45          6           0       -5.402906   -7.036537    0.580368
     46          6           0        2.379450   -4.984779    0.452233
     47          6           0        3.410808   -3.947596    0.873564
     48          6           0        3.971491   -3.177305    0.098032
     49          6           0        3.672016   -3.014856   -1.364064
     50          6           0        5.180422   -2.236423    0.543877
     51          6           0        6.466592   -2.475417   -0.039981
     52          6           0        7.591198   -1.726895    0.452807
     53          6           0        8.997242   -1.981387   -0.123119
     54          6           0        9.632070   -3.375943    0.111445
     55          6           0        9.958724   -0.928050    0.450795
     56          6           0       11.365927   -0.875528   -0.307054
     57          6           0       12.294716    0.305506    0.224671
     58          6           0       13.617737    0.404685   -0.414277
     59          6           0       14.581941   -0.743658   -0.166053
     60          6           0       14.223299    1.786925   -0.010815
     61          6           0       15.488459    2.063768   -0.960571
     62          6           0       16.104861    3.518192   -0.737705
     63          6           0       17.404752    3.930440   -1.366490
     64          6           0       17.409903    3.917700   -2.925303
     65          6           0       17.880679    5.211077   -0.768200
     66          1           0       -2.648954    1.126194    3.548508
     67          1           0       -6.571729    5.735222    0.539952
     68          1           0       -8.757689    1.135572   -3.257091
     69          1           0       -3.651798   -3.228577    1.946011
     70          1           0       -1.731256   -1.170061    2.692565
     71          1           0       -2.905582   -2.547715    4.850786
     72          1           0       -3.511602   -0.867980    4.993786
     73          1           0       -4.375437   -2.182345    3.997350
     74          1           0       -2.337823   -3.226564   -0.297042
     75          1           0       -1.467879   -1.681053    0.274350
     76          1           0       -0.477811   -2.907737    2.392032
     77          1           0       -1.195269   -4.587959    1.943274
     78          1           0       -1.682292    4.109634    3.646843
     79          1           0       -2.998416    4.612954    4.695462
     80          1           0       -2.550939    2.861467    4.789726
     81          1           0       -5.462899    6.510245    2.290861
     82          1           0      -10.120336    2.798345   -3.115186
     83          1           0      -10.132927    4.561031   -3.069953
     84          1           0       -9.507877    4.023395   -5.263269
     85          1           0       -8.029655    4.658160   -4.595125
     86          1           0       -8.225060    3.023702   -4.999304
     87          1           0       -8.542856   -1.198850   -4.716524
     88          1           0       -8.608382   -2.997714   -3.830648
     89          1           0       -9.540312   -1.775842   -3.327910
     90          1           0       -4.128174   -3.889580   -1.320819
     91          1           0        2.764305   -6.063526    0.647630
     92          1           0        2.130869   -5.238619   -0.564727
     93          1           0        3.698701   -4.088383    1.886124
     94          1           0        2.545042   -3.242199   -1.663183
     95          1           0        4.049005   -2.106100   -1.841791
     96          1           0        4.253254   -3.770672   -1.925967
     97          1           0        4.954642   -1.078425    0.239409
     98          1           0        5.307878   -2.371893    1.530409
     99          1           0        6.608978   -3.610634    0.100391
    100          1           0        6.495715   -2.282966   -1.140021
    101          1           0        7.428517   -0.695764    0.392992
    102          1           0        7.830897   -2.128309    1.530753
    103          1           0        8.823087   -1.740944   -1.140390
    104          1           0        8.884718   -4.151298   -0.201760
    105          1           0       10.472393   -3.608148   -0.719777
    106          1           0        9.873305   -3.477094    1.175763
    107          1           0        9.402705    0.116294    0.270293
    108          1           0       10.067179   -1.021036    1.486216
    109          1           0       12.089170   -1.767536    0.073271
    110          1           0       11.157452   -0.815262   -1.367256
    111          1           0       11.655725    1.135499   -0.030487
    112          1           0       12.178609    0.074115    1.410403
    113          1           0       13.522194    0.518922   -1.462331
    114          1           0       14.570015   -0.952349    0.933931
    115          1           0       14.106776   -1.709540   -0.588310
    116          1           0       15.483770   -0.655400   -0.651589
    117          1           0       13.696159    2.739458    0.060302
    118          1           0       14.658905    1.546706    0.852438
    119          1           0       16.266008    1.156160   -0.795765
    120          1           0       15.320240    2.079783   -1.955601
    121          1           0       15.204994    4.061440   -1.063211
    122          1           0       16.320595    3.484585    0.525717
    123          1           0       18.336991    3.286061   -1.067055
    124          1           0       16.743018    4.776770   -3.408848
    125          1           0       18.581524    3.914186   -3.296978
    126          1           0       16.958509    2.935900   -3.219849
    127          1           0       18.167547    4.864847    0.264580
    128          1           0       18.921736    5.602409   -1.075389
    129          1           0       17.205939    6.240667   -0.928829
    130          1           0       -5.161032   -7.712822   -0.314219
    131          1           0       -6.504137   -6.983555    1.052576
    132          1           0       -4.666117   -7.112103    1.470093
    133          8           0       -8.015940    6.880065   -0.600608
    134          1           0       -9.149297    5.995249   -2.107809
 ---------------------------------------------------------------------

 SCF Done:  E(RCAM-B3LYP) =  -3043.43665682     A.U. after   16 cycles

 Excitation energies and oscillator strengths:

 Excited State   1:      Singlet-A      2.0070 eV  617.76 nm  f=0.1595  <S**2>=0.000
     243 -> 246        0.26402
     244 -> 245        0.64274
 This state for optimization and/or second-order correction.
 Total Energy, E(TD-HF/TD-KS) =  -3043.36290166
 Copying the excited state density for this state as the 1-particle RhoCI density.

 The electronic state is 1-A.
 Alpha  occ. eigenvalues --  -46.81221 -19.24127 -19.22029 -19.18086 -19.16705
 Alpha  occ. eigenvalues --  -19.16633 -19.16471 -19.15729 -14.39350 -14.37606
 Alpha  occ. eigenvalues --  -14.37474 -14.37151 -10.35307 -10.35147 -10.31152
 Alpha  occ. eigenvalues --  -10.29325 -10.29249 -10.29244 -10.28509 -10.28137
 Alpha  occ. eigenvalues --  -10.27731 -10.27587 -10.27567 -10.27325 -10.26983
 Alpha  occ. eigenvalues --  -10.26674 -10.26516 -10.26419 -10.26324 -10.26137
 Alpha  occ. eigenvalues --  -10.25793 -10.25509 -10.25483 -10.25481 -10.24917
 Alpha  occ. eigenvalues --  -10.24883 -10.24724 -10.24573 -10.23953 -10.23918
 Alpha  occ. eigenvalues --  -10.23822 -10.23194 -10.22594 -10.22569 -10.22549
 Alpha  occ. eigenvalues --  -10.22534 -10.22530 -10.22472 -10.22451 -10.22185
 Alpha  occ. eigenvalues --  -10.21867 -10.21823 -10.21767 -10.21747 -10.21685
 Alpha  occ. eigenvalues --  -10.21412 -10.21307 -10.21282 -10.21277 -10.21174
 Alpha  occ. eigenvalues --  -10.20937 -10.20931 -10.20868 -10.20662 -10.20554
 Alpha  occ. eigenvalues --  -10.19886  -3.09875  -1.84805  -1.84331  -1.84313
 Alpha  occ. eigenvalues --   -1.14005  -1.13626  -1.06349  -1.06327  -1.05763
 Alpha  occ. eigenvalues --   -1.04030  -1.03127  -1.00794  -0.98659  -0.97865
 Alpha  occ. eigenvalues --   -0.97134  -0.87979  -0.87731  -0.86234  -0.85738
 Alpha  occ. eigenvalues --   -0.85385  -0.85128  -0.84515  -0.84031  -0.83489
 Alpha  occ. eigenvalues --   -0.83134  -0.82921  -0.81654  -0.80617  -0.79188
 Alpha  occ. eigenvalues --   -0.78959  -0.77903  -0.77740  -0.76573  -0.76391
 Alpha  occ. eigenvalues --   -0.75826  -0.75059  -0.73759  -0.72674  -0.71866
 Alpha  occ. eigenvalues --   -0.71546  -0.70730  -0.70567  -0.69836  -0.69767
 Alpha  occ. eigenvalues --   -0.69456  -0.69215  -0.68827  -0.67344  -0.67191
 Alpha  occ. eigenvalues --   -0.65903  -0.64504  -0.63848  -0.62077  -0.61849
 Alpha  occ. eigenvalues --   -0.61692  -0.60237  -0.60016  -0.59282  -0.58927
 Alpha  occ. eigenvalues --   -0.58205  -0.58123  -0.57689  -0.57338  -0.56826
 Alpha  occ. eigenvalues --   -0.56332  -0.55935  -0.55905  -0.55624  -0.54183
 Alpha  occ. eigenvalues --   -0.53817  -0.52919  -0.52773  -0.52231  -0.51922
 Alpha  occ. eigenvalues --   -0.51882  -0.51543  -0.51388  -0.51029  -0.50931
 Alpha  occ. eigenvalues --   -0.50267  -0.49930  -0.49697  -0.49359  -0.49168
 Alpha  occ. eigenvalues --   -0.48848  -0.48486  -0.48361  -0.48212  -0.47960
 Alpha  occ. eigenvalues --   -0.47793  -0.47569  -0.47366  -0.47310  -0.46674
 Alpha  occ. eigenvalues --   -0.46426  -0.46235  -0.45903  -0.45515  -0.45381
 Alpha  occ. eigenvalues --   -0.45341  -0.45240  -0.45082  -0.44759  -0.44691
 Alpha  occ. eigenvalues --   -0.44315  -0.44209  -0.44062  -0.43803  -0.43647
 Alpha  occ. eigenvalues --   -0.43590  -0.43477  -0.42983  -0.42741  -0.42462
 Alpha  occ. eigenvalues --   -0.42320  -0.42295  -0.42190  -0.41852  -0.41736
 Alpha  occ. eigenvalues --   -0.41594  -0.41315  -0.41181  -0.40884  -0.40744
 Alpha  occ. eigenvalues --   -0.40681  -0.40459  -0.40321  -0.40249  -0.40078
 Alpha  occ. eigenvalues --   -0.39955  -0.39778  -0.39572  -0.39376  -0.39108
 Alpha  occ. eigenvalues --   -0.38761  -0.38668  -0.38570  -0.38534  -0.38216
 Alpha  occ. eigenvalues --   -0.38154  -0.37905  -0.37835  -0.37538  -0.37195
 Alpha  occ. eigenvalues --   -0.37116  -0.36419  -0.36223  -0.35573  -0.35458
 Alpha  occ. eigenvalues --   -0.35103  -0.35046  -0.34850  -0.34581  -0.34393
 Alpha  occ. eigenvalues --   -0.34265  -0.33991  -0.33923  -0.33221  -0.33145
 Alpha  occ. eigenvalues --   -0.33091  -0.32898  -0.32557  -0.31933  -0.31627
 Alpha  occ. eigenvalues --   -0.31420  -0.31246  -0.30020  -0.29730  -0.29506
 Alpha  occ. eigenvalues --   -0.29352  -0.28347  -0.27964  -0.27726  -0.27588
 Alpha  occ. eigenvalues --   -0.27230  -0.26986  -0.23194  -0.21841
 Alpha virt. eigenvalues --   -0.08908  -0.07108  -0.02085  -0.00992   0.00197
 Alpha virt. eigenvalues --    0.02801   0.03309   0.03702   0.04065   0.04393
 Alpha virt. eigenvalues --    0.05225   0.05518   0.07566   0.08072   0.08864

 Mulliken charges:
               1
     1  Mg   0.823291
     2  C    0.089096
     3  C   -0.209497
     4  C   -0.177426
     5  C   -0.151823
     6  N   -0.620388
     7  C    0.270759
     8  C   -0.127073
     9  C   -0.150659
    10  C    0.341496
    11  C   -0.323181
    12  C   -0.160735
    13  C   -0.255845
    14  C    0.624599
    15  O   -0.484694
    16  O   -0.446049
    17  N   -0.705409
    18  C    0.371525
    19  C   -0.014720
    20  C    0.087764
    21  C    0.251261
    22  C   -0.358582
    23  C    0.215084
    24  O   -0.463291
    25  N   -0.685091
    26  C    0.337996
    27  C   -0.055684
    28  C    0.003518
    29  C    0.254655
    30  C    0.255262
    31  C   -0.237573
    32  C   -0.312307
    33  N   -0.708584
    34  C    0.248320
    35  C    0.018009
    36  C    0.057471
    37  C    0.276491
    38  C   -0.365060
    39  C    0.337930
    40  O   -0.464968
    41  C   -0.329351
    42  C    0.627440
    43  O   -0.441325
    44  O   -0.466676
    45  C   -0.085632
    46  C   -0.031294
    47  C   -0.159357
    48  C    0.213462
    49  C   -0.398862
    50  C   -0.206156
    51  C   -0.155365
    52  C   -0.146699
    53  C   -0.060074
    54  C   -0.305746
    55  C   -0.165057
    56  C   -0.181919
    57  C   -0.169206
    58  C   -0.047785
    59  C   -0.321952
    60  C   -0.168710
    61  C   -0.206273
    62  C   -0.148836
    63  C   -0.039097
    64  C   -0.299549
    65  C   -0.281513
    66  H    0.081444
    67  H    0.154415
    68  H    0.104355
    69  H    0.137308
    70  H    0.117669
    71  H    0.092947
    72  H    0.118283
    73  H    0.144109
    74  H    0.127596
    75  H    0.069538
    76  H    0.110462
    77  H    0.112439
    78  H    0.120688
    79  H    0.161693
    80  H    0.118619
    81  H    0.093522
    82  H    0.110803
    83  H    0.120646
    84  H    0.115933
    85  H    0.112755
    86  H    0.120919
    87  H    0.083314
    88  H    0.162360
    89  H    0.146237
    90  H    0.159555
    91  H    0.107971
    92  H    0.145150
    93  H    0.093159
    94  H    0.142664
    95  H    0.111548
    96  H    0.113699
    97  H    0.070253
    98  H    0.095842
    99  H    0.076611
   100  H    0.077745
   101  H    0.092410
   102  H    0.058927
   103  H    0.080076
   104  H    0.095187
   105  H    0.099058
   106  H    0.106567
   107  H    0.057725
   108  H    0.094964
   109  H    0.075889
   110  H    0.092146
   111  H    0.094984
   112  H    0.067435
   113  H    0.093730
   114  H    0.101850
   115  H    0.094777
   116  H    0.117811
   117  H    0.094179
   118  H    0.111941
   119  H    0.062825
   120  H    0.100809
   121  H    0.096805
   122  H    0.051776
   123  H    0.080521
   124  H    0.089421
   125  H    0.083911
   126  H    0.102401
   127  H    0.098892
   128  H    0.085360
   129  H    0.074749
   130  H    0.142153
   131  H    0.128909
   132  H    0.118503
   133  O   -0.445883
   134  H    0.056590
 Sum of Mulliken charges =   0.00000

 Dipole moment (field-independent basis, Debye):
    X=              2.2002    Y=             -7.0596    Z=             -1.4985  Tot=              7.5448
 Quadrupole moment (field-independent basis, Debye-Ang):
   XX=           -371.7427   YY=           -449.7274   ZZ=           -395.2727
   XY=              9.6221   XZ=             22.4474   YZ=            -39.4945

 Normal termination of Gaussian 09 at Mon Oct  7 23:04:44 2019.
