 Gaussian 09, Revision D.01,
 Gaussian 09:  ES64L-G09RevD.01 24-Apr-2013

 ----------------------------------------------------------------------
 # td=(NStates=1) iop(3/107=0140000000,3/108=0140000000) iop(3/107=0140
 000000,3/108=0140000000) CAM-B3LYP/6-31G(d,p)
 ----------------------------------------------------------------------

 --
 TD
 --
 Symbolic Z-matrix:
 Charge =  0 Multiplicity = 1

                         Standard orientation:
 ---------------------------------------------------------------------
 Center     Atomic      Atomic             Coordinates (Angstroms)
 Number     Number       Type             X           Y           Z
 ---------------------------------------------------------------------
      1         12           0       -5.588499    1.301720    0.141333
      2          6           0       -5.074286   -2.104135   -0.479162
      3          6           0       -3.340954    1.082947    2.775633
      4          6           0       -6.174286    4.620117    0.735514
      5          6           0       -7.981628    1.259080   -2.324548
      6          7           0       -4.452619   -0.333907    1.088667
      7          6           0       -4.221757   -1.556067    0.624780
      8          6           0       -3.260542   -2.355220    1.456810
      9          6           0       -2.903568   -1.386003    2.660760
     10          6           0       -3.637647   -0.109798    2.198925
     11          6           0       -3.504402   -2.015799    3.916338
     12          6           0       -2.058125   -2.752863    0.647662
     13          6           0       -0.953512   -3.606037    1.387629
     14          6           0        0.305933   -3.843920    0.693139
     15          8           0        0.510428   -3.500795   -0.506607
     16          8           0        1.115244   -4.740725    1.230914
     17          7           0       -4.966762    2.595282    1.503903
     18          6           0       -4.065052    2.431486    2.488208
     19          6           0       -3.768771    3.536735    3.294694
     20          6           0       -4.543528    4.520852    2.660819
     21          6           0       -5.304169    3.972029    1.570916
     22          6           0       -2.780044    3.733474    4.413795
     23          6           0       -4.568089    5.949321    3.002203
     24          8           0       -3.855797    6.467928    3.842507
     25          7           0       -6.813894    2.752710   -0.755407
     26          6           0       -6.977617    4.012181   -0.387737
     27          6           0       -7.832735    4.708886   -1.184364
     28          6           0       -8.415890    3.746876   -2.094715
     29          6           0       -7.660717    2.490913   -1.840041
     30          6           0       -8.209431    6.118508   -1.083215
     31          6           0       -9.341152    3.885566   -3.195457
     32          6           0       -8.668012    3.750372   -4.532437
     33          7           0       -6.380183   -0.042697   -1.142232
     34          6           0       -7.275370    0.080120   -2.086155
     35          6           0       -7.566556   -1.287391   -2.717020
     36          6           0       -6.731508   -2.112567   -2.069033
     37          6           0       -5.955174   -1.341480   -1.102463
     38          6           0       -8.637501   -1.485061   -3.866235
     39          6           0       -6.238534   -3.536425   -2.031831
     40          8           0       -6.535093   -4.577080   -2.718620
     41          6           0       -4.989368   -3.475248   -1.026871
     42          6           0       -5.359256   -4.578137    0.055569
     43          8           0       -5.675024   -4.263316    1.246191
     44          8           0       -5.243369   -5.922744   -0.455719
     45          6           0       -5.546133   -6.921072    0.391681
     46          6           0        2.283669   -5.161094    0.576193
     47          6           0        3.425958   -4.263534    1.011259
     48          6           0        4.033019   -3.377254    0.247813
     49          6           0        3.715264   -3.041103   -1.216808
     50          6           0        5.254631   -2.645538    0.773136
     51          6           0        6.548975   -2.782711    0.088698
     52          6           0        7.495967   -1.771197    0.645842
     53          6           0        8.945497   -1.948023   -0.040965
     54          6           0        9.590282   -3.378533   -0.025499
     55          6           0        9.998251   -0.892956    0.488438
     56          6           0       11.308818   -0.653487   -0.369361
     57          6           0       12.205596    0.347179    0.163924
     58          6           0       13.604219    0.433309   -0.362527
     59          6           0       14.496041   -0.761020   -0.031044
     60          6           0       14.309493    1.732093    0.008655
     61          6           0       15.524571    2.112585   -0.861267
     62          6           0       16.002097    3.518045   -0.838454
     63          6           0       17.292213    3.992385   -1.576542
     64          6           0       16.919890    4.133647   -3.072098
     65          6           0       17.888181    5.140121   -0.853991
     66          1           0       -2.541975    1.137283    3.518796
     67          1           0       -6.356185    5.683944    0.770946
     68          1           0       -8.663875    1.207130   -3.253339
     69          1           0       -3.742579   -3.248278    2.160047
     70          1           0       -1.704726   -1.378324    2.906386
     71          1           0       -2.999476   -2.722982    4.242403
     72          1           0       -3.505162   -1.178472    4.654236
     73          1           0       -4.464006   -2.437182    3.594020
     74          1           0       -2.431839   -3.432846   -0.114220
     75          1           0       -1.555153   -2.060190   -0.046311
     76          1           0       -0.776694   -3.219303    2.264792
     77          1           0       -1.279513   -4.694638    1.535764
     78          1           0       -1.690181    3.552788    4.047173
     79          1           0       -2.779270    4.818250    4.474520
     80          1           0       -3.015098    3.184174    5.300337
     81          1           0       -5.250492    6.603804    2.359235
     82          1           0      -10.059081    2.975905   -3.121709
     83          1           0       -9.869604    4.787826   -2.867911
     84          1           0       -9.359519    3.813249   -5.288969
     85          1           0       -8.106924    4.571220   -4.786281
     86          1           0       -8.073592    2.826052   -4.702883
     87          1           0       -8.381954   -0.907010   -4.709933
     88          1           0       -8.502666   -2.563983   -4.282530
     89          1           0       -9.649624   -1.201173   -3.585156
     90          1           0       -4.086667   -3.832093   -1.467535
     91          1           0        2.497836   -6.194198    0.720919
     92          1           0        2.200919   -5.272887   -0.653164
     93          1           0        3.773426   -4.210331    2.011177
     94          1           0        2.510841   -3.212865   -1.556970
     95          1           0        4.061292   -2.066406   -1.347473
     96          1           0        4.428478   -3.693823   -1.879348
     97          1           0        5.006847   -1.565304    0.873718
     98          1           0        5.728257   -2.915018    1.833986
     99          1           0        7.283921   -3.691873    0.378455
    100          1           0        6.453885   -2.609545   -0.917508
    101          1           0        7.068916   -0.624615    0.486584
    102          1           0        7.714736   -1.908639    1.610116
    103          1           0        8.705195   -1.780922   -1.061296
    104          1           0        8.921194   -4.243864   -0.306306
    105          1           0       10.624507   -3.362307   -0.458202
    106          1           0        9.732054   -3.326149    1.110362
    107          1           0        9.403428    0.091776    0.591306
    108          1           0       10.018324   -1.110143    1.484772
    109          1           0       11.818921   -1.526928   -0.012821
    110          1           0       11.377537   -0.826651   -1.450016
    111          1           0       11.649347    1.388451   -0.019919
    112          1           0       11.934309    0.540914    1.413111
    113          1           0       13.362731    0.414422   -1.471625
    114          1           0       14.769259   -0.814725    0.976881
    115          1           0       13.867288   -1.636980   -0.500449
    116          1           0       15.461520   -0.620082   -0.714935
    117          1           0       13.739889    2.656046   -0.313875
    118          1           0       14.353604    1.709858    1.037664
    119          1           0       16.235723    1.166679   -0.777800
    120          1           0       15.211423    1.953482   -1.955797
    121          1           0       15.078997    4.087548   -1.239050
    122          1           0       16.090381    3.854435    0.341882
    123          1           0       17.986027    3.124308   -1.553621
    124          1           0       16.294092    4.943414   -3.229969
    125          1           0       17.769286    4.274661   -3.849412
    126          1           0       16.554183    3.097522   -3.558005
    127          1           0       18.310892    5.060553    0.068189
    128          1           0       18.847513    5.317608   -1.401593
    129          1           0       17.217994    6.081070   -0.835465
    130          1           0       -5.331279   -7.917654   -0.020971
    131          1           0       -6.404193   -6.776709    0.789267
    132          1           0       -4.794219   -6.879863    1.254061
    133          8           0       -7.807508    6.893592   -0.213849
    134          1           0       -9.023787    6.474399   -1.712942
 ---------------------------------------------------------------------

 SCF Done:  E(RCAM-B3LYP) =  -3043.38996288     A.U. after   16 cycles

 Excitation energies and oscillator strengths:

 Excited State   1:      Singlet-A      1.9290 eV  642.73 nm  f=0.2525  <S**2>=0.000
     243 -> 246       -0.18405
     244 -> 245        0.67002
 This state for optimization and/or second-order correction.
 Total Energy, E(TD-HF/TD-KS) =  -3043.31907307
 Copying the excited state density for this state as the 1-particle RhoCI density.

 The electronic state is 1-A.
 Alpha  occ. eigenvalues --  -46.82021 -19.23161 -19.22973 -19.19272 -19.18298
 Alpha  occ. eigenvalues --  -19.17096 -19.16971 -19.16059 -14.39833 -14.37534
 Alpha  occ. eigenvalues --  -14.37014 -14.36382 -10.37392 -10.35323 -10.33271
 Alpha  occ. eigenvalues --  -10.30288 -10.30196 -10.29191 -10.28579 -10.27207
 Alpha  occ. eigenvalues --  -10.27146 -10.26565 -10.26547 -10.26314 -10.26242
 Alpha  occ. eigenvalues --  -10.26237 -10.25769 -10.25594 -10.25454 -10.25119
 Alpha  occ. eigenvalues --  -10.24969 -10.24475 -10.24268 -10.24168 -10.23913
 Alpha  occ. eigenvalues --  -10.23870 -10.23866 -10.23705 -10.23616 -10.23608
 Alpha  occ. eigenvalues --  -10.23583 -10.23567 -10.23095 -10.22451 -10.22430
 Alpha  occ. eigenvalues --  -10.22363 -10.22316 -10.22207 -10.21976 -10.21907
 Alpha  occ. eigenvalues --  -10.21905 -10.21759 -10.21650 -10.21635 -10.21520
 Alpha  occ. eigenvalues --  -10.21475 -10.21462 -10.21392 -10.21271 -10.20951
 Alpha  occ. eigenvalues --  -10.20844 -10.20811 -10.20433 -10.20283 -10.20145
 Alpha  occ. eigenvalues --  -10.20060  -3.10578  -1.85515  -1.85038  -1.84999
 Alpha  occ. eigenvalues --   -1.14767  -1.12483  -1.06792  -1.06121  -1.04742
 Alpha  occ. eigenvalues --   -1.04250  -1.02402  -1.01808  -1.00537  -0.99982
 Alpha  occ. eigenvalues --   -0.99146  -0.89960  -0.86631  -0.86324  -0.85940
 Alpha  occ. eigenvalues --   -0.85752  -0.84296  -0.84116  -0.83736  -0.83533
 Alpha  occ. eigenvalues --   -0.83381  -0.82825  -0.82450  -0.81116  -0.80405
 Alpha  occ. eigenvalues --   -0.79442  -0.78871  -0.78074  -0.77373  -0.76335
 Alpha  occ. eigenvalues --   -0.75890  -0.74816  -0.74752  -0.73733  -0.72537
 Alpha  occ. eigenvalues --   -0.71832  -0.70783  -0.70411  -0.70235  -0.69967
 Alpha  occ. eigenvalues --   -0.69633  -0.69133  -0.68086  -0.67563  -0.66711
 Alpha  occ. eigenvalues --   -0.66218  -0.64983  -0.64674  -0.62306  -0.62179
 Alpha  occ. eigenvalues --   -0.61532  -0.61089  -0.60727  -0.59892  -0.59507
 Alpha  occ. eigenvalues --   -0.59144  -0.58275  -0.57928  -0.57600  -0.57190
 Alpha  occ. eigenvalues --   -0.56216  -0.56091  -0.55329  -0.55193  -0.54508
 Alpha  occ. eigenvalues --   -0.54316  -0.53969  -0.53162  -0.52535  -0.52345
 Alpha  occ. eigenvalues --   -0.52206  -0.51876  -0.51615  -0.51201  -0.51023
 Alpha  occ. eigenvalues --   -0.50276  -0.50148  -0.50052  -0.49758  -0.49436
 Alpha  occ. eigenvalues --   -0.48933  -0.48906  -0.48651  -0.48274  -0.48051
 Alpha  occ. eigenvalues --   -0.47838  -0.47511  -0.47419  -0.47303  -0.47142
 Alpha  occ. eigenvalues --   -0.47009  -0.46681  -0.46418  -0.46383  -0.46094
 Alpha  occ. eigenvalues --   -0.45655  -0.45536  -0.45132  -0.45077  -0.45051
 Alpha  occ. eigenvalues --   -0.44695  -0.44480  -0.44374  -0.44058  -0.43978
 Alpha  occ. eigenvalues --   -0.43841  -0.43818  -0.43402  -0.43336  -0.43086
 Alpha  occ. eigenvalues --   -0.42733  -0.42472  -0.42453  -0.42290  -0.41904
 Alpha  occ. eigenvalues --   -0.41806  -0.41594  -0.41393  -0.41265  -0.41152
 Alpha  occ. eigenvalues --   -0.40956  -0.40828  -0.40565  -0.40424  -0.40339
 Alpha  occ. eigenvalues --   -0.40053  -0.39765  -0.39744  -0.39416  -0.39296
 Alpha  occ. eigenvalues --   -0.39278  -0.39178  -0.38629  -0.38464  -0.38436
 Alpha  occ. eigenvalues --   -0.38160  -0.37846  -0.37781  -0.37187  -0.37101
 Alpha  occ. eigenvalues --   -0.36540  -0.36245  -0.35532  -0.35415  -0.35239
 Alpha  occ. eigenvalues --   -0.35120  -0.34918  -0.34699  -0.34557  -0.34114
 Alpha  occ. eigenvalues --   -0.33503  -0.33409  -0.33275  -0.32992  -0.32706
 Alpha  occ. eigenvalues --   -0.32374  -0.32206  -0.31967  -0.31661  -0.31417
 Alpha  occ. eigenvalues --   -0.31354  -0.30196  -0.30150  -0.29760  -0.29577
 Alpha  occ. eigenvalues --   -0.29388  -0.28519  -0.28287  -0.28050  -0.27410
 Alpha  occ. eigenvalues --   -0.27308  -0.27196  -0.24337  -0.20585
 Alpha virt. eigenvalues --   -0.08326  -0.06842  -0.02875  -0.00753   0.00050
 Alpha virt. eigenvalues --    0.01025   0.02504   0.02714   0.03882   0.04566
 Alpha virt. eigenvalues --    0.05019   0.05084   0.07750   0.08675   0.09131

 Mulliken charges:
               1
     1  Mg   0.841771
     2  C    0.084105
     3  C   -0.180943
     4  C   -0.170180
     5  C   -0.165120
     6  N   -0.615032
     7  C    0.334475
     8  C   -0.157486
     9  C   -0.155788
    10  C    0.339219
    11  C   -0.300985
    12  C   -0.192983
    13  C   -0.252772
    14  C    0.584135
    15  O   -0.498629
    16  O   -0.427094
    17  N   -0.716761
    18  C    0.272680
    19  C    0.075273
    20  C   -0.059236
    21  C    0.331430
    22  C   -0.393303
    23  C    0.243968
    24  O   -0.416743
    25  N   -0.690758
    26  C    0.305333
    27  C   -0.009724
    28  C    0.001033
    29  C    0.273147
    30  C    0.238151
    31  C   -0.248439
    32  C   -0.314287
    33  N   -0.729811
    34  C    0.276901
    35  C   -0.020645
    36  C    0.048122
    37  C    0.328816
    38  C   -0.383128
    39  C    0.373818
    40  O   -0.469988
    41  C   -0.333008
    42  C    0.597216
    43  O   -0.464431
    44  O   -0.435518
    45  C   -0.061482
    46  C   -0.000678
    47  C   -0.140066
    48  C    0.161612
    49  C   -0.378545
    50  C   -0.233532
    51  C   -0.149399
    52  C   -0.181327
    53  C   -0.084542
    54  C   -0.323561
    55  C   -0.192598
    56  C   -0.173294
    57  C   -0.156417
    58  C   -0.064220
    59  C   -0.291353
    60  C   -0.151069
    61  C   -0.177702
    62  C   -0.155515
    63  C   -0.038500
    64  C   -0.313266
    65  C   -0.310415
    66  H    0.093263
    67  H    0.141978
    68  H    0.079221
    69  H    0.127783
    70  H    0.085978
    71  H    0.122720
    72  H    0.101108
    73  H    0.127918
    74  H    0.110132
    75  H    0.142128
    76  H    0.133957
    77  H    0.140680
    78  H    0.111257
    79  H    0.172247
    80  H    0.131942
    81  H    0.079724
    82  H    0.105365
    83  H    0.107331
    84  H    0.116556
    85  H    0.123959
    86  H    0.115114
    87  H    0.138529
    88  H    0.139125
    89  H    0.139204
    90  H    0.174087
    91  H    0.123043
    92  H    0.105308
    93  H    0.080202
    94  H    0.144189
    95  H    0.115505
    96  H    0.104393
    97  H    0.100289
    98  H    0.076160
    99  H    0.084844
   100  H    0.099855
   101  H    0.062917
   102  H    0.101262
   103  H    0.089184
   104  H    0.111260
   105  H    0.110693
   106  H    0.086789
   107  H    0.073559
   108  H    0.106380
   109  H    0.111530
   110  H    0.100321
   111  H    0.067233
   112  H    0.043790
   113  H    0.079356
   114  H    0.117625
   115  H    0.088255
   116  H    0.089915
   117  H    0.078773
   118  H    0.098775
   119  H    0.063373
   120  H    0.081886
   121  H    0.082406
   122  H    0.058488
   123  H    0.092524
   124  H    0.117302
   125  H    0.085719
   126  H    0.091921
   127  H    0.123288
   128  H    0.090182
   129  H    0.092803
   130  H    0.123414
   131  H    0.130469
   132  H    0.084689
   133  O   -0.432567
   134  H    0.070457
 Sum of Mulliken charges =   0.00000

 Dipole moment (field-independent basis, Debye):
    X=              2.0220    Y=             -4.4675    Z=             -1.6031  Tot=              5.1591
 Quadrupole moment (field-independent basis, Debye-Ang):
   XX=           -371.5118   YY=           -437.3816   ZZ=           -392.7099
   XY=              8.4874   XZ=             23.4934   YZ=            -37.5195

 Normal termination of Gaussian 09 at Fri Oct  4 19:41:59 2019.
