 Gaussian 09, Revision D.01,
 Gaussian 09:  ES64L-G09RevD.01 24-Apr-2013

 ----------------------------------------------------------------------
 # td=(NStates=1) iop(3/107=0140000000,3/108=0140000000) iop(3/107=0140
 000000,3/108=0140000000) CAM-B3LYP/6-31G(d,p)
 ----------------------------------------------------------------------

 --
 TD
 --
 Symbolic Z-matrix:
 Charge =  0 Multiplicity = 1

                         Standard orientation:
 ---------------------------------------------------------------------
 Center     Atomic      Atomic             Coordinates (Angstroms)
 Number     Number       Type             X           Y           Z
 ---------------------------------------------------------------------
      1         12           0       -5.592540    1.192016    0.200296
      2          6           0       -4.989882   -2.181515   -0.395899
      3          6           0       -3.361579    1.142592    2.764163
      4          6           0       -6.178463    4.582930    0.706195
      5          6           0       -7.925346    1.216151   -2.381279
      6          7           0       -4.357276   -0.265230    1.048673
      7          6           0       -4.287770   -1.609365    0.713929
      8          6           0       -3.173911   -2.384023    1.483291
      9          6           0       -3.010342   -1.313185    2.578035
     10          6           0       -3.634782   -0.060790    2.137078
     11          6           0       -3.443332   -1.885984    3.998093
     12          6           0       -1.946400   -2.735238    0.642300
     13          6           0       -0.980220   -3.532816    1.344563
     14          6           0        0.259779   -3.965968    0.579100
     15          8           0        0.453608   -3.498895   -0.517547
     16          8           0        0.985917   -4.790060    1.326968
     17          7           0       -4.860616    2.624409    1.491559
     18          6           0       -3.990141    2.417736    2.499130
     19          6           0       -3.707683    3.710959    3.245604
     20          6           0       -4.530719    4.634432    2.588807
     21          6           0       -5.241593    3.966919    1.481330
     22          6           0       -2.865512    3.863707    4.365993
     23          6           0       -4.543243    6.057290    2.812443
     24          8           0       -3.978483    6.618758    3.794092
     25          7           0       -6.876258    2.673285   -0.667323
     26          6           0       -6.902323    3.999519   -0.376689
     27          6           0       -7.926857    4.652697   -1.219527
     28          6           0       -8.374714    3.676359   -2.086961
     29          6           0       -7.764709    2.427036   -1.714294
     30          6           0       -8.332792    6.061197   -1.218941
     31          6           0       -9.314362    3.833135   -3.211197
     32          6           0       -8.497581    3.949395   -4.556128
     33          7           0       -6.332219   -0.113489   -1.051771
     34          6           0       -7.394196   -0.053080   -1.978556
     35          6           0       -7.530685   -1.287857   -2.733367
     36          6           0       -6.657784   -2.206769   -2.136795
     37          6           0       -5.949397   -1.386924   -1.073459
     38          6           0       -8.404104   -1.548609   -3.866062
     39          6           0       -6.102168   -3.600740   -2.063715
     40          8           0       -6.511685   -4.591474   -2.710466
     41          6           0       -4.962583   -3.633627   -0.940492
     42          6           0       -5.125299   -4.679827    0.058366
     43          8           0       -5.444192   -4.532186    1.261426
     44          8           0       -4.915272   -5.900873   -0.481740
     45          6           0       -5.144526   -6.971025    0.408576
     46          6           0        2.203971   -5.098730    0.681845
     47          6           0        3.275551   -4.064985    1.074542
     48          6           0        3.861973   -3.214344    0.303942
     49          6           0        3.639514   -3.092461   -1.152323
     50          6           0        5.039173   -2.367409    0.786211
     51          6           0        6.354554   -2.729256    0.190999
     52          6           0        7.459011   -1.692724    0.660537
     53          6           0        8.867466   -1.924556    0.032897
     54          6           0        9.382534   -3.259562    0.361961
     55          6           0        9.849455   -0.722608    0.496414
     56          6           0       11.184081   -0.682437   -0.387475
     57          6           0       12.108490    0.323081    0.065917
     58          6           0       13.396677    0.455115   -0.666579
     59          6           0       14.435845   -0.688676   -0.440939
     60          6           0       14.003848    1.848263   -0.323228
     61          6           0       15.417072    2.075888   -1.089658
     62          6           0       16.007425    3.493952   -0.625638
     63          6           0       17.420221    3.833338   -1.287236
     64          6           0       17.249865    3.798611   -2.849693
     65          6           0       17.969300    5.098827   -0.773514
     66          1           0       -2.619604    0.907966    3.547868
     67          1           0       -6.541909    5.676812    0.865777
     68          1           0       -8.665825    1.295453   -3.084381
     69          1           0       -3.827851   -3.426173    1.911528
     70          1           0       -1.709480   -0.993473    2.541834
     71          1           0       -2.907470   -2.798612    4.217242
     72          1           0       -3.227054   -1.174919    4.866174
     73          1           0       -4.515339   -2.096831    3.992364
     74          1           0       -2.245117   -3.312935   -0.217769
     75          1           0       -1.298120   -1.866283    0.376704
     76          1           0       -0.612335   -3.233567    2.394669
     77          1           0       -1.548781   -4.582230    1.606015
     78          1           0       -1.728919    3.577075    4.278787
     79          1           0       -3.032578    4.881453    4.697826
     80          1           0       -3.023302    3.220659    5.298762
     81          1           0       -5.061720    6.672733    2.241236
     82          1           0       -9.761746    2.811437   -3.302136
     83          1           0      -10.174548    4.649595   -3.169462
     84          1           0       -9.019506    4.041916   -5.434844
     85          1           0       -7.862733    4.876703   -4.398643
     86          1           0       -7.911248    2.962240   -4.575543
     87          1           0       -8.250871   -1.008643   -4.699996
     88          1           0       -8.303925   -2.676677   -4.186110
     89          1           0       -9.591118   -1.590660   -3.578522
     90          1           0       -4.180255   -3.848940   -1.642365
     91          1           0        2.582914   -6.128600    0.809494
     92          1           0        2.087399   -4.831504   -0.404877
     93          1           0        3.794805   -4.163249    2.029852
     94          1           0        2.631851   -3.120239   -1.327196
     95          1           0        3.983263   -1.978971   -1.328376
     96          1           0        4.223783   -3.780428   -1.715272
     97          1           0        4.912911   -1.295276    0.584294
     98          1           0        4.936623   -2.234767    1.974734
     99          1           0        6.760316   -3.680089    0.470499
    100          1           0        6.665915   -2.945623   -0.893773
    101          1           0        7.210777   -0.642372    0.406535
    102          1           0        7.374048   -1.761862    1.759934
    103          1           0        8.674418   -1.762175   -1.195021
    104          1           0        8.520757   -3.946998    0.194075
    105          1           0       10.268515   -3.406602   -0.192197
    106          1           0        9.540194   -3.600845    1.424672
    107          1           0        9.543536    0.237065    0.286815
    108          1           0       10.013586   -0.885012    1.617872
    109          1           0       11.715235   -1.608344   -0.366355
    110          1           0       10.708936   -0.515051   -1.387490
    111          1           0       11.592408    1.420894   -0.044374
    112          1           0       12.096858    0.100188    1.283664
    113          1           0       13.341837    0.445654   -1.988565
    114          1           0       14.663853   -0.884560    0.598859
    115          1           0       13.959198   -1.676845   -0.710157
    116          1           0       15.181235   -0.473149   -1.097022
    117          1           0       13.231636    2.744236   -0.779913
    118          1           0       14.093505    1.870295    0.695534
    119          1           0       16.328316    1.364332   -0.838585
    120          1           0       15.204783    2.189289   -2.094306
    121          1           0       15.347034    4.100783   -0.882126
    122          1           0       16.140009    3.386295    0.365601
    123          1           0       17.930993    2.817221   -1.075268
    124          1           0       16.354798    4.467933   -3.096712
    125          1           0       18.146227    4.115499   -3.260744
    126          1           0       17.217529    2.792596   -3.264311
    127          1           0       17.821648    5.229391    0.364587
    128          1           0       19.214613    5.097637   -1.079899
    129          1           0       17.437441    5.986757   -1.088303
    130          1           0       -4.949012   -7.824489   -0.302423
    131          1           0       -6.092469   -7.044800    0.847649
    132          1           0       -4.400033   -7.170047    1.352830
    133          8           0       -7.867666    6.929054   -0.496482
    134          1           0       -9.218428    6.155904   -1.838480
 ---------------------------------------------------------------------

 SCF Done:  E(RCAM-B3LYP) =  -3043.45659445     A.U. after   16 cycles

 Excitation energies and oscillator strengths:

 Excited State   1:      Singlet-A      2.0627 eV  601.08 nm  f=0.1933  <S**2>=0.000
     243 -> 246       -0.26483
     244 -> 245        0.63757
 This state for optimization and/or second-order correction.
 Total Energy, E(TD-HF/TD-KS) =  -3043.38079250
 Copying the excited state density for this state as the 1-particle RhoCI density.

 The electronic state is 1-A.
 Alpha  occ. eigenvalues --  -46.81653 -19.24357 -19.24089 -19.18244 -19.18074
 Alpha  occ. eigenvalues --  -19.17820 -19.17382 -19.16271 -14.38997 -14.37627
 Alpha  occ. eigenvalues --  -14.37580 -14.36987 -10.36399 -10.35505 -10.33138
 Alpha  occ. eigenvalues --  -10.30218 -10.28810 -10.28317 -10.28179 -10.28085
 Alpha  occ. eigenvalues --  -10.27903 -10.27195 -10.26926 -10.26824 -10.26681
 Alpha  occ. eigenvalues --  -10.26504 -10.26437 -10.26084 -10.25766 -10.25712
 Alpha  occ. eigenvalues --  -10.25310 -10.25309 -10.24669 -10.24650 -10.24468
 Alpha  occ. eigenvalues --  -10.24301 -10.24172 -10.24124 -10.23514 -10.23477
 Alpha  occ. eigenvalues --  -10.23443 -10.23433 -10.23337 -10.23060 -10.23028
 Alpha  occ. eigenvalues --  -10.22907 -10.22787 -10.22498 -10.22480 -10.22261
 Alpha  occ. eigenvalues --  -10.22192 -10.22133 -10.21996 -10.21882 -10.21818
 Alpha  occ. eigenvalues --  -10.21721 -10.21147 -10.20968 -10.20944 -10.20299
 Alpha  occ. eigenvalues --  -10.20229 -10.20215 -10.19781 -10.19699 -10.19612
 Alpha  occ. eigenvalues --  -10.17683  -3.10289  -1.85226  -1.84741  -1.84722
 Alpha  occ. eigenvalues --   -1.15810  -1.14888  -1.07026  -1.06682  -1.05637
 Alpha  occ. eigenvalues --   -1.04632  -1.03937  -1.01336  -0.99899  -0.99539
 Alpha  occ. eigenvalues --   -0.98573  -0.88289  -0.86728  -0.86131  -0.85948
 Alpha  occ. eigenvalues --   -0.85278  -0.84547  -0.83979  -0.83871  -0.83864
 Alpha  occ. eigenvalues --   -0.83110  -0.83092  -0.81864  -0.80920  -0.79972
 Alpha  occ. eigenvalues --   -0.78967  -0.78409  -0.77898  -0.76994  -0.76487
 Alpha  occ. eigenvalues --   -0.75642  -0.75315  -0.73615  -0.73514  -0.72424
 Alpha  occ. eigenvalues --   -0.71488  -0.71079  -0.70946  -0.70359  -0.69758
 Alpha  occ. eigenvalues --   -0.69476  -0.69078  -0.67618  -0.67023  -0.66299
 Alpha  occ. eigenvalues --   -0.66106  -0.64765  -0.64706  -0.62885  -0.62420
 Alpha  occ. eigenvalues --   -0.61410  -0.60943  -0.60067  -0.59714  -0.59608
 Alpha  occ. eigenvalues --   -0.58429  -0.58047  -0.57945  -0.57493  -0.56732
 Alpha  occ. eigenvalues --   -0.56286  -0.56184  -0.55812  -0.55127  -0.54909
 Alpha  occ. eigenvalues --   -0.54622  -0.53793  -0.53330  -0.52812  -0.52440
 Alpha  occ. eigenvalues --   -0.52207  -0.51851  -0.51612  -0.51373  -0.51316
 Alpha  occ. eigenvalues --   -0.50924  -0.50180  -0.49949  -0.49510  -0.49391
 Alpha  occ. eigenvalues --   -0.48952  -0.48679  -0.48507  -0.48141  -0.47904
 Alpha  occ. eigenvalues --   -0.47729  -0.47462  -0.47233  -0.47181  -0.46953
 Alpha  occ. eigenvalues --   -0.46654  -0.46341  -0.46200  -0.46017  -0.45833
 Alpha  occ. eigenvalues --   -0.45727  -0.45587  -0.45422  -0.45355  -0.44892
 Alpha  occ. eigenvalues --   -0.44663  -0.44290  -0.44262  -0.44013  -0.43860
 Alpha  occ. eigenvalues --   -0.43824  -0.43670  -0.43395  -0.43239  -0.43023
 Alpha  occ. eigenvalues --   -0.42673  -0.42563  -0.42428  -0.42176  -0.41791
 Alpha  occ. eigenvalues --   -0.41760  -0.41516  -0.41353  -0.41189  -0.41040
 Alpha  occ. eigenvalues --   -0.40687  -0.40623  -0.40479  -0.40363  -0.40190
 Alpha  occ. eigenvalues --   -0.40145  -0.39932  -0.39654  -0.39445  -0.39089
 Alpha  occ. eigenvalues --   -0.38879  -0.38693  -0.38323  -0.38058  -0.38024
 Alpha  occ. eigenvalues --   -0.37843  -0.37744  -0.37728  -0.37378  -0.37357
 Alpha  occ. eigenvalues --   -0.36928  -0.36524  -0.35941  -0.35910  -0.35536
 Alpha  occ. eigenvalues --   -0.35477  -0.35008  -0.34922  -0.34694  -0.33969
 Alpha  occ. eigenvalues --   -0.33854  -0.33483  -0.33319  -0.33079  -0.33024
 Alpha  occ. eigenvalues --   -0.32690  -0.32115  -0.32047  -0.31925  -0.31719
 Alpha  occ. eigenvalues --   -0.31473  -0.31324  -0.31065  -0.29930  -0.29804
 Alpha  occ. eigenvalues --   -0.29068  -0.28430  -0.28162  -0.28145  -0.28078
 Alpha  occ. eigenvalues --   -0.27668  -0.27265  -0.23127  -0.21646
 Alpha virt. eigenvalues --   -0.08456  -0.06589  -0.02468  -0.01225  -0.00178
 Alpha virt. eigenvalues --    0.00791   0.02970   0.03585   0.03928   0.04255
 Alpha virt. eigenvalues --    0.05217   0.05270   0.07489   0.08175   0.08677

 Mulliken charges:
               1
     1  Mg   0.833976
     2  C    0.032652
     3  C   -0.188553
     4  C   -0.179399
     5  C   -0.127818
     6  N   -0.647388
     7  C    0.275066
     8  C   -0.142925
     9  C   -0.174009
    10  C    0.418112
    11  C   -0.314480
    12  C   -0.142644
    13  C   -0.271174
    14  C    0.628547
    15  O   -0.464813
    16  O   -0.427184
    17  N   -0.701436
    18  C    0.306320
    19  C    0.109188
    20  C   -0.046923
    21  C    0.333004
    22  C   -0.433873
    23  C    0.253545
    24  O   -0.445207
    25  N   -0.682479
    26  C    0.281897
    27  C   -0.042054
    28  C    0.058583
    29  C    0.285952
    30  C    0.264267
    31  C   -0.288704
    32  C   -0.296496
    33  N   -0.719990
    34  C    0.230084
    35  C    0.034251
    36  C    0.036255
    37  C    0.317459
    38  C   -0.401120
    39  C    0.337768
    40  O   -0.460352
    41  C   -0.297888
    42  C    0.652670
    43  O   -0.498570
    44  O   -0.420491
    45  C   -0.087950
    46  C   -0.043538
    47  C   -0.126015
    48  C    0.130333
    49  C   -0.369705
    50  C   -0.239631
    51  C   -0.180202
    52  C   -0.173691
    53  C   -0.056899
    54  C   -0.299274
    55  C   -0.178178
    56  C   -0.173662
    57  C   -0.145887
    58  C   -0.035495
    59  C   -0.306489
    60  C   -0.155657
    61  C   -0.208210
    62  C   -0.165624
    63  C   -0.051078
    64  C   -0.309754
    65  C   -0.287899
    66  H    0.086083
    67  H    0.147552
    68  H    0.078702
    69  H    0.130743
    70  H    0.055645
    71  H    0.125299
    72  H    0.102284
    73  H    0.132615
    74  H    0.115897
    75  H    0.120771
    76  H    0.128904
    77  H    0.095874
    78  H    0.119250
    79  H    0.170284
    80  H    0.124783
    81  H    0.090856
    82  H    0.109379
    83  H    0.109048
    84  H    0.122194
    85  H    0.111126
    86  H    0.100619
    87  H    0.140927
    88  H    0.139366
    89  H    0.111578
    90  H    0.183854
    91  H    0.122852
    92  H    0.134137
    93  H    0.070736
    94  H    0.153277
    95  H    0.086047
    96  H    0.127327
    97  H    0.107856
    98  H    0.081278
    99  H    0.105842
   100  H    0.096053
   101  H    0.085309
   102  H    0.089339
   103  H    0.053076
   104  H    0.089503
   105  H    0.111912
   106  H    0.100173
   107  H    0.102031
   108  H    0.078065
   109  H    0.093055
   110  H    0.089673
   111  H    0.058748
   112  H    0.069398
   113  H    0.032498
   114  H    0.101142
   115  H    0.089701
   116  H    0.119972
   117  H    0.061487
   118  H    0.106384
   119  H    0.080390
   120  H    0.110000
   121  H    0.091073
   122  H    0.095243
   123  H    0.071334
   124  H    0.091056
   125  H    0.103952
   126  H    0.103905
   127  H    0.092520
   128  H    0.068380
   129  H    0.112860
   130  H    0.121841
   131  H    0.147785
   132  H    0.099187
   133  O   -0.434206
   134  H    0.065054
 Sum of Mulliken charges =   0.00000

 Dipole moment (field-independent basis, Debye):
    X=              1.8893    Y=             -5.4475    Z=             -1.0503  Tot=              5.8607
 Quadrupole moment (field-independent basis, Debye-Ang):
   XX=           -380.1208   YY=           -439.9851   ZZ=           -395.5712
   XY=              5.4149   XZ=             24.5530   YZ=            -35.0373

 Normal termination of Gaussian 09 at Fri Oct  4 15:10:19 2019.
