 Gaussian 09, Revision D.01,
 Gaussian 09:  ES64L-G09RevD.01 24-Apr-2013

 ----------------------------------------------------------------------
 # td=(NStates=1) iop(3/107=0140000000,3/108=0140000000) iop(3/107=0140
 000000,3/108=0140000000) CAM-B3LYP/6-31G(d,p)
 ----------------------------------------------------------------------

 --
 TD
 --
 Symbolic Z-matrix:
 Charge =  0 Multiplicity = 1

                         Standard orientation:
 ---------------------------------------------------------------------
 Center     Atomic      Atomic             Coordinates (Angstroms)
 Number     Number       Type             X           Y           Z
 ---------------------------------------------------------------------
      1         12           0       -5.618990    1.252241    0.225988
      2          6           0       -5.004273   -2.155275   -0.378004
      3          6           0       -3.453193    1.247317    2.626911
      4          6           0       -6.182504    4.601269    0.638111
      5          6           0       -7.945322    1.225799   -2.389932
      6          7           0       -4.400640   -0.319643    1.034977
      7          6           0       -4.294862   -1.565779    0.637773
      8          6           0       -3.166013   -2.325135    1.417844
      9          6           0       -2.721034   -1.269734    2.532024
     10          6           0       -3.477639    0.002865    2.082980
     11          6           0       -3.461505   -1.757245    3.916133
     12          6           0       -1.928737   -2.814576    0.648966
     13          6           0       -0.978886   -3.573167    1.461367
     14          6           0        0.200016   -3.851582    0.674015
     15          8           0        0.498793   -3.261113   -0.403158
     16          8           0        1.050595   -4.689478    1.201182
     17          7           0       -4.926877    2.649899    1.362541
     18          6           0       -4.124057    2.405602    2.429493
     19          6           0       -3.793264    3.598067    3.183017
     20          6           0       -4.496634    4.615071    2.638281
     21          6           0       -5.300874    3.952414    1.509303
     22          6           0       -2.780236    3.793010    4.250643
     23          6           0       -4.627162    5.972684    2.852904
     24          8           0       -4.049125    6.508435    3.872326
     25          7           0       -6.835311    2.598622   -0.672638
     26          6           0       -6.935935    3.927859   -0.306032
     27          6           0       -7.812743    4.662601   -1.171559
     28          6           0       -8.432321    3.687636   -2.032347
     29          6           0       -7.737930    2.428742   -1.688148
     30          6           0       -8.389304    6.030081   -1.081809
     31          6           0       -9.462257    3.670182   -3.105788
     32          6           0       -8.906314    3.867878   -4.528356
     33          7           0       -6.339773   -0.140675   -1.111709
     34          6           0       -7.349830   -0.033364   -2.086315
     35          6           0       -7.538552   -1.315591   -2.741059
     36          6           0       -6.687741   -2.242882   -2.080688
     37          6           0       -6.005514   -1.417352   -1.079563
     38          6           0       -8.396988   -1.730779   -3.896369
     39          6           0       -6.160111   -3.542595   -2.065763
     40          8           0       -6.559271   -4.552059   -2.659889
     41          6           0       -5.078033   -3.590959   -0.921004
     42          6           0       -5.315604   -4.618467    0.129470
     43          8           0       -5.820147   -4.463978    1.222107
     44          8           0       -4.978471   -5.879064   -0.330635
     45          6           0       -5.377562   -6.880140    0.655750
     46          6           0        2.330582   -5.130142    0.543721
     47          6           0        3.463642   -4.196422    0.931530
     48          6           0        4.155066   -3.243152    0.177538
     49          6           0        3.752410   -3.118340   -1.360420
     50          6           0        5.214615   -2.439820    0.812726
     51          6           0        6.578006   -2.626579    0.102281
     52          6           0        7.660458   -1.757453    0.670191
     53          6           0        9.029835   -1.961016   -0.057778
     54          6           0        9.622804   -3.345372    0.039919
     55          6           0       10.023609   -0.950877    0.570397
     56          6           0       11.305476   -0.797847   -0.207367
     57          6           0       12.252633    0.222942    0.306762
     58          6           0       13.617136    0.484347   -0.487709
     59          6           0       14.418303   -0.802906   -0.347400
     60          6           0       14.213879    1.729577   -0.026951
     61          6           0       15.447982    2.219667   -1.005418
     62          6           0       16.003077    3.526336   -0.740442
     63          6           0       17.280365    4.004327   -1.478819
     64          6           0       17.025975    4.020636   -2.920706
     65          6           0       17.706208    5.250596   -0.865748
     66          1           0       -2.834671    1.025662    3.616292
     67          1           0       -6.380968    5.723402    0.484623
     68          1           0       -8.765794    1.441811   -3.051615
     69          1           0       -3.623021   -3.222880    2.036296
     70          1           0       -1.837503   -1.140033    2.870905
     71          1           0       -2.890075   -2.773788    4.028346
     72          1           0       -3.336319   -1.077656    4.724789
     73          1           0       -4.547071   -2.034798    3.538335
     74          1           0       -2.188508   -3.411977   -0.201489
     75          1           0       -1.511049   -1.806348    0.254947
     76          1           0       -0.589778   -2.941332    2.373671
     77          1           0       -1.411595   -4.404120    1.974429
     78          1           0       -1.880131    3.489687    3.860868
     79          1           0       -2.756473    4.813460    4.394414
     80          1           0       -3.010733    3.102912    5.111883
     81          1           0       -5.198054    6.729370    2.191078
     82          1           0      -10.002084    2.784316   -2.970873
     83          1           0      -10.108403    4.339257   -2.900214
     84          1           0       -9.776221    3.849962   -5.184910
     85          1           0       -8.457074    4.993419   -4.427283
     86          1           0       -8.090365    3.308507   -4.533445
     87          1           0       -8.194217   -1.233146   -4.769051
     88          1           0       -8.320057   -2.903168   -3.901546
     89          1           0       -9.485243   -1.515410   -3.667732
     90          1           0       -4.270158   -3.838195   -1.444907
     91          1           0        2.643612   -6.211875    0.876795
     92          1           0        2.108009   -4.861455   -0.442901
     93          1           0        3.625855   -3.980338    1.957364
     94          1           0        2.653901   -3.369366   -1.358901
     95          1           0        4.085165   -2.176701   -1.839143
     96          1           0        4.260925   -3.909910   -2.162158
     97          1           0        4.917848   -1.521128    0.511430
     98          1           0        5.105288   -2.547134    1.807434
     99          1           0        6.850516   -3.554574    0.266912
    100          1           0        6.519172   -2.358699   -0.947895
    101          1           0        7.321297   -0.719537    0.499455
    102          1           0        7.828622   -2.140931    1.791720
    103          1           0        8.740284   -1.707682   -1.114374
    104          1           0        8.831685   -4.094256   -0.044505
    105          1           0       10.528602   -3.563288   -0.500074
    106          1           0        9.940408   -3.582905    1.130390
    107          1           0        9.724170    0.126012    0.483563
    108          1           0       10.201548   -1.087807    1.640733
    109          1           0       11.869995   -1.870049   -0.394778
    110          1           0       11.027195   -0.623380   -1.288207
    111          1           0       11.576770    1.199009    0.537897
    112          1           0       12.528797   -0.005002    1.484926
    113          1           0       13.235340    0.736379   -1.683639
    114          1           0       14.687249   -1.036234    0.556981
    115          1           0       13.965191   -1.711598   -0.737745
    116          1           0       15.421622   -0.717501   -0.816736
    117          1           0       13.485459    2.537136   -0.144551
    118          1           0       14.681609    1.537388    1.012755
    119          1           0       16.345239    1.280447   -0.852885
    120          1           0       15.319551    2.234628   -2.002498
    121          1           0       15.274389    4.258600   -1.219316
    122          1           0       16.205400    3.751780    0.224010
    123          1           0       18.113738    3.333858   -1.220058
    124          1           0       16.308645    4.589103   -3.172834
    125          1           0       17.913430    4.427642   -3.301908
    126          1           0       16.790924    3.060296   -3.392714
    127          1           0       17.846400    5.183882    0.296044
    128          1           0       18.666869    5.567212   -1.376838
    129          1           0       16.880540    5.899560   -1.237581
    130          1           0       -5.500810   -7.838520    0.093766
    131          1           0       -6.437809   -6.741713    0.789046
    132          1           0       -4.912638   -6.784348    1.580708
    133          8           0       -7.813529    6.890703   -0.446395
    134          1           0       -9.273977    6.164442   -1.677203
 ---------------------------------------------------------------------

 SCF Done:  E(RCAM-B3LYP) =  -3043.43229645     A.U. after   16 cycles

 Excitation energies and oscillator strengths:

 Excited State   1:      Singlet-A      2.0013 eV  619.53 nm  f=0.2003  <S**2>=0.000
     243 -> 246        0.26175
     244 -> 245        0.64552
 This state for optimization and/or second-order correction.
 Total Energy, E(TD-HF/TD-KS) =  -3043.35875181
 Copying the excited state density for this state as the 1-particle RhoCI density.

 The electronic state is 1-A.
 Alpha  occ. eigenvalues --  -46.81042 -19.22036 -19.21907 -19.18064 -19.17380
 Alpha  occ. eigenvalues --  -19.16644 -19.16070 -19.15522 -14.38786 -14.37792
 Alpha  occ. eigenvalues --  -14.36857 -14.36802 -10.34915 -10.34648 -10.31149
 Alpha  occ. eigenvalues --  -10.31096 -10.30044 -10.28978 -10.28033 -10.27406
 Alpha  occ. eigenvalues --  -10.27092 -10.26974 -10.26973 -10.26079 -10.26022
 Alpha  occ. eigenvalues --  -10.25925 -10.25740 -10.25729 -10.25113 -10.24898
 Alpha  occ. eigenvalues --  -10.24607 -10.24548 -10.24267 -10.24203 -10.24154
 Alpha  occ. eigenvalues --  -10.24118 -10.23867 -10.23619 -10.23461 -10.23424
 Alpha  occ. eigenvalues --  -10.23345 -10.23285 -10.23074 -10.22961 -10.22777
 Alpha  occ. eigenvalues --  -10.22719 -10.22678 -10.22551 -10.22369 -10.22074
 Alpha  occ. eigenvalues --  -10.21887 -10.21845 -10.21761 -10.21501 -10.21135
 Alpha  occ. eigenvalues --  -10.20978 -10.20840 -10.20714 -10.20672 -10.20448
 Alpha  occ. eigenvalues --  -10.20076 -10.20022 -10.19968 -10.18914 -10.18900
 Alpha  occ. eigenvalues --  -10.17808  -3.09866  -1.84784  -1.84338  -1.84301
 Alpha  occ. eigenvalues --   -1.12963  -1.12629  -1.07987  -1.05652  -1.04091
 Alpha  occ. eigenvalues --   -1.02838  -1.01566  -1.01136  -1.00220  -0.99242
 Alpha  occ. eigenvalues --   -0.98550  -0.88525  -0.86849  -0.86555  -0.86511
 Alpha  occ. eigenvalues --   -0.86460  -0.85521  -0.84941  -0.84912  -0.83818
 Alpha  occ. eigenvalues --   -0.83694  -0.83405  -0.82283  -0.80916  -0.80064
 Alpha  occ. eigenvalues --   -0.79496  -0.78823  -0.77905  -0.77374  -0.77222
 Alpha  occ. eigenvalues --   -0.75949  -0.75582  -0.73928  -0.73072  -0.72996
 Alpha  occ. eigenvalues --   -0.72612  -0.71852  -0.71330  -0.70527  -0.69924
 Alpha  occ. eigenvalues --   -0.69807  -0.68670  -0.68097  -0.67707  -0.67199
 Alpha  occ. eigenvalues --   -0.66106  -0.64800  -0.64697  -0.63135  -0.62652
 Alpha  occ. eigenvalues --   -0.62078  -0.60641  -0.59454  -0.59375  -0.59123
 Alpha  occ. eigenvalues --   -0.58725  -0.58555  -0.58238  -0.57612  -0.57062
 Alpha  occ. eigenvalues --   -0.56516  -0.55888  -0.55780  -0.55205  -0.54931
 Alpha  occ. eigenvalues --   -0.54716  -0.53765  -0.53458  -0.53188  -0.52811
 Alpha  occ. eigenvalues --   -0.52596  -0.52388  -0.51666  -0.51504  -0.51082
 Alpha  occ. eigenvalues --   -0.50395  -0.50233  -0.50039  -0.49587  -0.49476
 Alpha  occ. eigenvalues --   -0.49116  -0.48906  -0.48648  -0.48568  -0.48321
 Alpha  occ. eigenvalues --   -0.48283  -0.48214  -0.47575  -0.47305  -0.47260
 Alpha  occ. eigenvalues --   -0.47062  -0.46669  -0.46139  -0.46062  -0.45914
 Alpha  occ. eigenvalues --   -0.45739  -0.45529  -0.45200  -0.45076  -0.44937
 Alpha  occ. eigenvalues --   -0.44613  -0.44322  -0.44167  -0.43964  -0.43842
 Alpha  occ. eigenvalues --   -0.43805  -0.43584  -0.43461  -0.43131  -0.42705
 Alpha  occ. eigenvalues --   -0.42593  -0.42423  -0.41974  -0.41891  -0.41755
 Alpha  occ. eigenvalues --   -0.41723  -0.41559  -0.41521  -0.41227  -0.41047
 Alpha  occ. eigenvalues --   -0.40940  -0.40722  -0.40453  -0.40261  -0.39993
 Alpha  occ. eigenvalues --   -0.39909  -0.39837  -0.39686  -0.39406  -0.39282
 Alpha  occ. eigenvalues --   -0.39074  -0.38950  -0.38696  -0.38453  -0.38121
 Alpha  occ. eigenvalues --   -0.37963  -0.37882  -0.37662  -0.37571  -0.37355
 Alpha  occ. eigenvalues --   -0.37095  -0.36901  -0.36633  -0.36307  -0.35935
 Alpha  occ. eigenvalues --   -0.35573  -0.35327  -0.35294  -0.34894  -0.34815
 Alpha  occ. eigenvalues --   -0.34322  -0.33740  -0.33621  -0.33368  -0.33179
 Alpha  occ. eigenvalues --   -0.33074  -0.32406  -0.31986  -0.31928  -0.31528
 Alpha  occ. eigenvalues --   -0.31214  -0.31055  -0.30008  -0.29387  -0.29162
 Alpha  occ. eigenvalues --   -0.29102  -0.28873  -0.28399  -0.28006  -0.27695
 Alpha  occ. eigenvalues --   -0.27169  -0.25992  -0.23012  -0.21757
 Alpha virt. eigenvalues --   -0.08926  -0.06662  -0.02161  -0.01315   0.00258
 Alpha virt. eigenvalues --    0.02436   0.02935   0.03412   0.03739   0.03977
 Alpha virt. eigenvalues --    0.05092   0.05855   0.07885   0.08878   0.09042

 Mulliken charges:
               1
     1  Mg   0.831120
     2  C    0.054972
     3  C   -0.206239
     4  C   -0.190814
     5  C   -0.149068
     6  N   -0.644282
     7  C    0.339599
     8  C   -0.180534
     9  C   -0.125579
    10  C    0.310489
    11  C   -0.318685
    12  C   -0.147890
    13  C   -0.258654
    14  C    0.613355
    15  O   -0.513661
    16  O   -0.471624
    17  N   -0.698872
    18  C    0.341555
    19  C    0.037727
    20  C    0.066094
    21  C    0.260089
    22  C   -0.365498
    23  C    0.169313
    24  O   -0.451134
    25  N   -0.691193
    26  C    0.301490
    27  C   -0.067069
    28  C    0.001585
    29  C    0.280509
    30  C    0.266610
    31  C   -0.251468
    32  C   -0.285168
    33  N   -0.698663
    34  C    0.259833
    35  C    0.025427
    36  C    0.067751
    37  C    0.295444
    38  C   -0.388023
    39  C    0.311863
    40  O   -0.469613
    41  C   -0.279500
    42  C    0.632516
    43  O   -0.477938
    44  O   -0.464460
    45  C   -0.090425
    46  C    0.015424
    47  C   -0.147100
    48  C    0.115926
    49  C   -0.377268
    50  C   -0.209727
    51  C   -0.172786
    52  C   -0.170027
    53  C   -0.048078
    54  C   -0.318120
    55  C   -0.157429
    56  C   -0.158905
    57  C   -0.157703
    58  C   -0.021684
    59  C   -0.317180
    60  C   -0.157045
    61  C   -0.150478
    62  C   -0.143631
    63  C   -0.070473
    64  C   -0.303341
    65  C   -0.288759
    66  H    0.069640
    67  H    0.154654
    68  H    0.081587
    69  H    0.106592
    70  H    0.098279
    71  H    0.096883
    72  H    0.119146
    73  H    0.131626
    74  H    0.119439
    75  H    0.122255
    76  H    0.130227
    77  H    0.139917
    78  H    0.131947
    79  H    0.162696
    80  H    0.116236
    81  H    0.107497
    82  H    0.119801
    83  H    0.109546
    84  H    0.124589
    85  H    0.086860
    86  H    0.131360
    87  H    0.140665
    88  H    0.148077
    89  H    0.118706
    90  H    0.160832
    91  H    0.132040
    92  H    0.131875
    93  H    0.072402
    94  H    0.158849
    95  H    0.107033
    96  H    0.083275
    97  H    0.114316
    98  H    0.098102
    99  H    0.113285
   100  H    0.094586
   101  H    0.092496
   102  H    0.067446
   103  H    0.076962
   104  H    0.101293
   105  H    0.119790
   106  H    0.085780
   107  H    0.081364
   108  H    0.094041
   109  H    0.054105
   110  H    0.088148
   111  H    0.058635
   112  H    0.056148
   113  H    0.043093
   114  H    0.118409
   115  H    0.108783
   116  H    0.094822
   117  H    0.102075
   118  H    0.087098
   119  H    0.025117
   120  H    0.095488
   121  H    0.065080
   122  H    0.081422
   123  H    0.077115
   124  H    0.108396
   125  H    0.097288
   126  H    0.106420
   127  H    0.097042
   128  H    0.089454
   129  H    0.090610
   130  H    0.121683
   131  H    0.134382
   132  H    0.136180
   133  O   -0.420042
   134  H    0.086156
 Sum of Mulliken charges =   0.00000

 Dipole moment (field-independent basis, Debye):
    X=              1.2122    Y=             -3.4730    Z=             -0.7788  Tot=              3.7600
 Quadrupole moment (field-independent basis, Debye-Ang):
   XX=           -361.9298   YY=           -441.1085   ZZ=           -396.2513
   XY=             -4.3075   XZ=             23.7475   YZ=            -43.5177

 Normal termination of Gaussian 09 at Thu Oct  3 14:01:43 2019.
