 Gaussian 09, Revision D.01,
 Gaussian 09:  ES64L-G09RevD.01 24-Apr-2013

 ----------------------------------------------------------------------
 # td=(NStates=1) iop(3/107=0140000000,3/108=0140000000) iop(3/107=0140
 000000,3/108=0140000000) CAM-B3LYP/6-31G(d,p)
 ----------------------------------------------------------------------

 --
 TD
 --
 Symbolic Z-matrix:
 Charge =  0 Multiplicity = 1

                         Standard orientation:
 ---------------------------------------------------------------------
 Center     Atomic      Atomic             Coordinates (Angstroms)
 Number     Number       Type             X           Y           Z
 ---------------------------------------------------------------------
      1         12           0       -5.651785    1.244433    0.245007
      2          6           0       -5.017567   -2.132737   -0.398059
      3          6           0       -3.305345    1.163687    2.812375
      4          6           0       -6.090451    4.529647    0.595073
      5          6           0       -7.935869    1.210659   -2.422288
      6          7           0       -4.421882   -0.331599    1.060920
      7          6           0       -4.285284   -1.623109    0.718123
      8          6           0       -3.224974   -2.311205    1.518003
      9          6           0       -3.026463   -1.359357    2.616974
     10          6           0       -3.660666   -0.045231    2.099405
     11          6           0       -3.349850   -1.820745    3.980253
     12          6           0       -1.928542   -2.730433    0.672681
     13          6           0       -1.030485   -3.608556    1.417470
     14          6           0        0.214141   -3.978392    0.569291
     15          8           0        0.508298   -3.588698   -0.475391
     16          8           0        1.061718   -4.766427    1.262917
     17          7           0       -4.843454    2.610960    1.452434
     18          6           0       -3.909569    2.454163    2.378379
     19          6           0       -3.586208    3.605551    3.122929
     20          6           0       -4.383257    4.610521    2.531927
     21          6           0       -5.151923    3.937649    1.508257
     22          6           0       -2.755671    3.664220    4.322329
     23          6           0       -4.375828    6.079209    2.894574
     24          8           0       -3.825687    6.452900    3.900366
     25          7           0       -6.786621    2.620224   -0.683999
     26          6           0       -6.817153    3.972690   -0.411819
     27          6           0       -7.779703    4.658780   -1.252354
     28          6           0       -8.306814    3.677945   -2.033423
     29          6           0       -7.720303    2.406219   -1.705957
     30          6           0       -8.238361    6.045965   -1.161144
     31          6           0       -9.425113    4.011859   -3.092428
     32          6           0       -8.895878    4.147053   -4.551149
     33          7           0       -6.355125   -0.151282   -1.049702
     34          6           0       -7.388508    0.006608   -2.041959
     35          6           0       -7.676067   -1.268493   -2.737955
     36          6           0       -6.737645   -2.127260   -2.014249
     37          6           0       -5.996102   -1.449195   -1.139330
     38          6           0       -8.666785   -1.519494   -3.709580
     39          6           0       -6.277310   -3.548384   -2.040000
     40          8           0       -6.572539   -4.504699   -2.726712
     41          6           0       -5.105391   -3.544401   -0.906855
     42          6           0       -5.498479   -4.605519    0.161316
     43          8           0       -5.801214   -4.370508    1.248771
     44          8           0       -5.335708   -5.889882   -0.317934
     45          6           0       -5.582164   -6.925962    0.580805
     46          6           0        2.296372   -5.017938    0.539353
     47          6           0        3.366328   -4.027359    0.939772
     48          6           0        3.977388   -3.140397    0.114801
     49          6           0        3.528683   -2.924923   -1.349944
     50          6           0        5.051003   -2.247513    0.576031
     51          6           0        6.363588   -2.428842   -0.087159
     52          6           0        7.533107   -1.692563    0.563946
     53          6           0        8.953275   -1.911845   -0.142994
     54          6           0        9.396869   -3.293011    0.050082
     55          6           0       10.051667   -0.901026    0.464338
     56          6           0       11.381516   -0.933256   -0.254391
     57          6           0       12.237025    0.222469    0.226201
     58          6           0       13.609062    0.348242   -0.614248
     59          6           0       14.498601   -0.903333   -0.411029
     60          6           0       14.357359    1.631403   -0.122382
     61          6           0       15.486849    1.971747   -1.017466
     62          6           0       16.023837    3.444819   -0.691972
     63          6           0       17.410033    3.833957   -1.299695
     64          6           0       17.330192    3.893500   -2.747746
     65          6           0       18.028677    5.041110   -0.661663
     66          1           0       -2.827153    1.138927    3.770815
     67          1           0       -6.242357    5.604087    0.892238
     68          1           0       -8.709199    1.281482   -3.251709
     69          1           0       -3.467804   -3.178420    1.992749
     70          1           0       -1.899145   -1.261323    2.714463
     71          1           0       -3.036962   -2.823523    4.105864
     72          1           0       -3.123726   -1.045898    4.938220
     73          1           0       -4.412620   -2.078370    4.025745
     74          1           0       -2.271380   -3.410092   -0.152316
     75          1           0       -1.635792   -1.844392    0.316327
     76          1           0       -0.615508   -3.150916    2.268186
     77          1           0       -1.360215   -4.506245    1.916836
     78          1           0       -1.814841    3.331212    4.059883
     79          1           0       -2.480128    4.556107    4.576407
     80          1           0       -3.367316    3.063037    5.263606
     81          1           0       -4.783718    6.895465    1.895388
     82          1           0       -9.886625    3.236391   -3.184219
     83          1           0       -9.851147    5.007747   -2.826164
     84          1           0       -9.698012    4.352608   -5.307307
     85          1           0       -8.309772    5.200448   -4.561939
     86          1           0       -8.297506    3.264382   -4.779045
     87          1           0       -8.516889   -0.735946   -4.596921
     88          1           0       -8.573944   -2.617813   -4.032943
     89          1           0       -9.766871   -1.505660   -3.326583
     90          1           0       -4.166908   -3.956940   -1.375035
     91          1           0        2.758542   -6.060111    0.905209
     92          1           0        2.108921   -5.327429   -0.575959
     93          1           0        3.688051   -4.083820    1.977118
     94          1           0        2.406900   -3.360929   -1.345369
     95          1           0        3.401923   -1.784532   -1.611155
     96          1           0        4.037619   -3.487463   -2.010752
     97          1           0        4.711960   -1.086090    0.645101
     98          1           0        5.269164   -2.387406    1.703032
     99          1           0        6.785845   -3.472292   -0.044977
    100          1           0        6.307147   -2.346858   -1.129241
    101          1           0        7.363719   -0.642173    0.383634
    102          1           0        7.592878   -2.042242    1.662913
    103          1           0        8.753545   -1.676002   -1.186299
    104          1           0        8.663738   -3.987956   -0.488395
    105          1           0       10.379000   -3.468779   -0.700506
    106          1           0        9.448518   -3.558360    1.033556
    107          1           0        9.286263   -0.142660    0.422914
    108          1           0       10.009639   -1.053395    1.572194
    109          1           0       11.771308   -1.909793   -0.289745
    110          1           0       11.215650   -0.766836   -1.388505
    111          1           0       11.752467    1.102161    0.114533
    112          1           0       12.477858   -0.040909    1.136860
    113          1           0       13.443381    0.554332   -1.675333
    114          1           0       14.817937   -0.981251    0.745652
    115          1           0       13.847821   -1.702584   -0.765236
    116          1           0       15.186954   -0.995414   -1.204963
    117          1           0       13.790229    2.640850    0.041353
    118          1           0       14.790156    1.562567    0.990398
    119          1           0       16.291660    1.315033   -0.954139
    120          1           0       15.383651    1.927911   -1.978792
    121          1           0       15.219904    4.122988   -1.319084
    122          1           0       15.941185    3.542841    0.582997
    123          1           0       18.115947    2.986372   -1.067131
    124          1           0       16.684653    4.624309   -3.127713
    125          1           0       18.180708    4.120853   -3.197699
    126          1           0       16.875161    3.155762   -3.159415
    127          1           0       18.078826    5.092267    0.470880
    128          1           0       18.910945    5.564210   -1.014883
    129          1           0       17.521778    6.145139   -1.057884
    130          1           0       -4.914636   -7.766703    0.053158
    131          1           0       -6.618059   -7.145836    0.787432
    132          1           0       -5.166123   -6.667735    1.730737
    133          8           0       -7.743445    6.767156   -0.302690
    134          1           0       -8.912653    6.406384   -1.854018
 ---------------------------------------------------------------------

 SCF Done:  E(RCAM-B3LYP) =  -3043.35651619     A.U. after   15 cycles

 Excitation energies and oscillator strengths:

 Excited State   1:      Singlet-A      2.0009 eV  619.65 nm  f=0.1641  <S**2>=0.000
     243 -> 245       -0.14254
     243 -> 246       -0.27149
     244 -> 245        0.62054
     244 -> 246       -0.10381
 This state for optimization and/or second-order correction.
 Total Energy, E(TD-HF/TD-KS) =  -3043.28298559
 Copying the excited state density for this state as the 1-particle RhoCI density.

 The electronic state is 1-A.
 Alpha  occ. eigenvalues --  -46.81000 -19.21801 -19.21778 -19.18400 -19.17895
 Alpha  occ. eigenvalues --  -19.17526 -19.17522 -19.17252 -14.39142 -14.37176
 Alpha  occ. eigenvalues --  -14.36760 -14.36201 -10.34723 -10.34566 -10.32601
 Alpha  occ. eigenvalues --  -10.31678 -10.30308 -10.28892 -10.28539 -10.27927
 Alpha  occ. eigenvalues --  -10.27538 -10.26477 -10.26406 -10.26338 -10.26115
 Alpha  occ. eigenvalues --  -10.26073 -10.25819 -10.25158 -10.24943 -10.24927
 Alpha  occ. eigenvalues --  -10.24865 -10.24283 -10.23875 -10.23603 -10.23599
 Alpha  occ. eigenvalues --  -10.23540 -10.23482 -10.23380 -10.23275 -10.23226
 Alpha  occ. eigenvalues --  -10.22984 -10.22817 -10.22783 -10.22781 -10.22737
 Alpha  occ. eigenvalues --  -10.22543 -10.22461 -10.22387 -10.22367 -10.21855
 Alpha  occ. eigenvalues --  -10.21814 -10.21495 -10.21438 -10.21393 -10.21390
 Alpha  occ. eigenvalues --  -10.21262 -10.21102 -10.20882 -10.20754 -10.20665
 Alpha  occ. eigenvalues --  -10.20531 -10.20354 -10.20335 -10.18596 -10.18334
 Alpha  occ. eigenvalues --  -10.16696  -3.09720  -1.84648  -1.84197  -1.84136
 Alpha  occ. eigenvalues --   -1.15612  -1.14986  -1.08178  -1.07177  -1.06921
 Alpha  occ. eigenvalues --   -1.06891  -1.06212  -1.02155  -1.01050  -0.99431
 Alpha  occ. eigenvalues --   -0.98589  -0.88195  -0.87501  -0.85856  -0.85448
 Alpha  occ. eigenvalues --   -0.85130  -0.84431  -0.84340  -0.84109  -0.83596
 Alpha  occ. eigenvalues --   -0.83287  -0.83103  -0.82325  -0.80511  -0.79696
 Alpha  occ. eigenvalues --   -0.79211  -0.78751  -0.77940  -0.76536  -0.76297
 Alpha  occ. eigenvalues --   -0.75482  -0.75318  -0.74149  -0.72684  -0.72542
 Alpha  occ. eigenvalues --   -0.71698  -0.70688  -0.70447  -0.69588  -0.69341
 Alpha  occ. eigenvalues --   -0.68885  -0.68712  -0.67303  -0.66865  -0.66328
 Alpha  occ. eigenvalues --   -0.65484  -0.64922  -0.63545  -0.62871  -0.62419
 Alpha  occ. eigenvalues --   -0.61130  -0.60947  -0.60453  -0.59453  -0.59032
 Alpha  occ. eigenvalues --   -0.58616  -0.58427  -0.58162  -0.57881  -0.57464
 Alpha  occ. eigenvalues --   -0.56715  -0.55694  -0.55371  -0.55347  -0.54990
 Alpha  occ. eigenvalues --   -0.54450  -0.53741  -0.53529  -0.53160  -0.52621
 Alpha  occ. eigenvalues --   -0.52056  -0.51790  -0.51197  -0.51093  -0.50721
 Alpha  occ. eigenvalues --   -0.50341  -0.49969  -0.49600  -0.49093  -0.48821
 Alpha  occ. eigenvalues --   -0.48712  -0.48560  -0.48354  -0.48283  -0.47974
 Alpha  occ. eigenvalues --   -0.47818  -0.47597  -0.47565  -0.47201  -0.47030
 Alpha  occ. eigenvalues --   -0.46940  -0.46718  -0.46528  -0.46503  -0.46030
 Alpha  occ. eigenvalues --   -0.45817  -0.45613  -0.45344  -0.45271  -0.45141
 Alpha  occ. eigenvalues --   -0.45103  -0.44851  -0.44608  -0.44504  -0.44418
 Alpha  occ. eigenvalues --   -0.44200  -0.43910  -0.43638  -0.43432  -0.43178
 Alpha  occ. eigenvalues --   -0.42861  -0.42841  -0.42561  -0.42424  -0.42322
 Alpha  occ. eigenvalues --   -0.41986  -0.41569  -0.41411  -0.41268  -0.41161
 Alpha  occ. eigenvalues --   -0.41024  -0.40603  -0.40506  -0.40374  -0.40217
 Alpha  occ. eigenvalues --   -0.40167  -0.40049  -0.39325  -0.39043  -0.38982
 Alpha  occ. eigenvalues --   -0.38880  -0.38828  -0.38449  -0.38034  -0.37979
 Alpha  occ. eigenvalues --   -0.37689  -0.37576  -0.37440  -0.37411  -0.37034
 Alpha  occ. eigenvalues --   -0.36551  -0.36227  -0.36130  -0.35625  -0.35432
 Alpha  occ. eigenvalues --   -0.35125  -0.35064  -0.34701  -0.34638  -0.34626
 Alpha  occ. eigenvalues --   -0.34349  -0.34027  -0.33460  -0.32905  -0.32761
 Alpha  occ. eigenvalues --   -0.32470  -0.32054  -0.32001  -0.31767  -0.31595
 Alpha  occ. eigenvalues --   -0.31010  -0.30907  -0.30768  -0.29368  -0.29082
 Alpha  occ. eigenvalues --   -0.28798  -0.28430  -0.28029  -0.27923  -0.27634
 Alpha  occ. eigenvalues --   -0.27238  -0.26973  -0.22671  -0.21767
 Alpha virt. eigenvalues --   -0.08914  -0.06432  -0.01745  -0.00972   0.00983
 Alpha virt. eigenvalues --    0.03318   0.03705   0.04325   0.04534   0.05006
 Alpha virt. eigenvalues --    0.05547   0.05626   0.07158   0.07914   0.08735

 Mulliken charges:
               1
     1  Mg   0.831211
     2  C    0.074761
     3  C   -0.174224
     4  C   -0.180420
     5  C   -0.161618
     6  N   -0.630689
     7  C    0.316587
     8  C   -0.154591
     9  C   -0.145149
    10  C    0.357032
    11  C   -0.311433
    12  C   -0.148678
    13  C   -0.288522
    14  C    0.594401
    15  O   -0.419860
    16  O   -0.466643
    17  N   -0.698856
    18  C    0.298961
    19  C    0.032301
    20  C   -0.034710
    21  C    0.289240
    22  C   -0.338477
    23  C    0.246153
    24  O   -0.382602
    25  N   -0.713778
    26  C    0.299050
    27  C    0.012857
    28  C   -0.031520
    29  C    0.298133
    30  C    0.262195
    31  C   -0.187801
    32  C   -0.315478
    33  N   -0.731340
    34  C    0.250921
    35  C    0.101841
    36  C   -0.020799
    37  C    0.336387
    38  C   -0.415242
    39  C    0.357876
    40  O   -0.444938
    41  C   -0.362054
    42  C    0.601284
    43  O   -0.415898
    44  O   -0.438455
    45  C   -0.080218
    46  C   -0.015579
    47  C   -0.135373
    48  C    0.156704
    49  C   -0.384968
    50  C   -0.220798
    51  C   -0.172768
    52  C   -0.188724
    53  C   -0.083659
    54  C   -0.276754
    55  C   -0.166323
    56  C   -0.192274
    57  C   -0.140781
    58  C   -0.089010
    59  C   -0.303070
    60  C   -0.165261
    61  C   -0.163419
    62  C   -0.168732
    63  C   -0.029736
    64  C   -0.309335
    65  C   -0.299987
    66  H    0.099583
    67  H    0.129587
    68  H    0.094460
    69  H    0.109725
    70  H    0.096954
    71  H    0.114831
    72  H    0.091991
    73  H    0.117470
    74  H    0.112254
    75  H    0.128032
    76  H    0.144822
    77  H    0.140759
    78  H    0.123389
    79  H    0.143909
    80  H    0.103962
    81  H    0.042404
    82  H    0.105332
    83  H    0.106102
    84  H    0.113102
    85  H    0.088203
    86  H    0.114859
    87  H    0.118245
    88  H    0.151118
    89  H    0.135493
    90  H    0.152293
    91  H    0.095462
    92  H    0.125444
    93  H    0.089885
    94  H    0.137802
    95  H    0.100435
    96  H    0.128709
    97  H    0.081966
    98  H    0.077904
    99  H    0.089407
   100  H    0.101791
   101  H    0.093867
   102  H    0.080374
   103  H    0.084934
   104  H    0.084761
   105  H    0.065883
   106  H    0.111347
   107  H    0.090220
   108  H    0.079844
   109  H    0.110060
   110  H    0.071932
   111  H    0.104536
   112  H    0.102652
   113  H    0.082925
   114  H    0.098896
   115  H    0.100254
   116  H    0.109479
   117  H    0.078209
   118  H    0.064938
   119  H    0.097067
   120  H    0.096638
   121  H    0.067675
   122  H    0.055038
   123  H    0.085237
   124  H    0.099355
   125  H    0.108727
   126  H    0.106026
   127  H    0.101336
   128  H    0.109366
   129  H    0.039604
   130  H    0.114575
   131  H    0.135033
   132  H    0.086978
   133  O   -0.422111
   134  H    0.079312
 Sum of Mulliken charges =   0.00000

 Dipole moment (field-independent basis, Debye):
    X=              0.1258    Y=             -3.5046    Z=             -1.6287  Tot=              3.8666
 Quadrupole moment (field-independent basis, Debye-Ang):
   XX=           -365.6671   YY=           -437.5224   ZZ=           -390.5981
   XY=             -5.6676   XZ=             13.0375   YZ=            -36.5552

 Normal termination of Gaussian 09 at Thu Oct  3 18:15:03 2019.
