 Gaussian 09, Revision D.01,
 Gaussian 09:  ES64L-G09RevD.01 24-Apr-2013

 ----------------------------------------------------------------------
 # td=(NStates=1) iop(3/107=0140000000,3/108=0140000000) iop(3/107=0140
 000000,3/108=0140000000) CAM-B3LYP/6-31G(d,p)
 ----------------------------------------------------------------------

 --
 TD
 --
 Symbolic Z-matrix:
 Charge =  0 Multiplicity = 1

                         Standard orientation:
 ---------------------------------------------------------------------
 Center     Atomic      Atomic             Coordinates (Angstroms)
 Number     Number       Type             X           Y           Z
 ---------------------------------------------------------------------
      1         12           0       -5.622549    1.231905    0.116938
      2          6           0       -4.972113   -2.107382   -0.391488
      3          6           0       -3.335592    1.169770    2.816242
      4          6           0       -6.218881    4.530737    0.608639
      5          6           0       -7.996315    1.132632   -2.429380
      6          7           0       -4.382663   -0.177846    1.073157
      7          6           0       -4.311498   -1.551201    0.735729
      8          6           0       -3.266019   -2.316968    1.476032
      9          6           0       -3.033610   -1.429045    2.641569
     10          6           0       -3.612040   -0.056530    2.126337
     11          6           0       -3.641831   -1.768331    4.028794
     12          6           0       -1.942660   -2.637217    0.624221
     13          6           0       -0.976745   -3.543287    1.389517
     14          6           0        0.312015   -3.900070    0.611975
     15          8           0        0.514725   -3.456017   -0.501414
     16          8           0        1.205818   -4.602716    1.338589
     17          7           0       -4.855705    2.627814    1.443618
     18          6           0       -3.857188    2.477661    2.436619
     19          6           0       -3.778785    3.653168    3.067412
     20          6           0       -4.566760    4.616087    2.550593
     21          6           0       -5.176215    3.843941    1.386010
     22          6           0       -2.821445    3.884887    4.276928
     23          6           0       -4.803159    5.973973    2.962214
     24          8           0       -4.069277    6.504297    3.812058
     25          7           0       -6.934063    2.633333   -0.672448
     26          6           0       -7.026077    3.941785   -0.331603
     27          6           0       -7.974087    4.544157   -1.232712
     28          6           0       -8.502705    3.567389   -2.037783
     29          6           0       -7.745391    2.387309   -1.764738
     30          6           0       -8.182855    6.030577   -1.226435
     31          6           0       -9.438924    3.772246   -3.204492
     32          6           0       -8.663397    3.836486   -4.507035
     33          7           0       -6.360214   -0.204635   -1.054291
     34          6           0       -7.431087   -0.005744   -2.096390
     35          6           0       -7.653031   -1.328868   -2.599952
     36          6           0       -6.711361   -2.183055   -2.074080
     37          6           0       -5.933995   -1.450141   -1.163397
     38          6           0       -8.558269   -1.593270   -3.801547
     39          6           0       -6.211413   -3.495176   -2.034634
     40          8           0       -6.642051   -4.547582   -2.618925
     41          6           0       -5.032140   -3.488904   -0.888463
     42          6           0       -5.398065   -4.668070    0.092256
     43          8           0       -5.779855   -4.429799    1.242798
     44          8           0       -5.143456   -5.864642   -0.367053
     45          6           0       -5.425190   -6.963395    0.496684
     46          6           0        2.400902   -5.008716    0.684802
     47          6           0        3.506723   -4.041001    1.133670
     48          6           0        4.041836   -3.093506    0.245920
     49          6           0        3.637630   -2.983517   -1.250911
     50          6           0        5.131482   -2.247002    0.767121
     51          6           0        6.487307   -2.495342   -0.012421
     52          6           0        7.605471   -1.762044    0.635363
     53          6           0        9.016636   -1.861202   -0.081467
     54          6           0        9.419325   -3.305933    0.169583
     55          6           0       10.034308   -0.887648    0.408400
     56          6           0       11.300786   -0.794857   -0.383002
     57          6           0       12.246937    0.300989    0.070831
     58          6           0       13.635212    0.428042   -0.619753
     59          6           0       14.421170   -0.846701   -0.284343
     60          6           0       14.303277    1.727466   -0.172427
     61          6           0       15.473746    2.043935   -1.038098
     62          6           0       16.030995    3.530356   -0.702455
     63          6           0       17.422798    3.769651   -1.312779
     64          6           0       17.429585    3.678408   -2.783075
     65          6           0       17.997672    5.152394   -0.769344
     66          1           0       -2.742885    1.171991    3.826141
     67          1           0       -6.242335    5.551838    0.920164
     68          1           0       -8.668064    1.029850   -3.122158
     69          1           0       -3.760966   -3.254040    1.782527
     70          1           0       -1.903271   -1.305438    2.832129
     71          1           0       -3.118946   -2.536712    4.434237
     72          1           0       -3.826582   -1.067506    4.959436
     73          1           0       -4.755199   -1.981089    3.914327
     74          1           0       -2.200177   -3.312847   -0.246766
     75          1           0       -1.316175   -1.804444    0.361147
     76          1           0       -0.521420   -3.155804    2.311782
     77          1           0       -1.438841   -4.763177    1.516291
     78          1           0       -1.768902    3.489823    4.132566
     79          1           0       -2.703398    4.971520    4.230023
     80          1           0       -3.141686    3.393822    5.290715
     81          1           0       -5.610416    6.715912    2.447015
     82          1           0      -10.164196    2.944978   -3.196096
     83          1           0       -9.949523    4.870961   -3.193095
     84          1           0       -9.362073    3.783994   -5.290072
     85          1           0       -8.164733    4.699227   -4.732051
     86          1           0       -7.842139    2.990318   -4.515515
     87          1           0       -8.590393   -0.631876   -4.593413
     88          1           0       -8.216389   -2.677276   -4.355923
     89          1           0       -9.611184   -1.712598   -3.172048
     90          1           0       -4.007280   -3.818712   -1.272230
     91          1           0        2.551785   -6.062691    0.959897
     92          1           0        2.243508   -4.987522   -0.349015
     93          1           0        3.553997   -3.743107    2.190548
     94          1           0        2.535727   -3.089799   -1.339908
     95          1           0        4.056174   -1.956288   -1.554538
     96          1           0        4.262531   -3.556733   -1.802063
     97          1           0        4.686321   -1.164396    1.026993
     98          1           0        5.181305   -2.697110    1.854763
     99          1           0        6.639248   -3.639776   -0.002776
    100          1           0        6.309005   -2.310159   -1.018233
    101          1           0        7.488322   -0.681368    0.782353
    102          1           0        7.793587   -2.210959    1.598117
    103          1           0        8.945675   -1.690603   -1.025891
    104          1           0        8.565313   -4.140424   -0.051528
    105          1           0       10.145798   -3.677833   -0.525114
    106          1           0        9.655995   -3.370262    1.248857
    107          1           0        9.469112    0.069480    0.667546
    108          1           0       10.366585   -1.016896    1.490412
    109          1           0       11.632662   -1.924515   -0.576333
    110          1           0       11.090779   -0.416314   -1.428282
    111          1           0       11.863926    1.167939   -0.155095
    112          1           0       12.614721    0.182748    1.029855
    113          1           0       13.369295    0.609009   -1.532179
    114          1           0       14.651604   -1.162162    0.729048
    115          1           0       14.102230   -1.558699   -1.113882
    116          1           0       15.578142   -0.553076   -0.655180
    117          1           0       13.563417    2.512423   -0.049509
    118          1           0       14.682333    1.612945    0.875601
    119          1           0       16.261660    1.239933   -0.956764
    120          1           0       15.295482    2.048599   -2.036389
    121          1           0       15.343514    4.447974   -0.915472
    122          1           0       16.086698    3.575318    0.311303
    123          1           0       18.137182    3.022837   -0.992340
    124          1           0       16.808887    4.452610   -3.040010
    125          1           0       18.401198    3.860486   -3.251339
    126          1           0       17.072460    2.724691   -3.119350
    127          1           0       17.962988    5.223950    0.406868
    128          1           0       19.110373    5.067380   -1.216531
    129          1           0       17.367643    6.027368   -1.257232
    130          1           0       -5.569283   -7.858334   -0.062943
    131          1           0       -6.520535   -6.933342    0.724646
    132          1           0       -4.682997   -6.964985    1.246187
    133          8           0       -7.688917    6.844445   -0.504639
    134          1           0       -8.965799    6.332003   -2.024581
 ---------------------------------------------------------------------

 SCF Done:  E(RCAM-B3LYP) =  -3043.43341719     A.U. after   16 cycles

 Excitation energies and oscillator strengths:

 Excited State   1:      Singlet-A      1.8872 eV  656.98 nm  f=0.2112  <S**2>=0.000
     243 -> 246       -0.20504
     244 -> 245        0.67008
 This state for optimization and/or second-order correction.
 Total Energy, E(TD-HF/TD-KS) =  -3043.36406471
 Copying the excited state density for this state as the 1-particle RhoCI density.

 The electronic state is 1-A.
 Alpha  occ. eigenvalues --  -46.81324 -19.23554 -19.22670 -19.17754 -19.17483
 Alpha  occ. eigenvalues --  -19.16773 -19.16518 -19.16472 -14.39739 -14.37032
 Alpha  occ. eigenvalues --  -14.36534 -14.36446 -10.35482 -10.35406 -10.31618
 Alpha  occ. eigenvalues --  -10.30895 -10.30835 -10.28352 -10.28018 -10.27587
 Alpha  occ. eigenvalues --  -10.27288 -10.27087 -10.26810 -10.26292 -10.26241
 Alpha  occ. eigenvalues --  -10.26196 -10.26021 -10.25965 -10.25826 -10.25754
 Alpha  occ. eigenvalues --  -10.25620 -10.25287 -10.24843 -10.24689 -10.24576
 Alpha  occ. eigenvalues --  -10.24557 -10.24230 -10.23869 -10.23792 -10.23515
 Alpha  occ. eigenvalues --  -10.23286 -10.22874 -10.22823 -10.22693 -10.22638
 Alpha  occ. eigenvalues --  -10.22560 -10.22541 -10.22302 -10.22024 -10.21844
 Alpha  occ. eigenvalues --  -10.21799 -10.21557 -10.21404 -10.21317 -10.20886
 Alpha  occ. eigenvalues --  -10.20720 -10.20673 -10.20617 -10.20565 -10.20415
 Alpha  occ. eigenvalues --  -10.20200 -10.20158 -10.19878 -10.19757 -10.18493
 Alpha  occ. eigenvalues --  -10.18291  -3.09942  -1.84888  -1.84417  -1.84343
 Alpha  occ. eigenvalues --   -1.15126  -1.14039  -1.08364  -1.05474  -1.05283
 Alpha  occ. eigenvalues --   -1.04046  -1.03452  -1.01941  -1.01022  -1.00067
 Alpha  occ. eigenvalues --   -0.99049  -0.89064  -0.86564  -0.86368  -0.85864
 Alpha  occ. eigenvalues --   -0.85654  -0.84597  -0.84456  -0.84146  -0.83604
 Alpha  occ. eigenvalues --   -0.83537  -0.82410  -0.81873  -0.80301  -0.79958
 Alpha  occ. eigenvalues --   -0.79170  -0.78693  -0.78390  -0.77912  -0.76713
 Alpha  occ. eigenvalues --   -0.74966  -0.74279  -0.73739  -0.72793  -0.71761
 Alpha  occ. eigenvalues --   -0.71527  -0.70853  -0.70511  -0.69674  -0.69304
 Alpha  occ. eigenvalues --   -0.69078  -0.68907  -0.67280  -0.66836  -0.66285
 Alpha  occ. eigenvalues --   -0.65590  -0.64932  -0.63891  -0.62924  -0.62695
 Alpha  occ. eigenvalues --   -0.61923  -0.61445  -0.61293  -0.60061  -0.60017
 Alpha  occ. eigenvalues --   -0.59432  -0.59312  -0.57960  -0.57551  -0.57233
 Alpha  occ. eigenvalues --   -0.56758  -0.56269  -0.54999  -0.54747  -0.54564
 Alpha  occ. eigenvalues --   -0.54060  -0.53476  -0.53131  -0.52424  -0.52256
 Alpha  occ. eigenvalues --   -0.51854  -0.51577  -0.51505  -0.51452  -0.50965
 Alpha  occ. eigenvalues --   -0.50252  -0.50037  -0.49975  -0.49814  -0.49273
 Alpha  occ. eigenvalues --   -0.48939  -0.48616  -0.48522  -0.48198  -0.47934
 Alpha  occ. eigenvalues --   -0.47648  -0.47591  -0.47390  -0.47177  -0.47078
 Alpha  occ. eigenvalues --   -0.46773  -0.46579  -0.46341  -0.46133  -0.45997
 Alpha  occ. eigenvalues --   -0.45726  -0.45346  -0.45152  -0.45096  -0.44888
 Alpha  occ. eigenvalues --   -0.44772  -0.44585  -0.44163  -0.44022  -0.43746
 Alpha  occ. eigenvalues --   -0.43344  -0.43268  -0.43183  -0.42776  -0.42616
 Alpha  occ. eigenvalues --   -0.42484  -0.42448  -0.42141  -0.42068  -0.41860
 Alpha  occ. eigenvalues --   -0.41818  -0.41340  -0.41268  -0.41053  -0.40902
 Alpha  occ. eigenvalues --   -0.40699  -0.40432  -0.40358  -0.40296  -0.40044
 Alpha  occ. eigenvalues --   -0.39509  -0.39336  -0.39288  -0.39100  -0.38915
 Alpha  occ. eigenvalues --   -0.38684  -0.38538  -0.38427  -0.38084  -0.37923
 Alpha  occ. eigenvalues --   -0.37806  -0.37615  -0.37406  -0.37340  -0.37240
 Alpha  occ. eigenvalues --   -0.37050  -0.36974  -0.36675  -0.36232  -0.36193
 Alpha  occ. eigenvalues --   -0.35995  -0.35542  -0.35338  -0.34799  -0.34718
 Alpha  occ. eigenvalues --   -0.34444  -0.34145  -0.34018  -0.33757  -0.33666
 Alpha  occ. eigenvalues --   -0.33599  -0.32602  -0.32095  -0.31538  -0.31368
 Alpha  occ. eigenvalues --   -0.31114  -0.30560  -0.30440  -0.29511  -0.29504
 Alpha  occ. eigenvalues --   -0.28747  -0.28343  -0.27887  -0.27807  -0.27574
 Alpha  occ. eigenvalues --   -0.27171  -0.25833  -0.23780  -0.21206
 Alpha virt. eigenvalues --   -0.09142  -0.06987  -0.02329  -0.00333   0.00835
 Alpha virt. eigenvalues --    0.02558   0.02969   0.03678   0.03976   0.04408
 Alpha virt. eigenvalues --    0.05080   0.05507   0.07352   0.07572   0.08483

 Mulliken charges:
               1
     1  Mg   0.815889
     2  C    0.122709
     3  C   -0.208362
     4  C   -0.141761
     5  C   -0.112131
     6  N   -0.600839
     7  C    0.295777
     8  C   -0.141158
     9  C   -0.141395
    10  C    0.347890
    11  C   -0.319519
    12  C   -0.159403
    13  C   -0.247571
    14  C    0.583255
    15  O   -0.463581
    16  O   -0.447956
    17  N   -0.677428
    18  C    0.282350
    19  C    0.024993
    20  C    0.003015
    21  C    0.310434
    22  C   -0.381525
    23  C    0.202360
    24  O   -0.421444
    25  N   -0.706819
    26  C    0.335651
    27  C   -0.041066
    28  C    0.018146
    29  C    0.280657
    30  C    0.268245
    31  C   -0.240590
    32  C   -0.305827
    33  N   -0.763793
    34  C    0.283769
    35  C   -0.004431
    36  C    0.125834
    37  C    0.290315
    38  C   -0.346104
    39  C    0.312403
    40  O   -0.497269
    41  C   -0.354750
    42  C    0.604462
    43  O   -0.489441
    44  O   -0.410397
    45  C   -0.084602
    46  C   -0.008146
    47  C   -0.141947
    48  C    0.104697
    49  C   -0.381394
    50  C   -0.225408
    51  C   -0.176758
    52  C   -0.167544
    53  C   -0.044397
    54  C   -0.307039
    55  C   -0.164368
    56  C   -0.180438
    57  C   -0.159039
    58  C   -0.060972
    59  C   -0.303710
    60  C   -0.183123
    61  C   -0.183685
    62  C   -0.169227
    63  C   -0.066989
    64  C   -0.296175
    65  C   -0.296115
    66  H    0.099732
    67  H    0.115281
    68  H    0.065011
    69  H    0.138254
    70  H    0.097422
    71  H    0.126069
    72  H    0.108598
    73  H    0.120778
    74  H    0.119771
    75  H    0.134117
    76  H    0.136453
    77  H    0.090425
    78  H    0.101438
    79  H    0.162704
    80  H    0.109287
    81  H    0.089219
    82  H    0.114727
    83  H    0.099470
    84  H    0.114413
    85  H    0.129820
    86  H    0.091551
    87  H    0.110518
    88  H    0.139613
    89  H    0.121270
    90  H    0.142396
    91  H    0.112588
    92  H    0.128940
    93  H    0.089642
    94  H    0.162762
    95  H    0.094885
    96  H    0.133062
    97  H    0.089715
    98  H    0.083167
    99  H    0.100729
   100  H    0.106651
   101  H    0.085509
   102  H    0.098589
   103  H    0.088614
   104  H    0.067879
   105  H    0.100937
   106  H    0.106508
   107  H    0.073888
   108  H    0.076021
   109  H    0.083499
   110  H    0.074720
   111  H    0.093822
   112  H    0.089770
   113  H    0.088025
   114  H    0.121195
   115  H    0.109521
   116  H    0.051663
   117  H    0.088785
   118  H    0.081919
   119  H    0.091087
   120  H    0.106522
   121  H    0.070514
   122  H    0.099064
   123  H    0.085122
   124  H    0.104982
   125  H    0.092815
   126  H    0.104230
   127  H    0.095062
   128  H    0.083223
   129  H    0.086851
   130  H    0.133420
   131  H    0.131955
   132  H    0.135852
   133  O   -0.405477
   134  H    0.036218
 Sum of Mulliken charges =   0.00000

 Dipole moment (field-independent basis, Debye):
    X=              1.3007    Y=             -5.2567    Z=             -1.9338  Tot=              5.7502
 Quadrupole moment (field-independent basis, Debye-Ang):
   XX=           -379.3884   YY=           -436.7041   ZZ=           -395.9599
   XY=              6.6811   XZ=             21.1451   YZ=            -36.4075

 Normal termination of Gaussian 09 at Fri Oct  4 17:33:24 2019.
