 Gaussian 09, Revision D.01,
 Gaussian 09:  ES64L-G09RevD.01 24-Apr-2013

 ----------------------------------------------------------------------
 # td=(NStates=1) iop(3/107=0140000000,3/108=0140000000) iop(3/107=0140
 000000,3/108=0140000000) CAM-B3LYP/6-31G(d,p)
 ----------------------------------------------------------------------

 --
 TD
 --
 Symbolic Z-matrix:
 Charge =  0 Multiplicity = 1

                         Standard orientation:
 ---------------------------------------------------------------------
 Center     Atomic      Atomic             Coordinates (Angstroms)
 Number     Number       Type             X           Y           Z
 ---------------------------------------------------------------------
      1         12           0       -5.670368    1.234419    0.262535
      2          6           0       -5.119867   -2.169510   -0.266856
      3          6           0       -3.478291    1.206764    2.773523
      4          6           0       -6.221540    4.643886    0.586271
      5          6           0       -8.067525    1.174648   -2.322332
      6          7           0       -4.422161   -0.270568    1.038876
      7          6           0       -4.330995   -1.573379    0.804612
      8          6           0       -3.189650   -2.337073    1.531007
      9          6           0       -3.023955   -1.325046    2.721578
     10          6           0       -3.609406   -0.042838    2.122732
     11          6           0       -3.576476   -1.764134    4.054903
     12          6           0       -2.020802   -2.607243    0.690597
     13          6           0       -1.060970   -3.520480    1.425223
     14          6           0        0.204166   -3.842129    0.624333
     15          8           0        0.501043   -3.399940   -0.466098
     16          8           0        1.036478   -4.693265    1.293008
     17          7           0       -4.867577    2.681327    1.371710
     18          6           0       -4.055751    2.511395    2.418172
     19          6           0       -3.809946    3.737618    3.117979
     20          6           0       -4.512641    4.673171    2.451834
     21          6           0       -5.266789    4.045558    1.363155
     22          6           0       -2.811728    3.840999    4.240812
     23          6           0       -4.565705    6.127234    2.787334
     24          8           0       -4.117762    6.597194    3.818445
     25          7           0       -6.938695    2.571195   -0.776455
     26          6           0       -7.010912    3.927656   -0.421074
     27          6           0       -7.938647    4.561618   -1.325911
     28          6           0       -8.357593    3.639903   -2.085035
     29          6           0       -7.691443    2.407599   -1.746616
     30          6           0       -8.471084    5.998945   -1.115443
     31          6           0       -9.452948    3.738125   -3.266910
     32          6           0       -8.792549    3.944099   -4.639099
     33          7           0       -6.390772   -0.168871   -1.012618
     34          6           0       -7.426804   -0.057736   -1.973852
     35          6           0       -7.522898   -1.378313   -2.695513
     36          6           0       -6.619080   -2.183093   -2.116336
     37          6           0       -6.016688   -1.454433   -1.062415
     38          6           0       -8.381968   -1.648242   -3.854590
     39          6           0       -6.174217   -3.631343   -1.992155
     40          8           0       -6.505508   -4.545358   -2.605508
     41          6           0       -5.111055   -3.596685   -0.692321
     42          6           0       -5.368234   -4.718424    0.262857
     43          8           0       -5.891124   -4.488085    1.303845
     44          8           0       -5.104688   -5.870691   -0.317216
     45          6           0       -5.357430   -7.051961    0.544167
     46          6           0        2.326233   -4.954390    0.639633
     47          6           0        3.348167   -4.034902    1.000994
     48          6           0        3.968484   -3.230190    0.163214
     49          6           0        3.685366   -3.119978   -1.277839
     50          6           0        5.100363   -2.396800    0.638165
     51          6           0        6.593524   -2.631608    0.011350
     52          6           0        7.684928   -1.717634    0.480553
     53          6           0        9.057270   -1.958016   -0.135180
     54          6           0        9.541653   -3.425539    0.133571
     55          6           0       10.072406   -0.945502    0.276293
     56          6           0       11.419004   -0.890971   -0.499712
     57          6           0       12.236961    0.265361    0.044395
     58          6           0       13.653713    0.446165   -0.609542
     59          6           0       14.491787   -0.760341   -0.373778
     60          6           0       14.209498    1.781963   -0.272374
     61          6           0       15.627944    2.051429   -0.921695
     62          6           0       16.198051    3.481820   -0.596447
     63          6           0       17.556601    3.765564   -1.208573
     64          6           0       17.393953    4.016540   -2.712296
     65          6           0       18.248485    5.074912   -0.582194
     66          1           0       -3.000073    1.469009    3.772755
     67          1           0       -6.677586    5.645926    0.596200
     68          1           0       -8.791122    0.878370   -3.031771
     69          1           0       -3.561539   -3.211920    2.024502
     70          1           0       -1.959372   -1.183263    2.905807
     71          1           0       -3.328231   -2.593331    4.585082
     72          1           0       -3.501595   -1.013604    4.787906
     73          1           0       -4.660868   -1.823510    4.056076
     74          1           0       -2.256924   -3.072836   -0.246269
     75          1           0       -1.611914   -1.674588    0.517223
     76          1           0       -0.561904   -3.228937    2.349445
     77          1           0       -1.677263   -4.430966    1.721763
     78          1           0       -1.780914    3.615607    3.993880
     79          1           0       -2.741811    4.915721    4.528749
     80          1           0       -2.956483    3.229696    5.080176
     81          1           0       -5.031397    6.869957    1.706591
     82          1           0       -9.862669    2.785893   -3.132745
     83          1           0      -10.041934    4.670400   -3.149445
     84          1           0       -9.440235    3.824123   -5.446598
     85          1           0       -8.117553    4.959489   -4.691569
     86          1           0       -8.069993    3.154557   -4.928179
     87          1           0       -8.340102   -0.784797   -4.703390
     88          1           0       -8.325485   -2.526829   -4.289399
     89          1           0       -9.486468   -1.671458   -3.728051
     90          1           0       -4.250901   -3.868799   -1.160612
     91          1           0        2.418086   -6.079749    0.907449
     92          1           0        2.212700   -4.946114   -0.357873
     93          1           0        3.586821   -4.078293    2.146865
     94          1           0        2.624219   -3.513786   -1.553433
     95          1           0        3.640493   -2.033267   -1.682445
     96          1           0        4.481616   -3.803625   -1.982793
     97          1           0        4.930649   -1.310643    0.438915
     98          1           0        5.189149   -2.495572    1.852977
     99          1           0        6.771507   -3.522716    0.380075
    100          1           0        6.353027   -2.521416   -1.161486
    101          1           0        7.516820   -0.630155    0.475288
    102          1           0        7.804208   -1.895969    1.558590
    103          1           0        8.996206   -1.930749   -1.240122
    104          1           0        8.925867   -4.153272   -0.296605
    105          1           0       10.517792   -3.610577   -0.441617
    106          1           0        9.859132   -3.594657    1.260365
    107          1           0        9.477600    0.026120    0.280348
    108          1           0       10.353799   -1.179502    1.454647
    109          1           0       12.093755   -1.837139   -0.532156
    110          1           0       11.281916   -0.637137   -1.406786
    111          1           0       11.644410    1.236447   -0.074777
    112          1           0       12.513128    0.377768    1.266838
    113          1           0       13.403544    0.691456   -1.689109
    114          1           0       14.586104   -0.867262    0.671852
    115          1           0       13.797829   -1.724646   -0.683537
    116          1           0       15.483476   -0.778848   -0.643652
    117          1           0       13.594518    2.647501   -0.310574
    118          1           0       14.597916    1.867229    0.762860
    119          1           0       16.570558    1.354621   -0.562285
    120          1           0       15.415232    1.914745   -2.075964
    121          1           0       15.474223    4.346563   -1.131795
    122          1           0       16.359789    3.732851    0.562257
    123          1           0       18.286798    3.122921   -0.925647
    124          1           0       16.903648    4.986591   -3.119194
    125          1           0       18.361986    3.973755   -3.315548
    126          1           0       16.739647    3.263012   -3.247610
    127          1           0       18.442068    4.752233    0.497130
    128          1           0       19.215918    5.425983   -0.908531
    129          1           0       17.542710    5.956104   -0.432230
    130          1           0       -5.055630   -7.823986   -0.392889
    131          1           0       -6.382407   -7.205355    0.586103
    132          1           0       -4.805877   -7.222572    1.495122
    133          8           0       -8.068027    6.852644   -0.397279
    134          1           0       -9.332877    6.092380   -1.940750
 ---------------------------------------------------------------------

 SCF Done:  E(RCAM-B3LYP) =  -3043.43823592     A.U. after   16 cycles

 Excitation energies and oscillator strengths:

 Excited State   1:      Singlet-A      2.0541 eV  603.61 nm  f=0.1636  <S**2>=0.000
     243 -> 246       -0.29001
     244 -> 245        0.63905
 This state for optimization and/or second-order correction.
 Total Energy, E(TD-HF/TD-KS) =  -3043.36275090
 Copying the excited state density for this state as the 1-particle RhoCI density.

 The electronic state is 1-A.
 Alpha  occ. eigenvalues --  -46.81346 -19.23726 -19.21462 -19.19854 -19.18987
 Alpha  occ. eigenvalues --  -19.18237 -19.17067 -19.16665 -14.39264 -14.36796
 Alpha  occ. eigenvalues --  -14.36412 -14.36076 -10.34881 -10.34283 -10.32740
 Alpha  occ. eigenvalues --  -10.32511 -10.32246 -10.29320 -10.27801 -10.27724
 Alpha  occ. eigenvalues --  -10.26469 -10.26210 -10.26010 -10.25944 -10.25498
 Alpha  occ. eigenvalues --  -10.25292 -10.25110 -10.25011 -10.24522 -10.24173
 Alpha  occ. eigenvalues --  -10.23829 -10.23655 -10.23521 -10.23456 -10.23422
 Alpha  occ. eigenvalues --  -10.23415 -10.23413 -10.23399 -10.23296 -10.23197
 Alpha  occ. eigenvalues --  -10.23194 -10.23150 -10.22863 -10.22846 -10.22699
 Alpha  occ. eigenvalues --  -10.22479 -10.22317 -10.22295 -10.22274 -10.22111
 Alpha  occ. eigenvalues --  -10.22106 -10.21785 -10.21703 -10.21629 -10.21593
 Alpha  occ. eigenvalues --  -10.21589 -10.21581 -10.21029 -10.20929 -10.20914
 Alpha  occ. eigenvalues --  -10.20882 -10.20780 -10.20726 -10.20442 -10.20395
 Alpha  occ. eigenvalues --  -10.20260  -3.09968  -1.84905  -1.84453  -1.84365
 Alpha  occ. eigenvalues --   -1.14743  -1.12546  -1.12076  -1.10515  -1.07159
 Alpha  occ. eigenvalues --   -1.06209  -1.04009  -1.02654  -1.01151  -0.99245
 Alpha  occ. eigenvalues --   -0.98909  -0.87576  -0.87174  -0.86714  -0.85863
 Alpha  occ. eigenvalues --   -0.85063  -0.84707  -0.84299  -0.83715  -0.83106
 Alpha  occ. eigenvalues --   -0.83095  -0.82862  -0.81701  -0.80625  -0.79704
 Alpha  occ. eigenvalues --   -0.79051  -0.78375  -0.77468  -0.76889  -0.76326
 Alpha  occ. eigenvalues --   -0.75355  -0.74791  -0.74531  -0.72660  -0.72218
 Alpha  occ. eigenvalues --   -0.70814  -0.70614  -0.70217  -0.69872  -0.69469
 Alpha  occ. eigenvalues --   -0.69230  -0.68358  -0.67489  -0.66863  -0.65941
 Alpha  occ. eigenvalues --   -0.65454  -0.65119  -0.63837  -0.62492  -0.62034
 Alpha  occ. eigenvalues --   -0.61444  -0.61137  -0.60655  -0.59100  -0.59017
 Alpha  occ. eigenvalues --   -0.58733  -0.58024  -0.57626  -0.57527  -0.57213
 Alpha  occ. eigenvalues --   -0.56169  -0.55792  -0.55585  -0.55365  -0.54766
 Alpha  occ. eigenvalues --   -0.54214  -0.53552  -0.53359  -0.52676  -0.52084
 Alpha  occ. eigenvalues --   -0.51650  -0.51354  -0.51200  -0.50844  -0.50576
 Alpha  occ. eigenvalues --   -0.50415  -0.50240  -0.49770  -0.49310  -0.48966
 Alpha  occ. eigenvalues --   -0.48826  -0.48741  -0.48526  -0.48391  -0.48172
 Alpha  occ. eigenvalues --   -0.48000  -0.47649  -0.47428  -0.47160  -0.46949
 Alpha  occ. eigenvalues --   -0.46770  -0.46648  -0.46338  -0.45921  -0.45659
 Alpha  occ. eigenvalues --   -0.45563  -0.45370  -0.45191  -0.44951  -0.44669
 Alpha  occ. eigenvalues --   -0.44442  -0.44226  -0.44001  -0.43785  -0.43709
 Alpha  occ. eigenvalues --   -0.43668  -0.43372  -0.43308  -0.43166  -0.43041
 Alpha  occ. eigenvalues --   -0.42939  -0.42542  -0.42422  -0.42187  -0.42124
 Alpha  occ. eigenvalues --   -0.41986  -0.41748  -0.41626  -0.41332  -0.40800
 Alpha  occ. eigenvalues --   -0.40705  -0.40395  -0.40324  -0.40147  -0.40055
 Alpha  occ. eigenvalues --   -0.39819  -0.39717  -0.39591  -0.39397  -0.39233
 Alpha  occ. eigenvalues --   -0.39080  -0.38968  -0.38869  -0.38710  -0.37991
 Alpha  occ. eigenvalues --   -0.37764  -0.37522  -0.37362  -0.37260  -0.36846
 Alpha  occ. eigenvalues --   -0.36574  -0.36408  -0.36342  -0.36063  -0.35789
 Alpha  occ. eigenvalues --   -0.35391  -0.35077  -0.34774  -0.34727  -0.34667
 Alpha  occ. eigenvalues --   -0.34478  -0.34243  -0.34044  -0.33621  -0.33334
 Alpha  occ. eigenvalues --   -0.33017  -0.32763  -0.32569  -0.32071  -0.31944
 Alpha  occ. eigenvalues --   -0.31547  -0.30870  -0.30648  -0.30512  -0.29685
 Alpha  occ. eigenvalues --   -0.29332  -0.28978  -0.28790  -0.28041  -0.27741
 Alpha  occ. eigenvalues --   -0.27582  -0.27476  -0.22348  -0.20869
 Alpha virt. eigenvalues --   -0.07518  -0.05645  -0.00991  -0.00713   0.01258
 Alpha virt. eigenvalues --    0.02522   0.03363   0.03836   0.04161   0.04808
 Alpha virt. eigenvalues --    0.05032   0.05634   0.08678   0.08890   0.09508

 Mulliken charges:
               1
     1  Mg   0.831024
     2  C    0.062852
     3  C   -0.179460
     4  C   -0.149009
     5  C   -0.155633
     6  N   -0.602352
     7  C    0.302315
     8  C   -0.153878
     9  C   -0.138017
    10  C    0.319212
    11  C   -0.332677
    12  C   -0.136808
    13  C   -0.272714
    14  C    0.594649
    15  O   -0.470104
    16  O   -0.484132
    17  N   -0.722702
    18  C    0.292176
    19  C    0.073469
    20  C   -0.039840
    21  C    0.294417
    22  C   -0.409490
    23  C    0.257113
    24  O   -0.395893
    25  N   -0.648964
    26  C    0.190624
    27  C   -0.016731
    28  C   -0.034318
    29  C    0.345138
    30  C    0.288482
    31  C   -0.209961
    32  C   -0.309164
    33  N   -0.722952
    34  C    0.232221
    35  C    0.015935
    36  C    0.025754
    37  C    0.297502
    38  C   -0.395574
    39  C    0.377146
    40  O   -0.381360
    41  C   -0.349634
    42  C    0.611662
    43  O   -0.463992
    44  O   -0.436820
    45  C   -0.104312
    46  C    0.003398
    47  C   -0.111849
    48  C    0.194877
    49  C   -0.384335
    50  C   -0.253426
    51  C   -0.159499
    52  C   -0.171019
    53  C   -0.048226
    54  C   -0.315990
    55  C   -0.157151
    56  C   -0.158546
    57  C   -0.171446
    58  C   -0.037320
    59  C   -0.302942
    60  C   -0.177669
    61  C   -0.168572
    62  C   -0.156593
    63  C   -0.026690
    64  C   -0.311909
    65  C   -0.329934
    66  H    0.076754
    67  H    0.143441
    68  H    0.087827
    69  H    0.115841
    70  H    0.104647
    71  H    0.124753
    72  H    0.116726
    73  H    0.119876
    74  H    0.129047
    75  H    0.125467
    76  H    0.143217
    77  H    0.127666
    78  H    0.129060
    79  H    0.151477
    80  H    0.130472
    81  H    0.021281
    82  H    0.116088
    83  H    0.110489
    84  H    0.118004
    85  H    0.092082
    86  H    0.105066
    87  H    0.104588
    88  H    0.146413
    89  H    0.126079
    90  H    0.147126
    91  H    0.103527
    92  H    0.121211
    93  H    0.077771
    94  H    0.143444
    95  H    0.113379
    96  H    0.091205
    97  H    0.099986
    98  H    0.065990
    99  H    0.121418
   100  H    0.080344
   101  H    0.082880
   102  H    0.090938
   103  H    0.079218
   104  H    0.113501
   105  H    0.087006
   106  H    0.086028
   107  H    0.082878
   108  H    0.063725
   109  H    0.089442
   110  H    0.115360
   111  H    0.080396
   112  H    0.052253
   113  H    0.072074
   114  H    0.112110
   115  H    0.075812
   116  H    0.113925
   117  H    0.103583
   118  H    0.082663
   119  H    0.072197
   120  H    0.082958
   121  H    0.063440
   122  H    0.073913
   123  H    0.103224
   124  H    0.095306
   125  H    0.088980
   126  H    0.091180
   127  H    0.078536
   128  H    0.111348
   129  H    0.096650
   130  H    0.110701
   131  H    0.156126
   132  H    0.144846
   133  O   -0.383168
   134  H    0.047847
 Sum of Mulliken charges =   0.00000

 Dipole moment (field-independent basis, Debye):
    X=              1.4080    Y=             -6.1429    Z=             -1.2933  Tot=              6.4335
 Quadrupole moment (field-independent basis, Debye-Ang):
   XX=           -376.7800   YY=           -430.6771   ZZ=           -393.9770
   XY=             17.6939   XZ=             23.4228   YZ=            -30.6729

 Normal termination of Gaussian 09 at Wed Oct  9 04:49:20 2019.
