 Gaussian 09, Revision D.01,
 Gaussian 09:  ES64L-G09RevD.01 24-Apr-2013

 ----------------------------------------------------------------------
 # td=(NStates=1) iop(3/107=0140000000,3/108=0140000000) iop(3/107=0140
 000000,3/108=0140000000) CAM-B3LYP/6-31G(d,p)
 ----------------------------------------------------------------------

 --
 TD
 --
 Symbolic Z-matrix:
 Charge =  0 Multiplicity = 1

                         Standard orientation:
 ---------------------------------------------------------------------
 Center     Atomic      Atomic             Coordinates (Angstroms)
 Number     Number       Type             X           Y           Z
 ---------------------------------------------------------------------
      1         12           0       -5.653309    1.182653    0.338244
      2          6           0       -4.953178   -2.220502   -0.400034
      3          6           0       -3.260815    1.184887    2.711411
      4          6           0       -6.230732    4.560400    0.717953
      5          6           0       -7.984682    1.210780   -2.327449
      6          7           0       -4.406049   -0.352034    1.021924
      7          6           0       -4.182457   -1.602301    0.640438
      8          6           0       -3.201220   -2.353036    1.402279
      9          6           0       -2.890833   -1.384853    2.596359
     10          6           0       -3.393046   -0.053601    2.100779
     11          6           0       -3.462588   -1.809397    3.916234
     12          6           0       -1.894943   -2.564807    0.545626
     13          6           0       -0.916052   -3.546957    1.287408
     14          6           0        0.375077   -3.971000    0.560703
     15          8           0        0.501059   -3.536086   -0.603422
     16          8           0        1.073599   -4.785600    1.180816
     17          7           0       -4.848442    2.611742    1.442325
     18          6           0       -3.869539    2.435684    2.419476
     19          6           0       -3.637356    3.677109    3.128506
     20          6           0       -4.474077    4.593524    2.556347
     21          6           0       -5.252866    3.937746    1.519681
     22          6           0       -2.619256    3.841362    4.197649
     23          6           0       -4.694363    5.902691    3.030397
     24          8           0       -4.156961    6.457308    4.045312
     25          7           0       -6.924148    2.630031   -0.670622
     26          6           0       -7.028709    3.955940   -0.274143
     27          6           0       -7.915476    4.669766   -1.254728
     28          6           0       -8.412951    3.646320   -2.075507
     29          6           0       -7.761006    2.382621   -1.679980
     30          6           0       -8.275904    6.053375   -1.293810
     31          6           0       -9.363509    3.787440   -3.226866
     32          6           0       -8.675823    4.023301   -4.570679
     33          7           0       -6.401422   -0.099763   -1.091376
     34          6           0       -7.380860    0.020053   -2.066199
     35          6           0       -7.617492   -1.316380   -2.653315
     36          6           0       -6.666832   -2.168063   -2.088714
     37          6           0       -5.965531   -1.489143   -1.056732
     38          6           0       -8.662143   -1.631849   -3.629243
     39          6           0       -6.198226   -3.596116   -1.994062
     40          8           0       -6.586985   -4.605909   -2.581639
     41          6           0       -5.038092   -3.580746   -0.900926
     42          6           0       -5.318960   -4.590289    0.175669
     43          8           0       -5.763622   -4.314663    1.248189
     44          8           0       -5.126121   -5.818968   -0.299326
     45          6           0       -5.452055   -6.899639    0.527853
     46          6           0        2.309459   -4.974997    0.552463
     47          6           0        3.377364   -4.127979    0.937208
     48          6           0        3.998027   -3.195145    0.154501
     49          6           0        3.702739   -3.089183   -1.190363
     50          6           0        5.168695   -2.405304    0.731473
     51          6           0        6.499746   -2.677223    0.023981
     52          6           0        7.576458   -1.815882    0.525167
     53          6           0        8.931226   -1.981161   -0.177673
     54          6           0        9.562056   -3.360639    0.150599
     55          6           0       10.016862   -0.921052    0.398943
     56          6           0       11.511294   -1.032060   -0.151283
     57          6           0       12.290838    0.324986    0.184941
     58          6           0       13.553923    0.542398   -0.599987
     59          6           0       14.463739   -0.720612   -0.428960
     60          6           0       14.228467    1.852422   -0.065948
     61          6           0       15.391422    2.147723   -0.935136
     62          6           0       15.993418    3.440919   -0.650600
     63          6           0       17.232047    3.840842   -1.393692
     64          6           0       16.963591    4.130476   -2.920071
     65          6           0       17.805082    5.178379   -0.792654
     66          1           0       -2.384555    1.157451    3.617110
     67          1           0       -6.467063    5.405491    1.270471
     68          1           0       -8.813728    1.324490   -2.989630
     69          1           0       -3.678141   -3.385593    1.843828
     70          1           0       -1.915503   -1.121514    2.798953
     71          1           0       -2.849381   -2.499909    4.296974
     72          1           0       -3.255452   -0.988364    4.545755
     73          1           0       -4.543649   -2.087079    3.837887
     74          1           0       -2.090192   -3.022741   -0.438076
     75          1           0       -1.442769   -1.572041    0.488690
     76          1           0       -0.748808   -3.261480    2.361864
     77          1           0       -1.460374   -4.594651    1.583454
     78          1           0       -1.697995    3.389849    3.725991
     79          1           0       -2.750141    4.976151    4.494543
     80          1           0       -2.734029    3.237761    5.020748
     81          1           0       -5.373598    6.483828    2.345301
     82          1           0       -9.888504    2.843836   -3.321088
     83          1           0      -10.004650    4.690612   -3.034223
     84          1           0       -9.437744    4.410215   -5.361953
     85          1           0       -7.993814    4.831442   -4.496571
     86          1           0       -8.176475    3.187937   -4.957346
     87          1           0       -8.494975   -1.242854   -4.649709
     88          1           0       -8.774700   -2.694214   -3.919780
     89          1           0       -9.613414   -1.134099   -3.263279
     90          1           0       -4.244378   -3.978630   -1.519366
     91          1           0        2.396978   -5.821490    1.080626
     92          1           0        2.246872   -5.089338   -0.529150
     93          1           0        3.660434   -4.139335    1.999185
     94          1           0        2.705561   -3.459834   -1.510944
     95          1           0        3.679045   -1.835653   -1.403967
     96          1           0        4.659880   -3.573892   -1.815604
     97          1           0        4.624087   -1.330473    0.641164
     98          1           0        5.152200   -2.681662    1.773974
     99          1           0        6.609911   -3.582894    0.174315
    100          1           0        6.257385   -2.406424   -1.019586
    101          1           0        7.369489   -0.822946    0.391745
    102          1           0        7.855326   -1.940929    1.750717
    103          1           0        8.726757   -1.767549   -1.206272
    104          1           0        9.071504   -4.331079    0.049119
    105          1           0       10.599541   -3.591125   -0.316973
    106          1           0        9.923965   -3.551361    1.072959
    107          1           0        9.632681    0.101649    0.242310
    108          1           0       10.047323   -1.004577    1.580179
    109          1           0       12.065543   -1.982000    0.255768
    110          1           0       11.439325   -1.125925   -1.312973
    111          1           0       11.676734    1.254854    0.037307
    112          1           0       12.438232    0.189601    1.341611
    113          1           0       13.188198    0.567565   -1.626309
    114          1           0       14.704603   -0.694688    0.651742
    115          1           0       14.040390   -1.562760   -0.930800
    116          1           0       15.392592   -0.752083   -0.871242
    117          1           0       13.316077    2.473315    0.041347
    118          1           0       14.692377    1.771274    0.858035
    119          1           0       16.230961    1.502825   -0.688370
    120          1           0       15.114769    1.972202   -1.970331
    121          1           0       15.293907    4.344433   -0.765109
    122          1           0       16.437895    3.384057    0.402095
    123          1           0       17.884566    3.054409   -1.533661
    124          1           0       16.271956    4.999121   -3.070128
    125          1           0       17.829382    4.459272   -3.502874
    126          1           0       16.453711    3.189965   -3.375431
    127          1           0       18.182940    5.051574    0.289087
    128          1           0       18.660498    5.753419   -1.366578
    129          1           0       17.024499    6.130060   -0.631782
    130          1           0       -5.298037   -7.849660    0.000138
    131          1           0       -6.491321   -6.970320    0.891126
    132          1           0       -4.806992   -6.966750    1.540238
    133          8           0       -7.827727    6.904331   -0.509444
    134          1           0       -8.933259    6.586913   -2.087558
 ---------------------------------------------------------------------

 SCF Done:  E(RCAM-B3LYP) =  -3043.49531759     A.U. after   16 cycles

 Excitation energies and oscillator strengths:

 Excited State   1:      Singlet-A      1.8858 eV  657.46 nm  f=0.2187  <S**2>=0.000
     243 -> 246        0.22398
     244 -> 245        0.66538
 This state for optimization and/or second-order correction.
 Total Energy, E(TD-HF/TD-KS) =  -3043.42601510
 Copying the excited state density for this state as the 1-particle RhoCI density.

 The electronic state is 1-A.
 Alpha  occ. eigenvalues --  -46.81414 -19.24721 -19.23883 -19.18029 -19.17869
 Alpha  occ. eigenvalues --  -19.16443 -19.16094 -19.16048 -14.39430 -14.37452
 Alpha  occ. eigenvalues --  -14.37071 -14.36365 -10.35478 -10.34956 -10.32654
 Alpha  occ. eigenvalues --  -10.30190 -10.29655 -10.28569 -10.27981 -10.27943
 Alpha  occ. eigenvalues --  -10.27072 -10.26824 -10.26531 -10.26422 -10.26322
 Alpha  occ. eigenvalues --  -10.26055 -10.25824 -10.25778 -10.25497 -10.24973
 Alpha  occ. eigenvalues --  -10.24925 -10.24826 -10.24601 -10.24100 -10.23987
 Alpha  occ. eigenvalues --  -10.23900 -10.23665 -10.23557 -10.23535 -10.23475
 Alpha  occ. eigenvalues --  -10.23286 -10.23212 -10.23197 -10.23014 -10.22958
 Alpha  occ. eigenvalues --  -10.22956 -10.22846 -10.22749 -10.22704 -10.22411
 Alpha  occ. eigenvalues --  -10.22159 -10.21630 -10.21592 -10.21516 -10.21510
 Alpha  occ. eigenvalues --  -10.21349 -10.21309 -10.20938 -10.20904 -10.20662
 Alpha  occ. eigenvalues --  -10.20521 -10.20423 -10.20018 -10.19834 -10.19820
 Alpha  occ. eigenvalues --  -10.19163  -3.09946  -1.84884  -1.84417  -1.84355
 Alpha  occ. eigenvalues --   -1.19557  -1.15805  -1.07055  -1.06802  -1.04878
 Alpha  occ. eigenvalues --   -1.03989  -1.03127  -0.99858  -0.99273  -0.98734
 Alpha  occ. eigenvalues --   -0.97188  -0.89403  -0.88225  -0.86294  -0.85932
 Alpha  occ. eigenvalues --   -0.85490  -0.85271  -0.84444  -0.84055  -0.83685
 Alpha  occ. eigenvalues --   -0.83508  -0.82798  -0.82704  -0.81618  -0.79990
 Alpha  occ. eigenvalues --   -0.79605  -0.78670  -0.78367  -0.78234  -0.77192
 Alpha  occ. eigenvalues --   -0.75373  -0.74923  -0.74619  -0.73471  -0.72213
 Alpha  occ. eigenvalues --   -0.72041  -0.71176  -0.71036  -0.70011  -0.69598
 Alpha  occ. eigenvalues --   -0.69058  -0.68901  -0.68021  -0.67067  -0.66785
 Alpha  occ. eigenvalues --   -0.66003  -0.65499  -0.64217  -0.63264  -0.63113
 Alpha  occ. eigenvalues --   -0.61473  -0.61235  -0.61057  -0.60242  -0.59539
 Alpha  occ. eigenvalues --   -0.59298  -0.58939  -0.57983  -0.57414  -0.57031
 Alpha  occ. eigenvalues --   -0.56554  -0.56150  -0.55609  -0.55468  -0.54817
 Alpha  occ. eigenvalues --   -0.54490  -0.54374  -0.53609  -0.53072  -0.52845
 Alpha  occ. eigenvalues --   -0.52457  -0.51862  -0.51808  -0.51669  -0.51598
 Alpha  occ. eigenvalues --   -0.51346  -0.50616  -0.50172  -0.49963  -0.49590
 Alpha  occ. eigenvalues --   -0.49344  -0.49121  -0.48241  -0.48103  -0.47670
 Alpha  occ. eigenvalues --   -0.47536  -0.47364  -0.47193  -0.47134  -0.46773
 Alpha  occ. eigenvalues --   -0.46663  -0.46390  -0.46250  -0.46119  -0.45999
 Alpha  occ. eigenvalues --   -0.45624  -0.45347  -0.45090  -0.44997  -0.44788
 Alpha  occ. eigenvalues --   -0.44410  -0.44401  -0.44259  -0.43943  -0.43798
 Alpha  occ. eigenvalues --   -0.43450  -0.43245  -0.43039  -0.42778  -0.42694
 Alpha  occ. eigenvalues --   -0.42503  -0.42283  -0.42118  -0.41952  -0.41762
 Alpha  occ. eigenvalues --   -0.41607  -0.41414  -0.41109  -0.40917  -0.40892
 Alpha  occ. eigenvalues --   -0.40499  -0.40338  -0.40292  -0.40084  -0.39901
 Alpha  occ. eigenvalues --   -0.39872  -0.39546  -0.39410  -0.39179  -0.39051
 Alpha  occ. eigenvalues --   -0.38846  -0.38626  -0.38520  -0.38107  -0.37982
 Alpha  occ. eigenvalues --   -0.37965  -0.37736  -0.37605  -0.37535  -0.37293
 Alpha  occ. eigenvalues --   -0.37180  -0.37063  -0.36914  -0.36546  -0.36285
 Alpha  occ. eigenvalues --   -0.35910  -0.35332  -0.35283  -0.35178  -0.34776
 Alpha  occ. eigenvalues --   -0.34733  -0.34443  -0.34355  -0.34021  -0.33985
 Alpha  occ. eigenvalues --   -0.33695  -0.33024  -0.32563  -0.32231  -0.32004
 Alpha  occ. eigenvalues --   -0.31592  -0.31428  -0.30376  -0.29889  -0.29753
 Alpha  occ. eigenvalues --   -0.28409  -0.28387  -0.27775  -0.27550  -0.27162
 Alpha  occ. eigenvalues --   -0.27026  -0.26887  -0.23426  -0.21263
 Alpha virt. eigenvalues --   -0.08972  -0.06556  -0.02009  -0.01276  -0.00119
 Alpha virt. eigenvalues --    0.02284   0.02640   0.03301   0.03787   0.04187
 Alpha virt. eigenvalues --    0.04805   0.05976   0.07854   0.08059   0.09297

 Mulliken charges:
               1
     1  Mg   0.835497
     2  C    0.086718
     3  C   -0.201190
     4  C   -0.103986
     5  C   -0.150917
     6  N   -0.630727
     7  C    0.391029
     8  C   -0.191524
     9  C   -0.136397
    10  C    0.270282
    11  C   -0.291278
    12  C   -0.150821
    13  C   -0.279284
    14  C    0.604489
    15  O   -0.511733
    16  O   -0.385754
    17  N   -0.734338
    18  C    0.297967
    19  C    0.068452
    20  C   -0.006146
    21  C    0.280413
    22  C   -0.390908
    23  C    0.213169
    24  O   -0.462728
    25  N   -0.679452
    26  C    0.255683
    27  C    0.018657
    28  C    0.009497
    29  C    0.347386
    30  C    0.197718
    31  C   -0.249223
    32  C   -0.308750
    33  N   -0.736200
    34  C    0.324723
    35  C    0.026901
    36  C    0.019795
    37  C    0.261199
    38  C   -0.398522
    39  C    0.369051
    40  O   -0.452631
    41  C   -0.342944
    42  C    0.630814
    43  O   -0.463485
    44  O   -0.415022
    45  C   -0.096968
    46  C    0.008262
    47  C   -0.141381
    48  C    0.160391
    49  C   -0.369096
    50  C   -0.223122
    51  C   -0.137281
    52  C   -0.148227
    53  C   -0.055857
    54  C   -0.325118
    55  C   -0.177088
    56  C   -0.180155
    57  C   -0.169694
    58  C   -0.070054
    59  C   -0.312868
    60  C   -0.149505
    61  C   -0.176402
    62  C   -0.147283
    63  C   -0.046059
    64  C   -0.317727
    65  C   -0.304193
    66  H    0.075558
    67  H    0.116656
    68  H    0.074553
    69  H    0.120146
    70  H    0.105559
    71  H    0.119106
    72  H    0.107092
    73  H    0.128349
    74  H    0.124922
    75  H    0.124437
    76  H    0.115575
    77  H    0.098583
    78  H    0.114093
    79  H    0.163757
    80  H    0.133727
    81  H    0.085762
    82  H    0.111967
    83  H    0.113539
    84  H    0.096074
    85  H    0.122837
    86  H    0.120042
    87  H    0.132677
    88  H    0.148809
    89  H    0.122319
    90  H    0.164957
    91  H    0.103187
    92  H    0.134132
    93  H    0.067964
    94  H    0.153125
    95  H    0.073436
    96  H    0.099580
    97  H    0.082330
    98  H    0.099488
    99  H    0.109782
   100  H    0.100550
   101  H    0.099522
   102  H    0.051366
   103  H    0.090013
   104  H    0.089381
   105  H    0.081584
   106  H    0.116975
   107  H    0.085976
   108  H    0.075633
   109  H    0.098306
   110  H    0.076019
   111  H    0.084297
   112  H    0.075956
   113  H    0.086313
   114  H    0.097316
   115  H    0.103825
   116  H    0.100672
   117  H    0.085485
   118  H    0.096274
   119  H    0.097855
   120  H    0.092888
   121  H    0.080406
   122  H    0.076503
   123  H    0.097085
   124  H    0.092764
   125  H    0.102923
   126  H    0.082462
   127  H    0.090521
   128  H    0.090134
   129  H    0.078165
   130  H    0.130348
   131  H    0.134339
   132  H    0.098689
   133  O   -0.428980
   134  H    0.068256
 Sum of Mulliken charges =   0.00000

 Dipole moment (field-independent basis, Debye):
    X=              2.9242    Y=             -7.2876    Z=             -1.0918  Tot=              7.9279
 Quadrupole moment (field-independent basis, Debye-Ang):
   XX=           -370.2859   YY=           -444.2288   ZZ=           -397.6652
   XY=             12.4389   XZ=             26.8687   YZ=            -40.0488

 Normal termination of Gaussian 09 at Tue Oct  8 11:32:40 2019.
