 Gaussian 09, Revision D.01,
 Gaussian 09:  ES64L-G09RevD.01 24-Apr-2013

 ----------------------------------------------------------------------
 # td=(NStates=1) iop(3/107=0140000000,3/108=0140000000) iop(3/107=0140
 000000,3/108=0140000000) CAM-B3LYP/6-31G(d,p)
 ----------------------------------------------------------------------

 --
 TD
 --
 Symbolic Z-matrix:
 Charge =  0 Multiplicity = 1

                         Standard orientation:
 ---------------------------------------------------------------------
 Center     Atomic      Atomic             Coordinates (Angstroms)
 Number     Number       Type             X           Y           Z
 ---------------------------------------------------------------------
      1         12           0       -5.507880    1.260152    0.168544
      2          6           0       -4.951409   -2.146391   -0.347814
      3          6           0       -3.500395    1.132150    2.858470
      4          6           0       -6.205326    4.525621    0.719842
      5          6           0       -7.804255    1.251949   -2.408268
      6          7           0       -4.330537   -0.385439    1.085358
      7          6           0       -4.232304   -1.589735    0.701846
      8          6           0       -3.211335   -2.309395    1.476743
      9          6           0       -2.983972   -1.367286    2.687814
     10          6           0       -3.546574   -0.068508    2.123520
     11          6           0       -3.689922   -1.792771    4.026397
     12          6           0       -1.984893   -2.810323    0.758478
     13          6           0       -0.947445   -3.669440    1.481636
     14          6           0        0.272471   -4.020482    0.619191
     15          8           0        0.382499   -3.597292   -0.489663
     16          8           0        1.048275   -4.793850    1.328731
     17          7           0       -4.918527    2.650604    1.460150
     18          6           0       -3.907596    2.404665    2.488950
     19          6           0       -3.662338    3.656221    3.157213
     20          6           0       -4.433435    4.629707    2.590560
     21          6           0       -5.194387    3.956629    1.537651
     22          6           0       -2.782930    3.769103    4.355257
     23          6           0       -4.627723    6.069964    2.904705
     24          8           0       -4.093472    6.611448    3.850438
     25          7           0       -6.790089    2.651171   -0.695091
     26          6           0       -6.870837    3.986789   -0.349905
     27          6           0       -7.876115    4.664918   -1.274605
     28          6           0       -8.380767    3.753797   -2.042183
     29          6           0       -7.692541    2.474397   -1.668862
     30          6           0       -8.295321    6.052605   -1.211360
     31          6           0       -9.520584    3.814352   -3.099177
     32          6           0       -8.798781    4.051018   -4.545953
     33          7           0       -6.325530   -0.095871   -1.166067
     34          6           0       -7.212228    0.040063   -2.114090
     35          6           0       -7.379279   -1.268500   -2.781885
     36          6           0       -6.631369   -2.092146   -2.065125
     37          6           0       -5.936161   -1.362558   -1.142215
     38          6           0       -8.440676   -1.480316   -3.911527
     39          6           0       -6.147663   -3.536539   -2.107890
     40          8           0       -6.524907   -4.491160   -2.735369
     41          6           0       -5.028387   -3.601077   -0.913122
     42          6           0       -5.329792   -4.671616    0.122278
     43          8           0       -5.694942   -4.429249    1.265529
     44          8           0       -5.111086   -5.899527   -0.405307
     45          6           0       -5.222639   -6.972470    0.520122
     46          6           0        2.279797   -5.169230    0.637513
     47          6           0        3.431620   -4.336727    0.891501
     48          6           0        4.124415   -3.585751    0.058760
     49          6           0        3.679930   -3.246489   -1.370901
     50          6           0        5.121089   -2.503984    0.611486
     51          6           0        6.558616   -2.853150    0.071082
     52          6           0        7.591629   -1.857765    0.638794
     53          6           0        9.000951   -1.858067   -0.072711
     54          6           0        9.545549   -3.300966    0.008525
     55          6           0        9.869231   -0.756103    0.459738
     56          6           0       11.212219   -0.700031   -0.239794
     57          6           0       12.166252    0.468559    0.234228
     58          6           0       13.511887    0.503366   -0.468590
     59          6           0       14.417682   -0.671408   -0.374899
     60          6           0       14.207724    1.771260   -0.130155
     61          6           0       15.397439    2.122399   -0.945919
     62          6           0       15.974416    3.530011   -0.488294
     63          6           0       17.180423    3.992311   -1.410505
     64          6           0       16.786219    4.160893   -2.915190
     65          6           0       17.953467    5.247267   -0.878487
     66          1           0       -2.818728    1.009214    3.685728
     67          1           0       -6.565501    5.598012    0.995842
     68          1           0       -8.465420    1.421254   -3.308316
     69          1           0       -3.665821   -3.168903    1.815749
     70          1           0       -1.958373   -1.068216    3.064656
     71          1           0       -3.277411   -2.623441    4.484956
     72          1           0       -3.497499   -1.059136    4.613198
     73          1           0       -4.757525   -1.909195    3.862068
     74          1           0       -2.261821   -3.240953   -0.174180
     75          1           0       -1.623408   -1.883241    0.255751
     76          1           0       -0.585395   -3.349613    2.535465
     77          1           0       -1.438434   -4.678969    1.760462
     78          1           0       -1.679628    3.640641    4.326417
     79          1           0       -2.549696    4.850568    4.632949
     80          1           0       -3.244991    2.994723    5.131785
     81          1           0       -5.547311    6.428319    2.260834
     82          1           0       -9.952549    2.760723   -2.950796
     83          1           0      -10.276113    4.489184   -2.616610
     84          1           0       -9.697928    4.422648   -5.352264
     85          1           0       -8.010193    4.894963   -4.326008
     86          1           0       -8.340478    3.055708   -4.818383
     87          1           0       -8.074409   -0.947304   -4.810596
     88          1           0       -8.288039   -2.647755   -4.085201
     89          1           0       -9.493075   -1.303943   -3.629192
     90          1           0       -4.088743   -3.719004   -1.433817
     91          1           0        2.620301   -6.279033    0.676981
     92          1           0        1.891658   -5.210703   -0.489695
     93          1           0        3.888795   -4.500181    1.810636
     94          1           0        2.820382   -3.551110   -1.717935
     95          1           0        3.888307   -2.198556   -1.515350
     96          1           0        4.299677   -3.953083   -1.967779
     97          1           0        4.891489   -1.591874    0.418332
     98          1           0        5.318354   -2.572219    1.638713
     99          1           0        6.869431   -3.943279    0.247601
    100          1           0        6.486825   -2.871354   -1.132114
    101          1           0        7.293287   -0.735517    0.610505
    102          1           0        7.835002   -2.220419    1.716599
    103          1           0        8.656917   -1.806490   -1.152899
    104          1           0        9.074166   -4.060543   -0.734459
    105          1           0       10.577887   -3.066875   -0.332122
    106          1           0        9.524549   -3.956347    1.134663
    107          1           0        9.467930    0.175906    0.491318
    108          1           0       10.219692   -1.179830    1.466988
    109          1           0       11.976854   -1.560490   -0.553587
    110          1           0       11.164905   -0.519016   -1.335908
    111          1           0       11.580224    1.498963    0.205967
    112          1           0       12.267162    0.260710    1.178459
    113          1           0       13.160757    0.599809   -1.450430
    114          1           0       14.786954   -0.778023    0.566023
    115          1           0       13.947234   -1.681371   -0.427506
    116          1           0       15.207401   -0.680989   -1.164861
    117          1           0       13.577708    2.602691    0.066660
    118          1           0       14.531394    1.525445    0.919307
    119          1           0       15.981249    1.544153   -0.946733
    120          1           0       15.058377    2.303751   -2.040014
    121          1           0       15.285749    4.306006   -0.600604
    122          1           0       16.366039    3.221752    0.539756
    123          1           0       18.029492    3.290133   -1.213148
    124          1           0       15.741781    4.879629   -2.831715
    125          1           0       17.745666    4.672853   -3.410869
    126          1           0       16.540374    3.151849   -3.400604
    127          1           0       18.282399    5.113369    0.125727
    128          1           0       18.760732    5.455105   -1.393781
    129          1           0       17.271198    6.111186   -0.878015
    130          1           0       -5.351468   -7.903051   -0.300871
    131          1           0       -6.201301   -6.824716    1.168155
    132          1           0       -4.306884   -6.924967    1.301872
    133          8           0       -7.770745    6.868623   -0.428639
    134          1           0       -9.229668    6.288669   -1.889734
 ---------------------------------------------------------------------

 SCF Done:  E(RCAM-B3LYP) =  -3043.34998236     A.U. after   15 cycles

 Excitation energies and oscillator strengths:

 Excited State   1:      Singlet-A      1.9805 eV  626.02 nm  f=0.2107  <S**2>=0.000
     243 -> 246        0.24600
     244 -> 245        0.65325
 This state for optimization and/or second-order correction.
 Total Energy, E(TD-HF/TD-KS) =  -3043.27719932
 Copying the excited state density for this state as the 1-particle RhoCI density.

 The electronic state is 1-A.
 Alpha  occ. eigenvalues --  -46.82086 -19.23688 -19.23431 -19.18861 -19.18074
 Alpha  occ. eigenvalues --  -19.17840 -19.17218 -19.17062 -14.38284 -14.37051
 Alpha  occ. eigenvalues --  -14.36519 -14.36058 -10.35912 -10.34927 -10.32961
 Alpha  occ. eigenvalues --  -10.31513 -10.30479 -10.30427 -10.28725 -10.26556
 Alpha  occ. eigenvalues --  -10.26301 -10.26255 -10.26234 -10.26168 -10.26060
 Alpha  occ. eigenvalues --  -10.25833 -10.25500 -10.25467 -10.25313 -10.25262
 Alpha  occ. eigenvalues --  -10.24501 -10.24394 -10.24247 -10.24154 -10.23910
 Alpha  occ. eigenvalues --  -10.23762 -10.23707 -10.23630 -10.23536 -10.23314
 Alpha  occ. eigenvalues --  -10.22990 -10.22886 -10.22797 -10.22777 -10.22576
 Alpha  occ. eigenvalues --  -10.22569 -10.22251 -10.22185 -10.22162 -10.22108
 Alpha  occ. eigenvalues --  -10.21819 -10.21805 -10.21745 -10.21614 -10.21376
 Alpha  occ. eigenvalues --  -10.20859 -10.20542 -10.20484 -10.20094 -10.19992
 Alpha  occ. eigenvalues --  -10.19910 -10.19799 -10.19654 -10.19404 -10.18428
 Alpha  occ. eigenvalues --  -10.18368  -3.10549  -1.85495  -1.85016  -1.84950
 Alpha  occ. eigenvalues --   -1.15398  -1.14139  -1.08831  -1.06624  -1.06514
 Alpha  occ. eigenvalues --   -1.05812  -1.05502  -1.03090  -1.02362  -0.99857
 Alpha  occ. eigenvalues --   -0.98056  -0.87702  -0.86716  -0.86123  -0.85623
 Alpha  occ. eigenvalues --   -0.85290  -0.84757  -0.84628  -0.83640  -0.82658
 Alpha  occ. eigenvalues --   -0.82643  -0.82384  -0.81384  -0.80448  -0.79523
 Alpha  occ. eigenvalues --   -0.78908  -0.78240  -0.77435  -0.76891  -0.76468
 Alpha  occ. eigenvalues --   -0.75615  -0.74659  -0.74140  -0.72383  -0.72045
 Alpha  occ. eigenvalues --   -0.71672  -0.71376  -0.70799  -0.69725  -0.69406
 Alpha  occ. eigenvalues --   -0.69044  -0.68839  -0.67362  -0.66483  -0.66241
 Alpha  occ. eigenvalues --   -0.65916  -0.65312  -0.64317  -0.63330  -0.62282
 Alpha  occ. eigenvalues --   -0.61430  -0.60873  -0.60587  -0.60429  -0.59826
 Alpha  occ. eigenvalues --   -0.58896  -0.57627  -0.57373  -0.57203  -0.56888
 Alpha  occ. eigenvalues --   -0.56530  -0.56015  -0.55508  -0.54973  -0.54818
 Alpha  occ. eigenvalues --   -0.54213  -0.53147  -0.52763  -0.52413  -0.51985
 Alpha  occ. eigenvalues --   -0.51822  -0.51754  -0.51609  -0.50945  -0.50914
 Alpha  occ. eigenvalues --   -0.50592  -0.50184  -0.49988  -0.49699  -0.49578
 Alpha  occ. eigenvalues --   -0.48851  -0.48424  -0.48172  -0.47918  -0.47545
 Alpha  occ. eigenvalues --   -0.47414  -0.47356  -0.47148  -0.46969  -0.46755
 Alpha  occ. eigenvalues --   -0.46534  -0.46506  -0.46245  -0.46027  -0.45870
 Alpha  occ. eigenvalues --   -0.45812  -0.45400  -0.45356  -0.45170  -0.44870
 Alpha  occ. eigenvalues --   -0.44730  -0.44423  -0.44217  -0.44158  -0.43871
 Alpha  occ. eigenvalues --   -0.43675  -0.43473  -0.43215  -0.43116  -0.42945
 Alpha  occ. eigenvalues --   -0.42256  -0.42208  -0.41989  -0.41888  -0.41721
 Alpha  occ. eigenvalues --   -0.41493  -0.41370  -0.41194  -0.41163  -0.40972
 Alpha  occ. eigenvalues --   -0.40595  -0.40400  -0.40320  -0.40200  -0.40097
 Alpha  occ. eigenvalues --   -0.39859  -0.39740  -0.39348  -0.39172  -0.39130
 Alpha  occ. eigenvalues --   -0.39090  -0.38776  -0.38735  -0.38525  -0.38353
 Alpha  occ. eigenvalues --   -0.37940  -0.37471  -0.37381  -0.37294  -0.37165
 Alpha  occ. eigenvalues --   -0.37051  -0.36996  -0.36606  -0.35913  -0.35484
 Alpha  occ. eigenvalues --   -0.35131  -0.34783  -0.34467  -0.34402  -0.34299
 Alpha  occ. eigenvalues --   -0.34122  -0.33829  -0.33671  -0.33517  -0.33307
 Alpha  occ. eigenvalues --   -0.32830  -0.32381  -0.31891  -0.31712  -0.31549
 Alpha  occ. eigenvalues --   -0.31503  -0.31051  -0.30635  -0.30490  -0.29851
 Alpha  occ. eigenvalues --   -0.29286  -0.29058  -0.28514  -0.28359  -0.27672
 Alpha  occ. eigenvalues --   -0.27341  -0.27179  -0.22427  -0.20689
 Alpha virt. eigenvalues --   -0.08054  -0.05731  -0.01457  -0.00730   0.00474
 Alpha virt. eigenvalues --    0.02608   0.03060   0.03236   0.04574   0.04920
 Alpha virt. eigenvalues --    0.05313   0.06306   0.07873   0.08587   0.09361

 Mulliken charges:
               1
     1  Mg   0.837472
     2  C    0.036783
     3  C   -0.170567
     4  C   -0.208407
     5  C   -0.199000
     6  N   -0.617712
     7  C    0.351016
     8  C   -0.162559
     9  C   -0.169515
    10  C    0.290864
    11  C   -0.295166
    12  C   -0.163231
    13  C   -0.276478
    14  C    0.628261
    15  O   -0.458110
    16  O   -0.441682
    17  N   -0.709687
    18  C    0.271071
    19  C    0.040177
    20  C    0.000089
    21  C    0.314459
    22  C   -0.392306
    23  C    0.258100
    24  O   -0.411330
    25  N   -0.663055
    26  C    0.283907
    27  C    0.023605
    28  C    0.006113
    29  C    0.283532
    30  C    0.228822
    31  C   -0.242297
    32  C   -0.289704
    33  N   -0.715206
    34  C    0.306115
    35  C   -0.023696
    36  C    0.024753
    37  C    0.303149
    38  C   -0.372568
    39  C    0.378481
    40  O   -0.422125
    41  C   -0.323958
    42  C    0.630948
    43  O   -0.469766
    44  O   -0.423509
    45  C   -0.085244
    46  C   -0.031775
    47  C   -0.117254
    48  C    0.108970
    49  C   -0.343490
    50  C   -0.208919
    51  C   -0.187888
    52  C   -0.160984
    53  C   -0.056144
    54  C   -0.298052
    55  C   -0.153256
    56  C   -0.217809
    57  C   -0.171584
    58  C   -0.055433
    59  C   -0.328064
    60  C   -0.173580
    61  C   -0.100399
    62  C   -0.176289
    63  C   -0.066846
    64  C   -0.281288
    65  C   -0.315812
    66  H    0.084687
    67  H    0.134623
    68  H    0.078067
    69  H    0.120602
    70  H    0.091902
    71  H    0.113423
    72  H    0.113569
    73  H    0.123537
    74  H    0.109400
    75  H    0.105579
    76  H    0.126125
    77  H    0.118508
    78  H    0.119713
    79  H    0.146194
    80  H    0.113509
    81  H    0.069977
    82  H    0.112323
    83  H    0.118361
    84  H    0.096479
    85  H    0.122107
    86  H    0.127945
    87  H    0.127716
    88  H    0.127961
    89  H    0.136646
    90  H    0.167708
    91  H    0.114137
    92  H    0.114049
    93  H    0.084325
    94  H    0.140493
    95  H    0.114613
    96  H    0.107702
    97  H    0.116746
    98  H    0.105230
    99  H    0.097081
   100  H    0.066672
   101  H    0.069588
   102  H    0.080589
   103  H    0.087594
   104  H    0.100689
   105  H    0.103610
   106  H    0.057275
   107  H    0.109712
   108  H    0.099170
   109  H    0.087157
   110  H    0.081751
   111  H    0.066673
   112  H    0.100429
   113  H    0.087407
   114  H    0.113520
   115  H    0.095272
   116  H    0.108795
   117  H    0.088440
   118  H    0.067750
   119  H    0.066974
   120  H    0.065982
   121  H    0.094556
   122  H    0.084564
   123  H    0.075971
   124  H    0.070988
   125  H    0.092279
   126  H    0.108612
   127  H    0.100344
   128  H    0.110284
   129  H    0.088673
   130  H    0.121099
   131  H    0.133900
   132  H    0.115526
   133  O   -0.426051
   134  H    0.068231
 Sum of Mulliken charges =   0.00000

 Dipole moment (field-independent basis, Debye):
    X=              2.9524    Y=             -5.3571    Z=             -1.7474  Tot=              6.3615
 Quadrupole moment (field-independent basis, Debye-Ang):
   XX=           -364.6453   YY=           -437.8949   ZZ=           -398.3978
   XY=              3.9677   XZ=             26.6100   YZ=            -34.8058

 Normal termination of Gaussian 09 at Tue Oct  8 14:16:55 2019.
