 Gaussian 09, Revision D.01,
 Gaussian 09:  ES64L-G09RevD.01 24-Apr-2013

 ----------------------------------------------------------------------
 # td=(NStates=1) iop(3/107=0140000000,3/108=0140000000) iop(3/107=0140
 000000,3/108=0140000000) CAM-B3LYP/6-31G(d,p)
 ----------------------------------------------------------------------

 --
 TD
 --
 Symbolic Z-matrix:
 Charge =  0 Multiplicity = 1

                         Standard orientation:
 ---------------------------------------------------------------------
 Center     Atomic      Atomic             Coordinates (Angstroms)
 Number     Number       Type             X           Y           Z
 ---------------------------------------------------------------------
      1         12           0       -5.693368    1.239406    0.180206
      2          6           0       -5.127002   -2.130079   -0.372264
      3          6           0       -3.547326    1.188658    2.777639
      4          6           0       -6.128843    4.599714    0.578042
      5          6           0       -8.077287    1.156185   -2.353709
      6          7           0       -4.472404   -0.292209    1.018281
      7          6           0       -4.253731   -1.589023    0.626400
      8          6           0       -3.268378   -2.258499    1.435026
      9          6           0       -2.987261   -1.361768    2.561988
     10          6           0       -3.671511   -0.035839    2.125486
     11          6           0       -3.468496   -1.853460    3.958691
     12          6           0       -2.021288   -2.691104    0.660909
     13          6           0       -0.893386   -3.548326    1.418647
     14          6           0        0.255455   -3.799744    0.633621
     15          8           0        0.524979   -3.481578   -0.488424
     16          8           0        1.058503   -4.556280    1.370674
     17          7           0       -4.974014    2.645323    1.491528
     18          6           0       -4.060699    2.429078    2.520027
     19          6           0       -3.783661    3.615033    3.158764
     20          6           0       -4.605040    4.653757    2.594192
     21          6           0       -5.216349    3.946993    1.551771
     22          6           0       -2.895641    3.685230    4.411275
     23          6           0       -4.561791    6.120476    2.981484
     24          8           0       -3.939826    6.497532    3.952737
     25          7           0       -6.898484    2.605931   -0.745993
     26          6           0       -6.807638    3.948725   -0.496155
     27          6           0       -7.885646    4.668482   -1.236868
     28          6           0       -8.459938    3.691287   -2.019346
     29          6           0       -7.803523    2.395134   -1.704311
     30          6           0       -8.152631    6.154019   -1.284102
     31          6           0       -9.429445    3.789947   -3.126023
     32          6           0       -8.844084    4.124621   -4.543782
     33          7           0       -6.605856   -0.146902   -0.953244
     34          6           0       -7.487157   -0.057954   -1.995763
     35          6           0       -7.584512   -1.376883   -2.743501
     36          6           0       -6.770120   -2.257384   -2.029054
     37          6           0       -6.166511   -1.465229   -1.021731
     38          6           0       -8.500420   -1.661825   -3.867197
     39          6           0       -6.172639   -3.646773   -2.067746
     40          8           0       -6.609281   -4.602288   -2.621441
     41          6           0       -5.041762   -3.585030   -0.935451
     42          6           0       -5.346345   -4.715764    0.102343
     43          8           0       -5.899230   -4.501967    1.214001
     44          8           0       -4.900477   -5.818265   -0.428564
     45          6           0       -5.182311   -7.061169    0.365955
     46          6           0        2.272690   -4.967859    0.648185
     47          6           0        3.342474   -4.037000    1.064399
     48          6           0        4.083605   -3.275533    0.252754
     49          6           0        3.760842   -3.127129   -1.226343
     50          6           0        5.258654   -2.344388    0.721888
     51          6           0        6.608701   -2.736476    0.145078
     52          6           0        7.709270   -1.791156    0.569171
     53          6           0        9.135277   -1.992780   -0.116070
     54          6           0        9.573800   -3.435653    0.166607
     55          6           0       10.089437   -0.979124    0.415416
     56          6           0       11.401600   -0.873449   -0.375333
     57          6           0       12.270067    0.291874    0.135678
     58          6           0       13.596127    0.478358   -0.563749
     59          6           0       14.446604   -0.761219   -0.357354
     60          6           0       14.201914    1.801468   -0.163652
     61          6           0       15.579476    2.072468   -0.903390
     62          6           0       16.058811    3.480153   -0.652098
     63          6           0       17.327436    3.813135   -1.378713
     64          6           0       17.162840    4.210960   -2.894656
     65          6           0       17.930311    5.128221   -0.787786
     66          1           0       -2.731362    1.135149    3.428747
     67          1           0       -6.220629    5.688237    0.857751
     68          1           0       -8.796964    0.932379   -3.103551
     69          1           0       -3.787392   -3.164740    1.810395
     70          1           0       -1.881375   -1.017107    2.665880
     71          1           0       -2.975924   -2.865340    4.248842
     72          1           0       -3.367840   -1.176807    4.756031
     73          1           0       -4.569459   -1.997843    3.965822
     74          1           0       -2.163774   -3.356916   -0.203248
     75          1           0       -1.508260   -1.551198    0.268955
     76          1           0       -0.651769   -3.119447    2.192717
     77          1           0       -1.283970   -4.532487    1.560626
     78          1           0       -1.769232    3.339784    4.186428
     79          1           0       -3.139958    4.765689    4.928158
     80          1           0       -2.988541    2.970297    5.289606
     81          1           0       -5.287095    6.788086    2.262752
     82          1           0       -9.902716    2.973082   -2.922943
     83          1           0      -10.097440    4.649218   -2.735861
     84          1           0       -9.707447    4.197597   -5.259666
     85          1           0       -8.310312    5.048192   -4.819073
     86          1           0       -8.238440    3.254876   -4.757829
     87          1           0       -8.098397   -1.139470   -4.791071
     88          1           0       -8.411681   -2.589067   -4.162501
     89          1           0       -9.478165   -1.435640   -3.592631
     90          1           0       -3.959144   -3.849008   -1.441490
     91          1           0        2.322304   -5.918509    1.042869
     92          1           0        2.053432   -4.733677   -0.491262
     93          1           0        3.589202   -4.023895    2.046653
     94          1           0        2.829983   -3.357829   -1.418883
     95          1           0        4.022230   -2.069135   -1.569886
     96          1           0        4.363467   -3.982875   -1.781132
     97          1           0        4.896310   -1.284387    0.574952
     98          1           0        5.134214   -2.401721    1.969732
     99          1           0        6.887263   -3.821500    0.303188
    100          1           0        6.539033   -2.673106   -1.021421
    101          1           0        7.355500   -0.688929    0.502010
    102          1           0        7.804283   -1.874053    1.605558
    103          1           0        8.700252   -1.886247   -1.070291
    104          1           0        8.885169   -4.090579   -0.257183
    105          1           0       10.569641   -3.687935   -0.378982
    106          1           0        9.912264   -3.741624    1.288111
    107          1           0        9.575945    0.091998    0.295949
    108          1           0       10.423508   -1.010195    1.526678
    109          1           0       11.798119   -1.988573   -0.235561
    110          1           0       11.156104   -0.973295   -1.637246
    111          1           0       11.626475    1.180119    0.116794
    112          1           0       12.465156    0.281152    1.205251
    113          1           0       13.273070    0.542711   -1.710136
    114          1           0       14.777761   -0.815602    0.531106
    115          1           0       14.037539   -1.661049   -0.466160
    116          1           0       15.210660   -0.598536   -1.118126
    117          1           0       13.786989    2.730333   -0.377680
    118          1           0       14.311781    1.687399    0.875616
    119          1           0       16.404951    1.319999   -0.623799
    120          1           0       15.299332    1.827416   -1.982856
    121          1           0       15.193885    4.118287   -0.942843
    122          1           0       16.041149    3.618252    0.415118
    123          1           0       17.898219    3.181502   -1.371399
    124          1           0       16.474164    5.024017   -2.761347
    125          1           0       18.044212    4.588303   -3.365094
    126          1           0       16.735972    3.416569   -3.674341
    127          1           0       18.382888    5.218804    0.227943
    128          1           0       18.802369    5.492056   -1.499378
    129          1           0       17.042358    5.853924   -0.881079
    130          1           0       -5.009088   -7.910553   -0.308641
    131          1           0       -6.205001   -6.886225    0.630685
    132          1           0       -4.614777   -7.075022    1.386557
    133          8           0       -7.578845    6.949292   -0.547025
    134          1           0       -8.919988    6.427087   -1.876738
 ---------------------------------------------------------------------

 SCF Done:  E(RCAM-B3LYP) =  -3043.40401294     A.U. after   16 cycles

 Excitation energies and oscillator strengths:

 Excited State   1:      Singlet-A      1.9836 eV  625.03 nm  f=0.1827  <S**2>=0.000
     243 -> 245        0.13030
     243 -> 246       -0.25490
     244 -> 245        0.63234
 This state for optimization and/or second-order correction.
 Total Energy, E(TD-HF/TD-KS) =  -3043.33111515
 Copying the excited state density for this state as the 1-particle RhoCI density.

 The electronic state is 1-A.
 Alpha  occ. eigenvalues --  -46.81048 -19.24925 -19.21403 -19.18713 -19.17751
 Alpha  occ. eigenvalues --  -19.17532 -19.17326 -19.16850 -14.38831 -14.36939
 Alpha  occ. eigenvalues --  -14.36471 -14.35530 -10.36252 -10.33859 -10.32779
 Alpha  occ. eigenvalues --  -10.31616 -10.30153 -10.29551 -10.27540 -10.26726
 Alpha  occ. eigenvalues --  -10.26650 -10.26567 -10.26520 -10.26401 -10.26353
 Alpha  occ. eigenvalues --  -10.25874 -10.25614 -10.25482 -10.25142 -10.24799
 Alpha  occ. eigenvalues --  -10.24247 -10.24074 -10.24016 -10.23850 -10.23744
 Alpha  occ. eigenvalues --  -10.23616 -10.23470 -10.22999 -10.22947 -10.22922
 Alpha  occ. eigenvalues --  -10.22839 -10.22760 -10.22736 -10.22681 -10.22595
 Alpha  occ. eigenvalues --  -10.22588 -10.22487 -10.22151 -10.22002 -10.21863
 Alpha  occ. eigenvalues --  -10.21788 -10.21633 -10.21565 -10.21529 -10.21494
 Alpha  occ. eigenvalues --  -10.21369 -10.21030 -10.20719 -10.20545 -10.20342
 Alpha  occ. eigenvalues --  -10.20338 -10.20296 -10.19902 -10.19620 -10.19577
 Alpha  occ. eigenvalues --  -10.17242  -3.09653  -1.84591  -1.84115  -1.84076
 Alpha  occ. eigenvalues --   -1.14859  -1.14577  -1.09813  -1.07040  -1.06419
 Alpha  occ. eigenvalues --   -1.05067  -1.03904  -1.00400  -0.99727  -0.99505
 Alpha  occ. eigenvalues --   -0.98538  -0.87755  -0.86898  -0.86016  -0.85574
 Alpha  occ. eigenvalues --   -0.85247  -0.84811  -0.84214  -0.84076  -0.83391
 Alpha  occ. eigenvalues --   -0.83073  -0.82602  -0.81282  -0.80157  -0.79764
 Alpha  occ. eigenvalues --   -0.78845  -0.78293  -0.77720  -0.76900  -0.76536
 Alpha  occ. eigenvalues --   -0.75585  -0.74866  -0.73772  -0.72809  -0.72174
 Alpha  occ. eigenvalues --   -0.71238  -0.70990  -0.70186  -0.69885  -0.69461
 Alpha  occ. eigenvalues --   -0.68848  -0.68193  -0.67532  -0.67191  -0.66683
 Alpha  occ. eigenvalues --   -0.65202  -0.64616  -0.63964  -0.62870  -0.61632
 Alpha  occ. eigenvalues --   -0.61284  -0.61140  -0.60984  -0.59934  -0.59204
 Alpha  occ. eigenvalues --   -0.58699  -0.58504  -0.58099  -0.57482  -0.57241
 Alpha  occ. eigenvalues --   -0.56309  -0.55820  -0.55553  -0.55377  -0.55031
 Alpha  occ. eigenvalues --   -0.54344  -0.53670  -0.53198  -0.52651  -0.52141
 Alpha  occ. eigenvalues --   -0.51847  -0.51762  -0.51306  -0.51134  -0.51094
 Alpha  occ. eigenvalues --   -0.50677  -0.50155  -0.50133  -0.49808  -0.49298
 Alpha  occ. eigenvalues --   -0.49052  -0.48685  -0.48126  -0.47900  -0.47705
 Alpha  occ. eigenvalues --   -0.47372  -0.47278  -0.47267  -0.46829  -0.46742
 Alpha  occ. eigenvalues --   -0.46690  -0.46531  -0.46315  -0.46152  -0.45846
 Alpha  occ. eigenvalues --   -0.45674  -0.45471  -0.45159  -0.44834  -0.44646
 Alpha  occ. eigenvalues --   -0.44567  -0.44418  -0.44190  -0.43625  -0.43500
 Alpha  occ. eigenvalues --   -0.43479  -0.43394  -0.43223  -0.43145  -0.42709
 Alpha  occ. eigenvalues --   -0.42517  -0.42330  -0.42043  -0.41955  -0.41678
 Alpha  occ. eigenvalues --   -0.41491  -0.41371  -0.41214  -0.40937  -0.40900
 Alpha  occ. eigenvalues --   -0.40596  -0.40501  -0.40456  -0.40366  -0.39970
 Alpha  occ. eigenvalues --   -0.39880  -0.39743  -0.39677  -0.39515  -0.39159
 Alpha  occ. eigenvalues --   -0.38977  -0.38722  -0.38616  -0.38442  -0.38126
 Alpha  occ. eigenvalues --   -0.37893  -0.37650  -0.37321  -0.36934  -0.36890
 Alpha  occ. eigenvalues --   -0.36684  -0.36339  -0.36198  -0.36082  -0.36003
 Alpha  occ. eigenvalues --   -0.35875  -0.35303  -0.34744  -0.34711  -0.34587
 Alpha  occ. eigenvalues --   -0.34312  -0.33999  -0.33856  -0.33479  -0.33392
 Alpha  occ. eigenvalues --   -0.33197  -0.32977  -0.32611  -0.31859  -0.31203
 Alpha  occ. eigenvalues --   -0.31046  -0.30920  -0.30762  -0.30078  -0.29144
 Alpha  occ. eigenvalues --   -0.28719  -0.28476  -0.28248  -0.27968  -0.27559
 Alpha  occ. eigenvalues --   -0.27275  -0.26653  -0.22193  -0.20856
 Alpha virt. eigenvalues --   -0.08119  -0.05873  -0.01773  -0.00535   0.00400
 Alpha virt. eigenvalues --    0.02761   0.03583   0.04131   0.04477   0.04863
 Alpha virt. eigenvalues --    0.05184   0.05726   0.07761   0.08608   0.09877

 Mulliken charges:
               1
     1  Mg   0.826364
     2  C    0.038038
     3  C   -0.182057
     4  C   -0.146900
     5  C   -0.178019
     6  N   -0.622696
     7  C    0.336265
     8  C   -0.156949
     9  C   -0.132230
    10  C    0.293982
    11  C   -0.315855
    12  C   -0.169902
    13  C   -0.234192
    14  C    0.609077
    15  O   -0.484057
    16  O   -0.475803
    17  N   -0.708280
    18  C    0.337555
    19  C    0.030291
    20  C   -0.035186
    21  C    0.290832
    22  C   -0.391631
    23  C    0.264177
    24  O   -0.403538
    25  N   -0.673279
    26  C    0.251036
    27  C   -0.030457
    28  C   -0.028407
    29  C    0.331251
    30  C    0.275065
    31  C   -0.217483
    32  C   -0.316027
    33  N   -0.707452
    34  C    0.279491
    35  C   -0.027220
    36  C    0.028272
    37  C    0.296658
    38  C   -0.370433
    39  C    0.388664
    40  O   -0.414975
    41  C   -0.333167
    42  C    0.626551
    43  O   -0.501159
    44  O   -0.418913
    45  C   -0.104568
    46  C   -0.025381
    47  C   -0.093547
    48  C    0.111136
    49  C   -0.355990
    50  C   -0.219413
    51  C   -0.173491
    52  C   -0.180590
    53  C   -0.046814
    54  C   -0.307103
    55  C   -0.156323
    56  C   -0.153327
    57  C   -0.171401
    58  C   -0.071380
    59  C   -0.294806
    60  C   -0.161196
    61  C   -0.194856
    62  C   -0.173025
    63  C   -0.002313
    64  C   -0.315945
    65  C   -0.314735
    66  H    0.071264
    67  H    0.127285
    68  H    0.085638
    69  H    0.134358
    70  H    0.100290
    71  H    0.099032
    72  H    0.123772
    73  H    0.125878
    74  H    0.111968
    75  H    0.073795
    76  H    0.135829
    77  H    0.144098
    78  H    0.096133
    79  H    0.147811
    80  H    0.111682
    81  H    0.071324
    82  H    0.122073
    83  H    0.089441
    84  H    0.108834
    85  H    0.123924
    86  H    0.120110
    87  H    0.119578
    88  H    0.148637
    89  H    0.139043
    90  H    0.140276
    91  H    0.116802
    92  H    0.138007
    93  H    0.072017
    94  H    0.148587
    95  H    0.103467
    96  H    0.097013
    97  H    0.110084
    98  H    0.061561
    99  H    0.106189
   100  H    0.083297
   101  H    0.074266
   102  H    0.100536
   103  H    0.103190
   104  H    0.110304
   105  H    0.087058
   106  H    0.088283
   107  H    0.064426
   108  H    0.089194
   109  H    0.074828
   110  H    0.052998
   111  H    0.089792
   112  H    0.084146
   113  H    0.056587
   114  H    0.105712
   115  H    0.111040
   116  H    0.102034
   117  H    0.098457
   118  H    0.088244
   119  H    0.081484
   120  H    0.087370
   121  H    0.081216
   122  H    0.102106
   123  H    0.073597
   124  H    0.104934
   125  H    0.109414
   126  H    0.078663
   127  H    0.098885
   128  H    0.078745
   129  H    0.091896
   130  H    0.146169
   131  H    0.158408
   132  H    0.132477
   133  O   -0.418331
   134  H    0.080540
 Sum of Mulliken charges =   0.00000

 Dipole moment (field-independent basis, Debye):
    X=              1.1924    Y=             -6.9325    Z=             -2.2143  Tot=              7.3746
 Quadrupole moment (field-independent basis, Debye-Ang):
   XX=           -372.0367   YY=           -419.5984   ZZ=           -395.9722
   XY=             10.6378   XZ=             35.6629   YZ=            -33.9951

 Normal termination of Gaussian 09 at Thu Oct  3 22:20:30 2019.
