 Gaussian 09, Revision D.01,
 Gaussian 09:  ES64L-G09RevD.01 24-Apr-2013

 ----------------------------------------------------------------------
 # td=(NStates=1) iop(3/107=0140000000,3/108=0140000000) iop(3/107=0140
 000000,3/108=0140000000) CAM-B3LYP/6-31G(d,p)
 ----------------------------------------------------------------------

 --
 TD
 --
 Symbolic Z-matrix:
 Charge =  0 Multiplicity = 1

                         Standard orientation:
 ---------------------------------------------------------------------
 Center     Atomic      Atomic             Coordinates (Angstroms)
 Number     Number       Type             X           Y           Z
 ---------------------------------------------------------------------
      1         12           0       -5.664514    1.194082    0.200078
      2          6           0       -4.928384   -2.159737   -0.366736
      3          6           0       -3.381925    1.237557    2.643760
      4          6           0       -6.300377    4.572118    0.676183
      5          6           0       -8.140246    1.064240   -2.285348
      6          7           0       -4.386229   -0.279504    1.027465
      7          6           0       -4.299476   -1.543483    0.680513
      8          6           0       -3.224234   -2.205242    1.496132
      9          6           0       -2.938742   -1.210313    2.599243
     10          6           0       -3.584887    0.040299    2.112290
     11          6           0       -3.516280   -1.620784    4.005547
     12          6           0       -1.911401   -2.470109    0.654255
     13          6           0       -0.926838   -3.501828    1.395891
     14          6           0        0.297630   -3.862177    0.702242
     15          8           0        0.640756   -3.395424   -0.444566
     16          8           0        1.093109   -4.802474    1.329586
     17          7           0       -4.862867    2.698287    1.270708
     18          6           0       -4.006308    2.475125    2.351617
     19          6           0       -3.726655    3.706095    2.982906
     20          6           0       -4.513609    4.615230    2.509622
     21          6           0       -5.282228    4.011637    1.399444
     22          6           0       -2.762721    3.917146    4.244054
     23          6           0       -4.542415    6.103105    2.717586
     24          8           0       -3.937891    6.685945    3.516335
     25          7           0       -6.937796    2.432574   -0.729037
     26          6           0       -7.040263    3.826548   -0.327485
     27          6           0       -8.030145    4.484951   -1.241133
     28          6           0       -8.640032    3.427808   -2.017290
     29          6           0       -7.912876    2.281541   -1.670933
     30          6           0       -8.560760    5.836099   -1.077702
     31          6           0       -9.651789    3.692125   -3.066632
     32          6           0       -9.062086    3.940273   -4.536829
     33          7           0       -6.375724   -0.182225   -1.055241
     34          6           0       -7.360367   -0.087230   -1.955339
     35          6           0       -7.596037   -1.438606   -2.615930
     36          6           0       -6.627064   -2.207334   -2.060201
     37          6           0       -5.948307   -1.487794   -1.095507
     38          6           0       -8.554176   -1.713843   -3.682268
     39          6           0       -6.193390   -3.645804   -1.889212
     40          8           0       -6.589232   -4.696462   -2.440406
     41          6           0       -4.967884   -3.525541   -0.904146
     42          6           0       -5.240722   -4.584564    0.093074
     43          8           0       -5.793056   -4.316410    1.190056
     44          8           0       -5.015001   -5.817029   -0.377858
     45          6           0       -5.253958   -6.911106    0.515565
     46          6           0        2.268244   -5.059037    0.611550
     47          6           0        3.452232   -4.068975    1.000829
     48          6           0        4.050266   -3.178464    0.254196
     49          6           0        3.825850   -3.202304   -1.359549
     50          6           0        5.183485   -2.337033    0.865001
     51          6           0        6.549624   -2.669365    0.177087
     52          6           0        7.672446   -1.686123    0.661573
     53          6           0        9.053599   -1.984560   -0.016591
     54          6           0        9.709757   -3.330106    0.375030
     55          6           0        9.988660   -0.741811    0.385964
     56          6           0       11.452309   -0.872304   -0.187007
     57          6           0       12.352032    0.329022    0.089794
     58          6           0       13.711532    0.425632   -0.681569
     59          6           0       14.623128   -0.775604   -0.413298
     60          6           0       14.239219    1.729461   -0.200829
     61          6           0       15.539743    2.148981   -1.130669
     62          6           0       16.072545    3.425054   -0.580053
     63          6           0       17.392402    3.893429   -1.412097
     64          6           0       17.136045    3.982882   -2.899208
     65          6           0       17.967485    5.241754   -0.833105
     66          1           0       -2.686284    1.360645    3.452969
     67          1           0       -6.572186    5.697481    0.849881
     68          1           0       -9.108599    1.080721   -2.877929
     69          1           0       -3.362358   -3.321086    2.052315
     70          1           0       -1.902348   -0.974860    2.775721
     71          1           0       -3.180172   -2.629653    4.084139
     72          1           0       -3.432721   -0.893342    4.809532
     73          1           0       -4.589685   -1.549358    3.647639
     74          1           0       -2.127172   -2.959425   -0.245924
     75          1           0       -1.157605   -1.662073    0.491741
     76          1           0       -0.680566   -2.857336    2.243642
     77          1           0       -1.469616   -4.262482    1.725403
     78          1           0       -1.896495    3.566226    3.956266
     79          1           0       -2.758030    4.835261    4.778184
     80          1           0       -2.968108    3.088507    4.924461
     81          1           0       -5.265458    6.626308    2.081917
     82          1           0      -10.236531    2.757379   -2.988929
     83          1           0      -10.281165    4.426398   -2.907659
     84          1           0       -9.920440    3.979401   -5.236312
     85          1           0       -8.510159    4.754320   -4.583838
     86          1           0       -8.376915    3.080748   -4.696334
     87          1           0       -8.383125   -1.216411   -4.588691
     88          1           0       -9.006709   -2.857458   -4.174625
     89          1           0       -9.678188   -1.098161   -3.316173
     90          1           0       -4.228172   -4.084406   -1.573192
     91          1           0        2.461299   -6.270655    0.849674
     92          1           0        2.143113   -4.957092   -0.538212
     93          1           0        3.704511   -4.062855    2.006149
     94          1           0        2.743567   -3.338442   -1.791570
     95          1           0        4.103714   -2.125619   -1.781236
     96          1           0        4.450489   -4.112242   -1.892458
     97          1           0        5.043642   -1.293830    0.686990
     98          1           0        5.196693   -2.798720    1.959098
     99          1           0        6.908310   -3.737300    0.517197
    100          1           0        6.350550   -2.581987   -0.832998
    101          1           0        7.452795   -0.585016    0.550772
    102          1           0        7.590376   -1.932179    1.813648
    103          1           0        9.015844   -1.811704   -1.210622
    104          1           0        9.100230   -4.213384    0.192342
    105          1           0       10.784821   -3.501182   -0.162310
    106          1           0        9.814287   -3.073343    1.412736
    107          1           0        9.470436    0.337590   -0.061378
    108          1           0       10.081446   -0.659402    1.532500
    109          1           0       11.804407   -1.742323   -0.128012
    110          1           0       11.287784   -0.942184   -1.192920
    111          1           0       11.947273    1.317062   -0.184516
    112          1           0       12.556493    0.443025    1.150133
    113          1           0       13.605588    0.566899   -1.824254
    114          1           0       14.942034   -0.727188    0.616584
    115          1           0       14.143627   -1.745887   -0.647210
    116          1           0       15.312453   -0.801336   -1.102533
    117          1           0       13.492973    2.568568   -0.052580
    118          1           0       14.542486    1.843061    0.892742
    119          1           0       16.191856    1.364582   -0.952130
    120          1           0       15.216782    2.034049   -2.122625
    121          1           0       15.349254    4.320876   -0.718272
    122          1           0       16.408139    3.481459    0.442621
    123          1           0       18.151354    3.032012   -1.407337
    124          1           0       16.441067    4.764450   -3.093768
    125          1           0       18.168136    4.119402   -3.574814
    126          1           0       16.624909    2.999811   -3.252869
    127          1           0       18.193522    5.246663    0.328173
    128          1           0       18.896348    5.380392   -1.434797
    129          1           0       17.172205    5.979243   -0.897962
    130          1           0       -4.835992   -7.827091   -0.074391
    131          1           0       -6.285153   -7.277759    0.570410
    132          1           0       -4.856059   -6.685444    1.424126
    133          8           0       -8.072996    6.708802   -0.391158
    134          1           0       -9.271733    6.207587   -1.918128
 ---------------------------------------------------------------------

 SCF Done:  E(RCAM-B3LYP) =  -3043.40873765     A.U. after   15 cycles

 Excitation energies and oscillator strengths:

 Excited State   1:      Singlet-A      2.0463 eV  605.89 nm  f=0.1748  <S**2>=0.000
     243 -> 246       -0.26706
     244 -> 245        0.64680
 This state for optimization and/or second-order correction.
 Total Energy, E(TD-HF/TD-KS) =  -3043.33353732
 Copying the excited state density for this state as the 1-particle RhoCI density.

 The electronic state is 1-A.
 Alpha  occ. eigenvalues --  -46.80594 -19.23385 -19.23384 -19.17819 -19.17683
 Alpha  occ. eigenvalues --  -19.17213 -19.17025 -19.16373 -14.38880 -14.37278
 Alpha  occ. eigenvalues --  -14.37222 -14.36884 -10.35929 -10.34982 -10.32611
 Alpha  occ. eigenvalues --  -10.30453 -10.30163 -10.28931 -10.27862 -10.27577
 Alpha  occ. eigenvalues --  -10.27554 -10.27182 -10.27155 -10.27123 -10.26133
 Alpha  occ. eigenvalues --  -10.26124 -10.25903 -10.25781 -10.25760 -10.25574
 Alpha  occ. eigenvalues --  -10.25558 -10.24838 -10.24677 -10.24337 -10.24070
 Alpha  occ. eigenvalues --  -10.23846 -10.23790 -10.23609 -10.23493 -10.23435
 Alpha  occ. eigenvalues --  -10.23358 -10.23215 -10.23126 -10.22965 -10.22843
 Alpha  occ. eigenvalues --  -10.22835 -10.22562 -10.22536 -10.22337 -10.22333
 Alpha  occ. eigenvalues --  -10.22262 -10.21804 -10.21710 -10.21605 -10.21604
 Alpha  occ. eigenvalues --  -10.21315 -10.21285 -10.21181 -10.21145 -10.21092
 Alpha  occ. eigenvalues --  -10.20844 -10.20557 -10.20045 -10.19894 -10.18871
 Alpha  occ. eigenvalues --  -10.18035  -3.09432  -1.84353  -1.83898  -1.83868
 Alpha  occ. eigenvalues --   -1.13650  -1.13135  -1.10552  -1.07059  -1.05612
 Alpha  occ. eigenvalues --   -1.03113  -1.02304  -1.01923  -1.00741  -0.99766
 Alpha  occ. eigenvalues --   -0.97802  -0.89803  -0.86304  -0.85896  -0.85183
 Alpha  occ. eigenvalues --   -0.85058  -0.84696  -0.84259  -0.83597  -0.83316
 Alpha  occ. eigenvalues --   -0.83118  -0.82512  -0.82130  -0.80826  -0.79258
 Alpha  occ. eigenvalues --   -0.78824  -0.78206  -0.77698  -0.77228  -0.76016
 Alpha  occ. eigenvalues --   -0.75517  -0.75350  -0.74139  -0.72974  -0.72421
 Alpha  occ. eigenvalues --   -0.71700  -0.70433  -0.69850  -0.69783  -0.69516
 Alpha  occ. eigenvalues --   -0.69234  -0.68238  -0.68029  -0.67351  -0.66394
 Alpha  occ. eigenvalues --   -0.65899  -0.64951  -0.64297  -0.62756  -0.62470
 Alpha  occ. eigenvalues --   -0.62249  -0.60910  -0.60590  -0.59473  -0.59063
 Alpha  occ. eigenvalues --   -0.58777  -0.57963  -0.57607  -0.57113  -0.56837
 Alpha  occ. eigenvalues --   -0.56720  -0.56265  -0.55548  -0.55066  -0.54668
 Alpha  occ. eigenvalues --   -0.54559  -0.53733  -0.53525  -0.52981  -0.52840
 Alpha  occ. eigenvalues --   -0.52437  -0.51959  -0.51104  -0.50781  -0.50476
 Alpha  occ. eigenvalues --   -0.50350  -0.50131  -0.49945  -0.49019  -0.48737
 Alpha  occ. eigenvalues --   -0.48531  -0.48316  -0.48203  -0.47956  -0.47876
 Alpha  occ. eigenvalues --   -0.47801  -0.47432  -0.47266  -0.47074  -0.46797
 Alpha  occ. eigenvalues --   -0.46727  -0.46507  -0.46362  -0.46132  -0.45986
 Alpha  occ. eigenvalues --   -0.45730  -0.45592  -0.45406  -0.45348  -0.44872
 Alpha  occ. eigenvalues --   -0.44848  -0.44661  -0.44158  -0.43817  -0.43653
 Alpha  occ. eigenvalues --   -0.43561  -0.43428  -0.43372  -0.43134  -0.42928
 Alpha  occ. eigenvalues --   -0.42683  -0.42521  -0.42388  -0.42224  -0.41905
 Alpha  occ. eigenvalues --   -0.41685  -0.41309  -0.41149  -0.41065  -0.40801
 Alpha  occ. eigenvalues --   -0.40535  -0.40491  -0.40116  -0.39969  -0.39669
 Alpha  occ. eigenvalues --   -0.39592  -0.39258  -0.39223  -0.39111  -0.38816
 Alpha  occ. eigenvalues --   -0.38619  -0.38348  -0.38186  -0.37864  -0.37775
 Alpha  occ. eigenvalues --   -0.37575  -0.37451  -0.37246  -0.37022  -0.36997
 Alpha  occ. eigenvalues --   -0.36612  -0.36160  -0.36110  -0.35890  -0.35641
 Alpha  occ. eigenvalues --   -0.35429  -0.35262  -0.34879  -0.34871  -0.34799
 Alpha  occ. eigenvalues --   -0.34752  -0.34502  -0.33592  -0.33400  -0.33315
 Alpha  occ. eigenvalues --   -0.33087  -0.32811  -0.32408  -0.32244  -0.31669
 Alpha  occ. eigenvalues --   -0.31317  -0.30846  -0.30238  -0.29845  -0.29218
 Alpha  occ. eigenvalues --   -0.28743  -0.28503  -0.28198  -0.28125  -0.27689
 Alpha  occ. eigenvalues --   -0.27622  -0.27472  -0.23600  -0.21688
 Alpha virt. eigenvalues --   -0.08523  -0.07022  -0.01768  -0.00593   0.00659
 Alpha virt. eigenvalues --    0.01476   0.02897   0.03433   0.04391   0.04640
 Alpha virt. eigenvalues --    0.05043   0.05839   0.07148   0.08031   0.08623

 Mulliken charges:
               1
     1  Mg   0.820510
     2  C    0.149855
     3  C   -0.186904
     4  C   -0.187278
     5  C   -0.165363
     6  N   -0.666194
     7  C    0.363379
     8  C   -0.166869
     9  C   -0.172489
    10  C    0.373430
    11  C   -0.294629
    12  C   -0.176228
    13  C   -0.283345
    14  C    0.611266
    15  O   -0.495089
    16  O   -0.441788
    17  N   -0.708800
    18  C    0.296923
    19  C    0.036133
    20  C   -0.052923
    21  C    0.312163
    22  C   -0.359345
    23  C    0.266445
    24  O   -0.375872
    25  N   -0.696975
    26  C    0.248538
    27  C   -0.046017
    28  C    0.028997
    29  C    0.334728
    30  C    0.229474
    31  C   -0.235772
    32  C   -0.311131
    33  N   -0.716074
    34  C    0.280140
    35  C    0.047732
    36  C    0.021142
    37  C    0.251991
    38  C   -0.374723
    39  C    0.392102
    40  O   -0.466530
    41  C   -0.360204
    42  C    0.624826
    43  O   -0.510000
    44  O   -0.432911
    45  C   -0.083706
    46  C    0.003399
    47  C   -0.122499
    48  C    0.148588
    49  C   -0.368344
    50  C   -0.232063
    51  C   -0.174368
    52  C   -0.164704
    53  C   -0.053524
    54  C   -0.300220
    55  C   -0.173619
    56  C   -0.166333
    57  C   -0.172136
    58  C   -0.063599
    59  C   -0.296877
    60  C   -0.192796
    61  C   -0.180523
    62  C   -0.167168
    63  C   -0.064238
    64  C   -0.289369
    65  C   -0.304596
    66  H    0.075103
    67  H    0.159347
    68  H    0.098583
    69  H    0.096865
    70  H    0.105335
    71  H    0.116794
    72  H    0.118897
    73  H    0.118484
    74  H    0.125483
    75  H    0.125077
    76  H    0.144676
    77  H    0.135864
    78  H    0.132506
    79  H    0.157142
    80  H    0.112510
    81  H    0.066210
    82  H    0.098234
    83  H    0.121168
    84  H    0.111825
    85  H    0.134893
    86  H    0.109431
    87  H    0.155602
    88  H    0.121312
    89  H    0.070476
    90  H    0.168943
    91  H    0.080790
    92  H    0.130245
    93  H    0.073677
    94  H    0.141331
    95  H    0.088336
    96  H    0.099797
    97  H    0.110812
    98  H    0.085556
    99  H    0.085696
   100  H    0.112425
   101  H    0.090001
   102  H    0.075940
   103  H    0.066001
   104  H    0.110329
   105  H    0.086124
   106  H    0.115726
   107  H    0.055519
   108  H    0.078302
   109  H    0.090959
   110  H    0.092825
   111  H    0.088224
   112  H    0.087563
   113  H    0.070259
   114  H    0.107019
   115  H    0.090391
   116  H    0.110975
   117  H    0.082489
   118  H    0.075653
   119  H    0.111678
   120  H    0.103059
   121  H    0.074397
   122  H    0.102821
   123  H    0.072178
   124  H    0.104651
   125  H    0.070604
   126  H    0.089643
   127  H    0.081785
   128  H    0.104073
   129  H    0.107024
   130  H    0.115593
   131  H    0.136257
   132  H    0.137533
   133  O   -0.413534
   134  H    0.050886
 Sum of Mulliken charges =   0.00000

 Dipole moment (field-independent basis, Debye):
    X=              0.8596    Y=             -3.8522    Z=             -0.2835  Tot=              3.9571
 Quadrupole moment (field-independent basis, Debye-Ang):
   XX=           -386.6703   YY=           -435.6009   ZZ=           -388.6430
   XY=             -1.4717   XZ=             22.1675   YZ=            -23.8120

 Normal termination of Gaussian 09 at Thu Oct  3 22:18:09 2019.
