 Gaussian 09, Revision D.01,
 Gaussian 09:  ES64L-G09RevD.01 24-Apr-2013

 ----------------------------------------------------------------------
 # td=(NStates=1) iop(3/107=0140000000,3/108=0140000000) iop(3/107=0140
 000000,3/108=0140000000) CAM-B3LYP/6-31G(d,p)
 ----------------------------------------------------------------------

 --
 TD
 --
 Symbolic Z-matrix:
 Charge =  0 Multiplicity = 1

                         Standard orientation:
 ---------------------------------------------------------------------
 Center     Atomic      Atomic             Coordinates (Angstroms)
 Number     Number       Type             X           Y           Z
 ---------------------------------------------------------------------
      1         12           0       -5.666495    1.227286    0.288828
      2          6           0       -5.087999   -2.147492   -0.301438
      3          6           0       -3.327056    1.132719    2.789166
      4          6           0       -6.222211    4.525008    0.587750
      5          6           0       -7.978488    1.189688   -2.390658
      6          7           0       -4.481256   -0.337227    1.088242
      7          6           0       -4.355674   -1.689155    0.688315
      8          6           0       -3.237957   -2.411343    1.527894
      9          6           0       -2.987821   -1.440011    2.670020
     10          6           0       -3.595657   -0.074918    2.159775
     11          6           0       -3.585794   -1.777304    3.964520
     12          6           0       -1.981111   -2.756016    0.724130
     13          6           0       -0.872023   -3.537811    1.471969
     14          6           0        0.328598   -3.870255    0.626095
     15          8           0        0.524512   -3.506506   -0.491440
     16          8           0        1.131357   -4.709962    1.230439
     17          7           0       -4.927584    2.645535    1.435310
     18          6           0       -3.973236    2.496470    2.391839
     19          6           0       -3.773621    3.735882    3.094401
     20          6           0       -4.527875    4.694261    2.488643
     21          6           0       -5.248785    4.010298    1.453700
     22          6           0       -2.784922    3.983245    4.230169
     23          6           0       -4.583832    6.138547    2.884068
     24          8           0       -3.818928    6.681687    3.657158
     25          7           0       -6.915298    2.629787   -0.767433
     26          6           0       -7.012052    3.933394   -0.403307
     27          6           0       -7.974457    4.689424   -1.210543
     28          6           0       -8.488332    3.562850   -2.044925
     29          6           0       -7.769054    2.461832   -1.779954
     30          6           0       -8.263085    6.006432   -1.279435
     31          6           0       -9.369280    3.811501   -3.144733
     32          6           0       -8.821422    3.611460   -4.608230
     33          7           0       -6.345329   -0.144760   -1.028940
     34          6           0       -7.400809    0.003984   -1.969185
     35          6           0       -7.591872   -1.359770   -2.542288
     36          6           0       -6.789320   -2.146370   -1.932122
     37          6           0       -6.019531   -1.403644   -1.039917
     38          6           0       -8.592091   -1.687503   -3.717042
     39          6           0       -6.267373   -3.604871   -1.960843
     40          8           0       -6.719693   -4.592037   -2.485815
     41          6           0       -5.130335   -3.532474   -0.833592
     42          6           0       -5.368210   -4.656582    0.145274
     43          8           0       -5.702638   -4.487610    1.287411
     44          8           0       -5.029890   -5.842017   -0.307479
     45          6           0       -5.207406   -7.005327    0.408959
     46          6           0        2.433056   -4.966563    0.605032
     47          6           0        3.510645   -4.028377    1.034050
     48          6           0        3.984764   -3.072877    0.129443
     49          6           0        3.546374   -2.846418   -1.242466
     50          6           0        5.122603   -2.231473    0.664315
     51          6           0        6.470762   -2.529716    0.095850
     52          6           0        7.649264   -1.678625    0.602226
     53          6           0        9.029540   -2.017596   -0.081406
     54          6           0        9.481652   -3.381430    0.105717
     55          6           0       10.106175   -1.011292    0.416952
     56          6           0       11.385676   -0.941998   -0.398654
     57          6           0       12.237877    0.217650    0.068641
     58          6           0       13.579787    0.431903   -0.601019
     59          6           0       14.403833   -0.776818   -0.455156
     60          6           0       14.277350    1.758164   -0.172966
     61          6           0       15.462580    2.124317   -0.929243
     62          6           0       16.033472    3.544164   -0.590432
     63          6           0       17.352668    3.786489   -1.275914
     64          6           0       17.212864    3.786040   -2.754078
     65          6           0       18.081418    5.173955   -0.780041
     66          1           0       -2.539100    1.498168    3.533379
     67          1           0       -6.342659    5.583027    0.913769
     68          1           0       -8.733290    1.186595   -3.089145
     69          1           0       -3.589178   -3.349064    1.900397
     70          1           0       -1.710501   -1.150844    2.729753
     71          1           0       -3.286085   -2.802061    4.455332
     72          1           0       -3.296815   -1.034474    4.747150
     73          1           0       -4.729036   -1.847191    3.773612
     74          1           0       -2.115131   -3.483578   -0.098525
     75          1           0       -1.656064   -1.948091    0.081306
     76          1           0       -0.659234   -3.024928    2.419684
     77          1           0       -1.417788   -4.548810    1.534769
     78          1           0       -1.758305    4.159100    3.887850
     79          1           0       -3.048814    4.996838    4.528493
     80          1           0       -3.046895    3.304930    5.096389
     81          1           0       -5.260999    6.703076    2.225327
     82          1           0      -10.228539    2.999645   -2.982499
     83          1           0       -9.921440    4.783550   -3.320139
     84          1           0       -9.495076    3.762943   -5.392259
     85          1           0       -8.044511    4.284154   -4.827222
     86          1           0       -8.329058    2.536794   -4.526401
     87          1           0       -8.331818   -1.158262   -4.788354
     88          1           0       -8.791995   -2.768272   -3.728173
     89          1           0       -9.560451   -1.122905   -3.380340
     90          1           0       -4.218992   -3.804904   -1.569461
     91          1           0        2.675778   -5.894401    0.983050
     92          1           0        2.369277   -5.012769   -0.455866
     93          1           0        3.960049   -4.159456    2.136965
     94          1           0        2.525846   -3.004049   -1.544574
     95          1           0        3.535515   -1.908109   -1.671777
     96          1           0        4.384561   -3.296653   -2.024426
     97          1           0        4.803171   -1.090292    0.242608
     98          1           0        5.277146   -2.348175    1.636511
     99          1           0        6.609125   -3.618516    0.284566
    100          1           0        6.583406   -2.249026   -1.106447
    101          1           0        7.480744   -0.597117    0.345268
    102          1           0        7.725551   -1.791334    1.636222
    103          1           0        8.857717   -2.001035   -1.213943
    104          1           0        8.952466   -4.295459   -0.206390
    105          1           0       10.431379   -3.383978   -0.364150
    106          1           0        9.743622   -3.657423    1.221846
    107          1           0        9.626703   -0.016487    0.649330
    108          1           0       10.283887   -1.242724    1.493661
    109          1           0       12.100028   -1.988563   -0.303528
    110          1           0       10.942629   -0.873660   -1.488130
    111          1           0       11.556801    1.005350   -0.070360
    112          1           0       12.414818    0.033004    1.077414
    113          1           0       13.337544    0.518514   -1.729050
    114          1           0       14.930885   -0.882544    0.479850
    115          1           0       13.867924   -1.801167   -0.671078
    116          1           0       15.258790   -0.940589   -1.260836
    117          1           0       13.445697    2.642359   -0.298632
    118          1           0       14.610705    1.608599    0.972603
    119          1           0       16.382308    1.527285   -0.657552
    120          1           0       15.471907    2.008169   -2.076020
    121          1           0       15.446259    4.323382   -0.876172
    122          1           0       16.053926    3.918244    0.428962
    123          1           0       17.985400    3.018412   -0.931382
    124          1           0       16.459891    4.566704   -2.929855
    125          1           0       18.013098    4.399708   -3.129745
    126          1           0       17.128530    2.840002   -3.509956
    127          1           0       18.082095    5.029218    0.326994
    128          1           0       18.860773    5.786823   -1.357342
    129          1           0       17.209891    5.746699   -0.834653
    130          1           0       -4.857628   -7.868656   -0.025524
    131          1           0       -6.304330   -7.222537    0.667457
    132          1           0       -4.654979   -6.812582    1.328018
    133          8           0       -7.731276    6.857641   -0.559226
    134          1           0       -9.014097    6.385155   -2.039184
 ---------------------------------------------------------------------

 SCF Done:  E(RCAM-B3LYP) =  -3043.47697534     A.U. after   15 cycles

 Excitation energies and oscillator strengths:

 Excited State   1:      Singlet-A      2.1623 eV  573.39 nm  f=0.0975  <S**2>=0.000
     243 -> 245       -0.10884
     243 -> 246        0.32696
     244 -> 245        0.60317
 This state for optimization and/or second-order correction.
 Total Energy, E(TD-HF/TD-KS) =  -3043.39751286
 Copying the excited state density for this state as the 1-particle RhoCI density.

 The electronic state is 1-A.
 Alpha  occ. eigenvalues --  -46.81523 -19.22852 -19.21539 -19.19363 -19.18381
 Alpha  occ. eigenvalues --  -19.16933 -19.16178 -19.14825 -14.38456 -14.37358
 Alpha  occ. eigenvalues --  -14.37069 -14.36878 -10.35460 -10.34120 -10.33445
 Alpha  occ. eigenvalues --  -10.31360 -10.28277 -10.28055 -10.27637 -10.27388
 Alpha  occ. eigenvalues --  -10.27372 -10.27008 -10.26320 -10.26260 -10.26206
 Alpha  occ. eigenvalues --  -10.26146 -10.25988 -10.25468 -10.25288 -10.25201
 Alpha  occ. eigenvalues --  -10.25008 -10.24583 -10.24154 -10.24067 -10.24056
 Alpha  occ. eigenvalues --  -10.24032 -10.24002 -10.23966 -10.23962 -10.23546
 Alpha  occ. eigenvalues --  -10.23208 -10.23042 -10.23026 -10.22942 -10.22879
 Alpha  occ. eigenvalues --  -10.22841 -10.22369 -10.22280 -10.22123 -10.22005
 Alpha  occ. eigenvalues --  -10.22001 -10.21938 -10.21900 -10.21740 -10.21573
 Alpha  occ. eigenvalues --  -10.21399 -10.21367 -10.21143 -10.21112 -10.21073
 Alpha  occ. eigenvalues --  -10.20760 -10.20634 -10.20315 -10.19688 -10.19587
 Alpha  occ. eigenvalues --  -10.19356  -3.10132  -1.85068  -1.84586  -1.84566
 Alpha  occ. eigenvalues --   -1.16023  -1.14362  -1.09202  -1.07931  -1.05952
 Alpha  occ. eigenvalues --   -1.04753  -1.04360  -1.01971  -1.00773  -0.99644
 Alpha  occ. eigenvalues --   -0.97164  -0.89124  -0.86457  -0.86023  -0.85890
 Alpha  occ. eigenvalues --   -0.85454  -0.84925  -0.84702  -0.83911  -0.83863
 Alpha  occ. eigenvalues --   -0.83626  -0.82722  -0.81867  -0.80951  -0.80166
 Alpha  occ. eigenvalues --   -0.79302  -0.78605  -0.78319  -0.77224  -0.76913
 Alpha  occ. eigenvalues --   -0.75917  -0.74444  -0.74027  -0.73967  -0.72557
 Alpha  occ. eigenvalues --   -0.72200  -0.70994  -0.70478  -0.70401  -0.70279
 Alpha  occ. eigenvalues --   -0.69468  -0.68971  -0.67361  -0.66996  -0.66501
 Alpha  occ. eigenvalues --   -0.65816  -0.64454  -0.64221  -0.62320  -0.61809
 Alpha  occ. eigenvalues --   -0.61460  -0.60657  -0.60089  -0.59688  -0.59451
 Alpha  occ. eigenvalues --   -0.58707  -0.58143  -0.57864  -0.57577  -0.57053
 Alpha  occ. eigenvalues --   -0.56794  -0.56506  -0.56201  -0.55438  -0.54943
 Alpha  occ. eigenvalues --   -0.54522  -0.53694  -0.53144  -0.52735  -0.52457
 Alpha  occ. eigenvalues --   -0.52214  -0.51743  -0.51519  -0.51295  -0.50964
 Alpha  occ. eigenvalues --   -0.50696  -0.49869  -0.49595  -0.49274  -0.49148
 Alpha  occ. eigenvalues --   -0.48969  -0.48363  -0.48245  -0.48171  -0.48109
 Alpha  occ. eigenvalues --   -0.47798  -0.47728  -0.47466  -0.47402  -0.47311
 Alpha  occ. eigenvalues --   -0.46839  -0.46594  -0.46404  -0.46310  -0.46131
 Alpha  occ. eigenvalues --   -0.45663  -0.45367  -0.45308  -0.45195  -0.44867
 Alpha  occ. eigenvalues --   -0.44636  -0.44523  -0.44052  -0.43979  -0.43634
 Alpha  occ. eigenvalues --   -0.43587  -0.43376  -0.43144  -0.43095  -0.42939
 Alpha  occ. eigenvalues --   -0.42680  -0.42508  -0.42306  -0.42067  -0.41940
 Alpha  occ. eigenvalues --   -0.41867  -0.41635  -0.41192  -0.41157  -0.40992
 Alpha  occ. eigenvalues --   -0.40922  -0.40441  -0.40272  -0.40046  -0.39997
 Alpha  occ. eigenvalues --   -0.39862  -0.39729  -0.39248  -0.39135  -0.38917
 Alpha  occ. eigenvalues --   -0.38707  -0.38362  -0.38256  -0.37894  -0.37762
 Alpha  occ. eigenvalues --   -0.37532  -0.37355  -0.37154  -0.37008  -0.36388
 Alpha  occ. eigenvalues --   -0.36373  -0.36267  -0.35795  -0.35720  -0.35349
 Alpha  occ. eigenvalues --   -0.35266  -0.35018  -0.34872  -0.34664  -0.34091
 Alpha  occ. eigenvalues --   -0.33705  -0.33498  -0.33472  -0.33300  -0.33129
 Alpha  occ. eigenvalues --   -0.32982  -0.32861  -0.32536  -0.31895  -0.31743
 Alpha  occ. eigenvalues --   -0.31370  -0.31110  -0.31100  -0.30595  -0.30218
 Alpha  occ. eigenvalues --   -0.30056  -0.28979  -0.28697  -0.28336  -0.26728
 Alpha  occ. eigenvalues --   -0.26673  -0.26476  -0.23164  -0.22517
 Alpha virt. eigenvalues --   -0.08503  -0.07105  -0.01328  -0.01175   0.00656
 Alpha virt. eigenvalues --    0.02221   0.03157   0.03520   0.04521   0.04848
 Alpha virt. eigenvalues --    0.05241   0.05475   0.08274   0.08388   0.08931

 Mulliken charges:
               1
     1  Mg   0.831783
     2  C    0.116790
     3  C   -0.185073
     4  C   -0.152466
     5  C   -0.142481
     6  N   -0.653502
     7  C    0.306024
     8  C   -0.115291
     9  C   -0.120002
    10  C    0.330495
    11  C   -0.295015
    12  C   -0.192175
    13  C   -0.269034
    14  C    0.600146
    15  O   -0.468251
    16  O   -0.454461
    17  N   -0.710898
    18  C    0.280675
    19  C   -0.000261
    20  C    0.005430
    21  C    0.263598
    22  C   -0.401736
    23  C    0.262886
    24  O   -0.404173
    25  N   -0.682534
    26  C    0.277404
    27  C    0.072508
    28  C    0.022668
    29  C    0.329380
    30  C    0.175836
    31  C   -0.276117
    32  C   -0.306769
    33  N   -0.737785
    34  C    0.254677
    35  C   -0.030737
    36  C    0.062941
    37  C    0.326079
    38  C   -0.366496
    39  C    0.387773
    40  O   -0.422275
    41  C   -0.365687
    42  C    0.627127
    43  O   -0.472672
    44  O   -0.414955
    45  C   -0.082154
    46  C    0.011189
    47  C   -0.164049
    48  C    0.168357
    49  C   -0.396186
    50  C   -0.191106
    51  C   -0.163885
    52  C   -0.169803
    53  C   -0.053566
    54  C   -0.297648
    55  C   -0.178774
    56  C   -0.166455
    57  C   -0.154499
    58  C   -0.043892
    59  C   -0.316733
    60  C   -0.150231
    61  C   -0.165491
    62  C   -0.179250
    63  C   -0.072395
    64  C   -0.300068
    65  C   -0.349419
    66  H    0.102715
    67  H    0.123082
    68  H    0.090458
    69  H    0.120115
    70  H    0.063725
    71  H    0.098899
    72  H    0.117193
    73  H    0.120476
    74  H    0.101756
    75  H    0.119906
    76  H    0.134251
    77  H    0.131527
    78  H    0.137439
    79  H    0.162157
    80  H    0.116369
    81  H    0.095766
    82  H    0.087660
    83  H    0.115134
    84  H    0.119911
    85  H    0.125606
    86  H    0.081133
    87  H    0.120588
    88  H    0.150230
    89  H    0.113179
    90  H    0.155333
    91  H    0.111255
    92  H    0.137213
    93  H    0.083320
    94  H    0.159274
    95  H    0.126300
    96  H    0.096672
    97  H    0.064197
    98  H    0.100516
    99  H    0.092596
   100  H    0.058077
   101  H    0.086880
   102  H    0.090556
   103  H    0.072492
   104  H    0.102688
   105  H    0.108882
   106  H    0.068917
   107  H    0.083780
   108  H    0.088814
   109  H    0.066512
   110  H    0.079983
   111  H    0.096082
   112  H    0.097836
   113  H    0.073094
   114  H    0.106431
   115  H    0.092516
   116  H    0.085197
   117  H    0.071526
   118  H    0.075093
   119  H    0.094689
   120  H    0.096233
   121  H    0.092669
   122  H    0.079166
   123  H    0.093948
   124  H    0.094860
   125  H    0.100895
   126  H    0.091604
   127  H    0.103882
   128  H    0.111123
   129  H    0.112953
   130  H    0.134885
   131  H    0.117075
   132  H    0.117516
   133  O   -0.453958
   134  H    0.053840
 Sum of Mulliken charges =   0.00000

 Dipole moment (field-independent basis, Debye):
    X=              1.9469    Y=             -5.2362    Z=             -1.2741  Tot=              5.7299
 Quadrupole moment (field-independent basis, Debye-Ang):
   XX=           -380.7215   YY=           -434.9954   ZZ=           -391.1768
   XY=             20.2580   XZ=             22.5305   YZ=            -24.8488

 Normal termination of Gaussian 09 at Thu Oct  3 13:47:17 2019.
