 Gaussian 09, Revision D.01,
 Gaussian 09:  ES64L-G09RevD.01 24-Apr-2013

 ----------------------------------------------------------------------
 # td=(NStates=1) iop(3/107=0140000000,3/108=0140000000) iop(3/107=0140
 000000,3/108=0140000000) CAM-B3LYP/6-31G(d,p)
 ----------------------------------------------------------------------

 --
 TD
 --
 Symbolic Z-matrix:
 Charge =  0 Multiplicity = 1

                         Standard orientation:
 ---------------------------------------------------------------------
 Center     Atomic      Atomic             Coordinates (Angstroms)
 Number     Number       Type             X           Y           Z
 ---------------------------------------------------------------------
      1         12           0       -5.602920    1.240658    0.246869
      2          6           0       -5.029704   -2.052832   -0.334218
      3          6           0       -3.354545    1.157424    2.700737
      4          6           0       -6.163587    4.650293    0.697733
      5          6           0       -8.021349    1.253583   -2.330184
      6          7           0       -4.275442   -0.287298    1.099055
      7          6           0       -4.209449   -1.571872    0.658260
      8          6           0       -3.175830   -2.402418    1.581455
      9          6           0       -2.806565   -1.346155    2.680851
     10          6           0       -3.522611   -0.128557    2.146033
     11          6           0       -3.236853   -1.868017    4.073948
     12          6           0       -1.956075   -2.702356    0.604418
     13          6           0       -1.052961   -3.738356    1.321026
     14          6           0        0.243245   -3.964557    0.545034
     15          8           0        0.459759   -3.602443   -0.553759
     16          8           0        1.013830   -4.770779    1.232547
     17          7           0       -4.808658    2.647147    1.451273
     18          6           0       -3.973772    2.346059    2.441070
     19          6           0       -3.687144    3.601791    3.142288
     20          6           0       -4.551428    4.621551    2.587442
     21          6           0       -5.226685    3.962990    1.466612
     22          6           0       -2.653506    3.801085    4.270623
     23          6           0       -4.559805    6.064268    2.872959
     24          8           0       -3.979953    6.607083    3.828447
     25          7           0       -6.829454    2.663378   -0.708488
     26          6           0       -6.894831    4.032543   -0.290243
     27          6           0       -7.832092    4.708934   -1.292805
     28          6           0       -8.333993    3.744883   -2.056736
     29          6           0       -7.682019    2.442837   -1.712777
     30          6           0       -8.194091    6.093362   -1.248687
     31          6           0       -9.311454    3.740068   -3.129496
     32          6           0       -8.581641    3.848326   -4.563126
     33          7           0       -6.365132   -0.074142   -1.053740
     34          6           0       -7.335331    0.028964   -2.088156
     35          6           0       -7.598876   -1.239781   -2.607814
     36          6           0       -6.659066   -2.093593   -2.042101
     37          6           0       -5.932925   -1.410627   -1.092752
     38          6           0       -8.611927   -1.650809   -3.635102
     39          6           0       -6.125715   -3.495233   -2.067709
     40          8           0       -6.581928   -4.515860   -2.601089
     41          6           0       -5.072895   -3.456846   -0.982892
     42          6           0       -5.348141   -4.597884    0.137198
     43          8           0       -5.767888   -4.461471    1.264097
     44          8           0       -5.143933   -5.802382   -0.382491
     45          6           0       -5.509746   -6.901201    0.534370
     46          6           0        2.248595   -5.154782    0.609697
     47          6           0        3.362993   -4.137054    1.014937
     48          6           0        3.913120   -3.301109    0.111973
     49          6           0        3.626230   -3.253872   -1.301572
     50          6           0        5.098824   -2.354093    0.622352
     51          6           0        6.495654   -2.602108   -0.025792
     52          6           0        7.585267   -1.699534    0.667310
     53          6           0        9.036472   -1.913185   -0.095434
     54          6           0        9.506033   -3.389256    0.156094
     55          6           0        9.988994   -0.875694    0.465968
     56          6           0       11.220709   -0.824609   -0.354665
     57          6           0       12.175706    0.223394    0.166980
     58          6           0       13.529932    0.528023   -0.597079
     59          6           0       14.430550   -0.657488   -0.174563
     60          6           0       14.109986    1.845273   -0.147038
     61          6           0       15.340902    2.125684   -1.005386
     62          6           0       15.865802    3.541949   -0.712414
     63          6           0       17.232257    3.849968   -1.376795
     64          6           0       17.135021    3.957663   -2.931211
     65          6           0       17.941712    5.115383   -0.696158
     66          1           0       -2.662203    1.129667    3.553143
     67          1           0       -6.322626    5.848060    0.739330
     68          1           0       -8.713151    1.281803   -3.311667
     69          1           0       -3.653832   -3.296543    2.013083
     70          1           0       -1.793254   -1.176167    2.386589
     71          1           0       -2.830354   -2.792596    4.151799
     72          1           0       -3.021962   -1.171213    4.826333
     73          1           0       -4.407501   -1.976443    4.084621
     74          1           0       -2.295449   -3.218043   -0.317871
     75          1           0       -1.442992   -1.777749    0.290485
     76          1           0       -0.662634   -3.348758    2.139660
     77          1           0       -1.542506   -4.693963    1.337467
     78          1           0       -1.669389    3.557054    3.994477
     79          1           0       -2.787887    4.977223    4.555060
     80          1           0       -3.101696    3.218644    5.241296
     81          1           0       -5.448902    6.615715    2.166599
     82          1           0       -9.985620    2.878451   -3.166437
     83          1           0       -9.975995    4.780376   -3.086154
     84          1           0       -9.274757    3.987720   -5.423382
     85          1           0       -7.972627    4.704395   -4.441639
     86          1           0       -8.124856    2.863061   -4.669466
     87          1           0       -8.374119   -1.188330   -4.619718
     88          1           0       -8.608979   -2.662345   -3.967384
     89          1           0       -9.760834   -1.376646   -3.353917
     90          1           0       -4.114652   -3.705835   -1.343755
     91          1           0        2.669165   -6.093086    1.095786
     92          1           0        2.048055   -5.432188   -0.392251
     93          1           0        3.576482   -4.367822    1.965517
     94          1           0        2.679478   -3.574105   -1.524373
     95          1           0        3.695201   -2.285389   -1.675225
     96          1           0        4.287228   -3.858055   -1.962165
     97          1           0        4.822542   -1.364991    0.377035
     98          1           0        5.167430   -2.463666    1.750441
     99          1           0        6.604947   -3.662750    0.273202
    100          1           0        6.493323   -2.570245   -1.146773
    101          1           0        7.262281   -0.680655    0.588504
    102          1           0        7.778468   -1.937696    1.679265
    103          1           0        8.865706   -1.798165   -1.087795
    104          1           0        8.864068   -4.176677   -0.039473
    105          1           0       10.607597   -3.539475   -0.241749
    106          1           0        9.632323   -3.465891    1.153771
    107          1           0        9.575614    0.385088    0.402671
    108          1           0       10.145350   -1.022283    1.483671
    109          1           0       11.700587   -1.839860   -0.489303
    110          1           0       10.974268   -0.651466   -1.379372
    111          1           0       11.521760    1.197276    0.061917
    112          1           0       12.378432   -0.318890    1.247986
    113          1           0       13.374536    0.375218   -1.610182
    114          1           0       14.862403   -0.593266    0.925556
    115          1           0       14.034632   -1.623530   -0.368015
    116          1           0       15.306925   -0.727739   -0.784853
    117          1           0       13.386337    2.640682   -0.430242
    118          1           0       14.276445    1.824882    0.904596
    119          1           0       16.162636    1.421712   -0.930483
    120          1           0       15.010747    2.046421   -2.111209
    121          1           0       15.243207    4.288772   -1.104689
    122          1           0       15.925961    3.724891    0.563861
    123          1           0       17.872240    2.855986   -1.189848
    124          1           0       16.349123    4.743854   -3.204198
    125          1           0       18.202534    4.047725   -3.333656
    126          1           0       16.658666    3.000459   -3.325586
    127          1           0       18.095530    4.866162    0.239553
    128          1           0       19.029176    5.049235   -1.085698
    129          1           0       17.405513    6.103538   -0.764358
    130          1           0       -5.213227   -7.866278   -0.267207
    131          1           0       -6.616474   -7.008211    0.509197
    132          1           0       -5.165292   -6.823870    1.481324
    133          8           0       -7.757892    6.870622   -0.397106
    134          1           0       -9.041628    6.572635   -1.944781
 ---------------------------------------------------------------------

 SCF Done:  E(RCAM-B3LYP) =  -3043.52031252     A.U. after   16 cycles

 Excitation energies and oscillator strengths:

 Excited State   1:      Singlet-A      2.0279 eV  611.40 nm  f=0.2218  <S**2>=0.000
     243 -> 246        0.24567
     244 -> 245        0.64800
 This state for optimization and/or second-order correction.
 Total Energy, E(TD-HF/TD-KS) =  -3043.44578955
 Copying the excited state density for this state as the 1-particle RhoCI density.

 The electronic state is 1-A.
 Alpha  occ. eigenvalues --  -46.81293 -19.23029 -19.22358 -19.17599 -19.17528
 Alpha  occ. eigenvalues --  -19.17427 -19.17005 -19.16743 -14.39311 -14.37108
 Alpha  occ. eigenvalues --  -14.36750 -14.35821 -10.35499 -10.33996 -10.31481
 Alpha  occ. eigenvalues --  -10.31378 -10.31375 -10.28784 -10.27520 -10.27428
 Alpha  occ. eigenvalues --  -10.27347 -10.27182 -10.26797 -10.26313 -10.26151
 Alpha  occ. eigenvalues --  -10.25949 -10.25259 -10.25079 -10.25066 -10.24757
 Alpha  occ. eigenvalues --  -10.24559 -10.24501 -10.24479 -10.24431 -10.24156
 Alpha  occ. eigenvalues --  -10.23801 -10.23748 -10.23688 -10.23391 -10.23254
 Alpha  occ. eigenvalues --  -10.23051 -10.23026 -10.23009 -10.22957 -10.22753
 Alpha  occ. eigenvalues --  -10.22687 -10.22431 -10.22336 -10.21924 -10.21768
 Alpha  occ. eigenvalues --  -10.21727 -10.21664 -10.21618 -10.21564 -10.21480
 Alpha  occ. eigenvalues --  -10.21366 -10.21057 -10.21038 -10.20938 -10.20887
 Alpha  occ. eigenvalues --  -10.20394 -10.20032 -10.19871 -10.19858 -10.19739
 Alpha  occ. eigenvalues --  -10.19302  -3.09856  -1.84798  -1.84345  -1.84238
 Alpha  occ. eigenvalues --   -1.15480  -1.14331  -1.06682  -1.06304  -1.05631
 Alpha  occ. eigenvalues --   -1.05275  -1.04753  -1.01908  -0.99851  -0.98986
 Alpha  occ. eigenvalues --   -0.98002  -0.89233  -0.86190  -0.85751  -0.85678
 Alpha  occ. eigenvalues --   -0.85170  -0.84811  -0.84207  -0.83738  -0.82554
 Alpha  occ. eigenvalues --   -0.82365  -0.82009  -0.81451  -0.80283  -0.79823
 Alpha  occ. eigenvalues --   -0.78721  -0.78177  -0.77485  -0.77003  -0.76719
 Alpha  occ. eigenvalues --   -0.75401  -0.74484  -0.74244  -0.72955  -0.71742
 Alpha  occ. eigenvalues --   -0.71602  -0.70963  -0.70454  -0.70129  -0.69826
 Alpha  occ. eigenvalues --   -0.69343  -0.68784  -0.67637  -0.66567  -0.65648
 Alpha  occ. eigenvalues --   -0.65544  -0.64374  -0.63930  -0.62793  -0.62296
 Alpha  occ. eigenvalues --   -0.61936  -0.60777  -0.60741  -0.60232  -0.59060
 Alpha  occ. eigenvalues --   -0.59001  -0.58716  -0.58041  -0.56936  -0.56851
 Alpha  occ. eigenvalues --   -0.56784  -0.55909  -0.55566  -0.54782  -0.54704
 Alpha  occ. eigenvalues --   -0.54319  -0.53894  -0.53538  -0.52256  -0.52176
 Alpha  occ. eigenvalues --   -0.51820  -0.51551  -0.51257  -0.50927  -0.50582
 Alpha  occ. eigenvalues --   -0.50315  -0.50140  -0.50035  -0.49650  -0.49364
 Alpha  occ. eigenvalues --   -0.48975  -0.48428  -0.48298  -0.48067  -0.47750
 Alpha  occ. eigenvalues --   -0.47437  -0.47298  -0.47205  -0.46933  -0.46610
 Alpha  occ. eigenvalues --   -0.46326  -0.46000  -0.45851  -0.45807  -0.45660
 Alpha  occ. eigenvalues --   -0.45472  -0.45305  -0.44933  -0.44702  -0.44515
 Alpha  occ. eigenvalues --   -0.44209  -0.43943  -0.43869  -0.43662  -0.43621
 Alpha  occ. eigenvalues --   -0.43557  -0.43322  -0.42825  -0.42711  -0.42521
 Alpha  occ. eigenvalues --   -0.42425  -0.42320  -0.42123  -0.41889  -0.41868
 Alpha  occ. eigenvalues --   -0.41646  -0.41601  -0.41205  -0.40978  -0.40922
 Alpha  occ. eigenvalues --   -0.40760  -0.40623  -0.40508  -0.40356  -0.40163
 Alpha  occ. eigenvalues --   -0.40085  -0.39975  -0.39759  -0.39434  -0.39319
 Alpha  occ. eigenvalues --   -0.39167  -0.38995  -0.38478  -0.38405  -0.38186
 Alpha  occ. eigenvalues --   -0.38038  -0.37953  -0.37814  -0.37586  -0.37213
 Alpha  occ. eigenvalues --   -0.37131  -0.36833  -0.36683  -0.36236  -0.36141
 Alpha  occ. eigenvalues --   -0.35911  -0.35541  -0.35444  -0.34729  -0.34126
 Alpha  occ. eigenvalues --   -0.33945  -0.33848  -0.33723  -0.33536  -0.33448
 Alpha  occ. eigenvalues --   -0.33011  -0.32673  -0.32334  -0.32040  -0.31265
 Alpha  occ. eigenvalues --   -0.31245  -0.31030  -0.30479  -0.30215  -0.29718
 Alpha  occ. eigenvalues --   -0.28972  -0.28283  -0.27927  -0.27457  -0.27259
 Alpha  occ. eigenvalues --   -0.27237  -0.27144  -0.23111  -0.21500
 Alpha virt. eigenvalues --   -0.08730  -0.06169  -0.02153  -0.01443   0.00498
 Alpha virt. eigenvalues --    0.03445   0.03893   0.03966   0.04546   0.05213
 Alpha virt. eigenvalues --    0.05524   0.05808   0.08051   0.08650   0.09077

 Mulliken charges:
               1
     1  Mg   0.818891
     2  C    0.113883
     3  C   -0.192765
     4  C   -0.187221
     5  C   -0.174204
     6  N   -0.589816
     7  C    0.254350
     8  C   -0.165066
     9  C   -0.127721
    10  C    0.332324
    11  C   -0.309527
    12  C   -0.195936
    13  C   -0.248265
    14  C    0.567471
    15  O   -0.453185
    16  O   -0.438814
    17  N   -0.750857
    18  C    0.379878
    19  C    0.013350
    20  C   -0.033576
    21  C    0.335586
    22  C   -0.389439
    23  C    0.246096
    24  O   -0.423882
    25  N   -0.704903
    26  C    0.275683
    27  C   -0.006635
    28  C    0.077711
    29  C    0.354224
    30  C    0.225291
    31  C   -0.296996
    32  C   -0.303814
    33  N   -0.745940
    34  C    0.267341
    35  C    0.024474
    36  C    0.024313
    37  C    0.270014
    38  C   -0.392380
    39  C    0.381331
    40  O   -0.462667
    41  C   -0.331973
    42  C    0.600450
    43  O   -0.473648
    44  O   -0.422315
    45  C   -0.090894
    46  C   -0.019004
    47  C   -0.136609
    48  C    0.140387
    49  C   -0.382913
    50  C   -0.235054
    51  C   -0.184277
    52  C   -0.177879
    53  C   -0.067594
    54  C   -0.323054
    55  C   -0.126952
    56  C   -0.185637
    57  C   -0.150829
    58  C   -0.054620
    59  C   -0.322699
    60  C   -0.147733
    61  C   -0.180874
    62  C   -0.142570
    63  C   -0.060146
    64  C   -0.301433
    65  C   -0.308236
    66  H    0.080141
    67  H    0.165091
    68  H    0.094671
    69  H    0.125161
    70  H    0.122470
    71  H    0.131892
    72  H    0.123059
    73  H    0.117523
    74  H    0.115028
    75  H    0.121920
    76  H    0.134611
    77  H    0.143250
    78  H    0.132899
    79  H    0.155771
    80  H    0.104872
    81  H    0.056795
    82  H    0.124162
    83  H    0.081725
    84  H    0.111496
    85  H    0.125162
    86  H    0.113853
    87  H    0.120899
    88  H    0.153058
    89  H    0.104657
    90  H    0.159094
    91  H    0.101418
    92  H    0.125107
    93  H    0.090817
    94  H    0.149648
    95  H    0.116177
    96  H    0.113392
    97  H    0.103168
    98  H    0.088061
    99  H    0.095443
   100  H    0.094506
   101  H    0.097118
   102  H    0.096292
   103  H    0.092474
   104  H    0.114380
   105  H    0.083898
   106  H    0.112426
   107  H    0.032974
   108  H    0.096964
   109  H    0.080804
   110  H    0.091857
   111  H    0.066090
   112  H    0.067827
   113  H    0.088620
   114  H    0.084613
   115  H    0.104142
   116  H    0.095451
   117  H    0.089288
   118  H    0.102154
   119  H    0.100929
   120  H    0.080842
   121  H    0.096290
   122  H    0.043157
   123  H    0.058156
   124  H    0.094417
   125  H    0.102945
   126  H    0.094911
   127  H    0.121564
   128  H    0.084614
   129  H    0.102451
   130  H    0.103558
   131  H    0.142997
   132  H    0.150702
   133  O   -0.420155
   134  H    0.065759
 Sum of Mulliken charges =   0.00000

 Dipole moment (field-independent basis, Debye):
    X=              2.5257    Y=             -5.8681    Z=             -1.2538  Tot=              6.5105
 Quadrupole moment (field-independent basis, Debye-Ang):
   XX=           -386.3738   YY=           -436.6674   ZZ=           -394.0527
   XY=              2.3512   XZ=             19.9854   YZ=            -40.2042

 Normal termination of Gaussian 09 at Mon Oct  7 23:18:10 2019.
