 Gaussian 09, Revision D.01,
 Gaussian 09:  ES64L-G09RevD.01 24-Apr-2013

 ----------------------------------------------------------------------
 # td=(NStates=1) iop(3/107=0140000000,3/108=0140000000) iop(3/107=0140
 000000,3/108=0140000000) CAM-B3LYP/6-31G(d,p)
 ----------------------------------------------------------------------

 --
 TD
 --
 Symbolic Z-matrix:
 Charge =  0 Multiplicity = 1

                         Standard orientation:
 ---------------------------------------------------------------------
 Center     Atomic      Atomic             Coordinates (Angstroms)
 Number     Number       Type             X           Y           Z
 ---------------------------------------------------------------------
      1         12           0       -5.599360    1.233888    0.161090
      2          6           0       -4.984329   -2.133774   -0.324036
      3          6           0       -3.249614    1.269250    2.684480
      4          6           0       -6.200240    4.532594    0.492485
      5          6           0       -8.030893    1.125774   -2.334300
      6          7           0       -4.422360   -0.281124    1.144793
      7          6           0       -4.303517   -1.530083    0.741366
      8          6           0       -3.173210   -2.260259    1.538756
      9          6           0       -2.901761   -1.196351    2.622907
     10          6           0       -3.511324    0.066859    2.084580
     11          6           0       -3.350841   -1.659556    4.028873
     12          6           0       -1.973980   -2.595571    0.603863
     13          6           0       -1.024615   -3.522132    1.345953
     14          6           0        0.217640   -3.873839    0.571137
     15          8           0        0.544969   -3.580356   -0.583155
     16          8           0        1.057054   -4.669789    1.312185
     17          7           0       -4.851156    2.752982    1.305457
     18          6           0       -3.969478    2.514192    2.351070
     19          6           0       -3.772780    3.817243    3.102491
     20          6           0       -4.488184    4.745707    2.375602
     21          6           0       -5.243853    3.985477    1.383095
     22          6           0       -2.820470    3.957378    4.342209
     23          6           0       -4.618531    6.256754    2.659210
     24          8           0       -4.038824    6.681695    3.625073
     25          7           0       -6.957119    2.559591   -0.681282
     26          6           0       -6.952975    3.908083   -0.430109
     27          6           0       -7.958288    4.558083   -1.190316
     28          6           0       -8.454722    3.592319   -2.033538
     29          6           0       -7.792019    2.367601   -1.743333
     30          6           0       -8.399705    5.946635   -1.184660
     31          6           0       -9.454165    3.668822   -3.107032
     32          6           0       -8.856791    3.747707   -4.504320
     33          7           0       -6.303332   -0.121640   -1.076533
     34          6           0       -7.375686   -0.068863   -2.020980
     35          6           0       -7.560419   -1.381698   -2.673702
     36          6           0       -6.654837   -2.193215   -2.068454
     37          6           0       -5.935455   -1.426882   -1.015617
     38          6           0       -8.642124   -1.750391   -3.650761
     39          6           0       -6.268860   -3.552559   -1.921268
     40          8           0       -6.567971   -4.525146   -2.575406
     41          6           0       -5.099207   -3.572107   -0.782328
     42          6           0       -5.428017   -4.605133    0.228798
     43          8           0       -5.864083   -4.426581    1.321825
     44          8           0       -5.206046   -5.913236   -0.234128
     45          6           0       -5.419423   -6.936804    0.735288
     46          6           0        2.368327   -5.022210    0.672695
     47          6           0        3.385422   -4.099060    0.928568
     48          6           0        4.103366   -3.294180    0.159133
     49          6           0        3.705203   -3.201176   -1.255300
     50          6           0        5.315076   -2.538324    0.689785
     51          6           0        6.613108   -2.843766    0.001450
     52          6           0        7.663675   -1.842255    0.562683
     53          6           0        9.024041   -1.962404   -0.173389
     54          6           0        9.694057   -3.386189    0.187699
     55          6           0       10.030286   -0.881344    0.223439
     56          6           0       11.318249   -0.957126   -0.374828
     57          6           0       12.212421    0.234862    0.148192
     58          6           0       13.526344    0.508935   -0.567513
     59          6           0       14.432907   -0.728865   -0.357610
     60          6           0       14.167016    1.720665   -0.115822
     61          6           0       15.447697    2.190361   -0.885428
     62          6           0       15.999735    3.562289   -0.541796
     63          6           0       17.425202    3.882111   -1.300551
     64          6           0       17.228908    3.968799   -2.849999
     65          6           0       18.007417    5.270272   -0.816817
     66          1           0       -2.419651    1.422883    3.467999
     67          1           0       -6.308711    5.701519    0.587272
     68          1           0       -8.706975    1.140926   -3.197999
     69          1           0       -3.431929   -3.262372    1.929058
     70          1           0       -1.842600   -1.090419    2.711190
     71          1           0       -2.731583   -2.492330    4.354681
     72          1           0       -3.138025   -0.777256    4.728030
     73          1           0       -4.414997   -1.948121    4.096213
     74          1           0       -2.546237   -3.408424   -0.109687
     75          1           0       -1.415430   -1.735076    0.355664
     76          1           0       -0.492273   -3.047975    2.323421
     77          1           0       -1.427915   -4.402803    1.782471
     78          1           0       -1.676005    3.738162    3.965822
     79          1           0       -2.944787    5.104596    4.749875
     80          1           0       -3.269860    3.113794    5.041369
     81          1           0       -5.377935    6.950223    2.072183
     82          1           0      -10.064018    2.649730   -3.070979
     83          1           0      -10.044696    4.602541   -2.877545
     84          1           0       -9.563688    3.845508   -5.347828
     85          1           0       -8.236693    4.591747   -4.866746
     86          1           0       -8.311711    2.775599   -4.656368
     87          1           0       -8.274620   -1.322097   -4.731866
     88          1           0       -8.607370   -2.798401   -3.912908
     89          1           0       -9.545903   -1.465933   -3.475215
     90          1           0       -4.133339   -3.942533   -1.394610
     91          1           0        2.689810   -6.122214    0.895272
     92          1           0        2.075050   -5.156963   -0.501357
     93          1           0        3.742550   -4.072096    1.856682
     94          1           0        2.803261   -3.654646   -1.710187
     95          1           0        3.819602   -2.210984   -1.646817
     96          1           0        4.536929   -3.841829   -1.741092
     97          1           0        5.015925   -1.586479    0.248041
     98          1           0        5.555483   -2.516835    1.778460
     99          1           0        6.712337   -3.776447    0.378640
    100          1           0        6.476043   -2.580547   -1.084943
    101          1           0        7.310564   -0.767416    0.567304
    102          1           0        7.974044   -2.258560    1.599386
    103          1           0        8.937303   -1.946510   -1.266826
    104          1           0        9.038226   -4.270417   -0.202063
    105          1           0       10.484244   -3.659932   -0.297758
    106          1           0        9.668524   -3.308078    1.305712
    107          1           0        9.551168    0.039794    0.061627
    108          1           0        9.986615   -1.032809    1.353747
    109          1           0       11.817550   -1.918769   -0.075191
    110          1           0       11.202225   -1.052230   -1.465615
    111          1           0       11.677009    1.137811    0.167156
    112          1           0       12.353890   -0.115603    1.172326
    113          1           0       13.151504    0.488642   -1.606970
    114          1           0       14.441980   -1.047341    0.923605
    115          1           0       13.930857   -1.613307   -0.797883
    116          1           0       15.515651   -0.378212   -0.814780
    117          1           0       13.468186    2.362819   -0.322121
    118          1           0       14.528525    1.922154    0.974938
    119          1           0       16.217786    1.452444   -0.773368
    120          1           0       15.273241    2.027402   -1.998586
    121          1           0       15.258377    4.334258   -0.796251
    122          1           0       16.315812    3.613557    0.515564
    123          1           0       18.241421    3.217772   -0.886127
    124          1           0       16.475372    4.704916   -3.103531
    125          1           0       18.271271    4.300056   -3.207018
    126          1           0       17.045548    2.939236   -3.397323
    127          1           0       18.249818    5.093309    0.201426
    128          1           0       18.908750    5.889446   -1.314569
    129          1           0       17.512933    6.371735   -0.859136
    130          1           0       -5.288167   -8.021498    0.294213
    131          1           0       -6.345807   -6.716307    1.185137
    132          1           0       -4.814360   -6.833423    1.541017
    133          8           0       -8.008924    6.819441   -0.384256
    134          1           0       -9.354118    6.061129   -1.763448
 ---------------------------------------------------------------------

 SCF Done:  E(RCAM-B3LYP) =  -3043.48229449     A.U. after   16 cycles

 Excitation energies and oscillator strengths:

 Excited State   1:      Singlet-A      2.0538 eV  603.68 nm  f=0.2110  <S**2>=0.000
     243 -> 246       -0.25268
     244 -> 245        0.65221
 This state for optimization and/or second-order correction.
 Total Energy, E(TD-HF/TD-KS) =  -3043.40681870
 Copying the excited state density for this state as the 1-particle RhoCI density.

 The electronic state is 1-A.
 Alpha  occ. eigenvalues --  -46.81522 -19.21098 -19.20823 -19.17842 -19.17667
 Alpha  occ. eigenvalues --  -19.17565 -19.17550 -19.16349 -14.39265 -14.37333
 Alpha  occ. eigenvalues --  -14.37160 -14.36696 -10.35080 -10.34623 -10.31821
 Alpha  occ. eigenvalues --  -10.31699 -10.30932 -10.28179 -10.27719 -10.27592
 Alpha  occ. eigenvalues --  -10.27356 -10.27327 -10.26396 -10.26304 -10.26261
 Alpha  occ. eigenvalues --  -10.25835 -10.25742 -10.25648 -10.25324 -10.25239
 Alpha  occ. eigenvalues --  -10.24798 -10.24795 -10.24766 -10.24590 -10.24557
 Alpha  occ. eigenvalues --  -10.24511 -10.23982 -10.23907 -10.23838 -10.23832
 Alpha  occ. eigenvalues --  -10.23554 -10.23290 -10.23270 -10.23106 -10.22796
 Alpha  occ. eigenvalues --  -10.22706 -10.22630 -10.22617 -10.22606 -10.22573
 Alpha  occ. eigenvalues --  -10.22471 -10.21731 -10.21673 -10.21649 -10.21617
 Alpha  occ. eigenvalues --  -10.21467 -10.21050 -10.20947 -10.20717 -10.20677
 Alpha  occ. eigenvalues --  -10.20651 -10.20136 -10.19935 -10.19758 -10.19646
 Alpha  occ. eigenvalues --  -10.18348  -3.10190  -1.85123  -1.84641  -1.84626
 Alpha  occ. eigenvalues --   -1.12993  -1.10922  -1.08180  -1.07717  -1.05530
 Alpha  occ. eigenvalues --   -1.04743  -1.02038  -1.01832  -1.00957  -1.00127
 Alpha  occ. eigenvalues --   -0.98888  -0.88772  -0.87211  -0.86457  -0.86159
 Alpha  occ. eigenvalues --   -0.86023  -0.84932  -0.84789  -0.84316  -0.83838
 Alpha  occ. eigenvalues --   -0.82483  -0.82064  -0.81744  -0.81184  -0.79938
 Alpha  occ. eigenvalues --   -0.79167  -0.78435  -0.77624  -0.77278  -0.76611
 Alpha  occ. eigenvalues --   -0.75536  -0.74966  -0.73857  -0.72647  -0.72006
 Alpha  occ. eigenvalues --   -0.71161  -0.70521  -0.70211  -0.69753  -0.69698
 Alpha  occ. eigenvalues --   -0.69514  -0.68854  -0.67737  -0.66994  -0.66634
 Alpha  occ. eigenvalues --   -0.65101  -0.64724  -0.64340  -0.62762  -0.62404
 Alpha  occ. eigenvalues --   -0.62014  -0.61083  -0.60809  -0.58836  -0.58788
 Alpha  occ. eigenvalues --   -0.58573  -0.57990  -0.57637  -0.57479  -0.56856
 Alpha  occ. eigenvalues --   -0.56539  -0.55927  -0.55385  -0.55196  -0.54571
 Alpha  occ. eigenvalues --   -0.54255  -0.53766  -0.53574  -0.52664  -0.52298
 Alpha  occ. eigenvalues --   -0.52090  -0.51800  -0.51400  -0.51211  -0.50563
 Alpha  occ. eigenvalues --   -0.50280  -0.50159  -0.50091  -0.49198  -0.49068
 Alpha  occ. eigenvalues --   -0.48804  -0.48705  -0.48527  -0.48345  -0.47795
 Alpha  occ. eigenvalues --   -0.47639  -0.47386  -0.47326  -0.47014  -0.46900
 Alpha  occ. eigenvalues --   -0.46790  -0.46754  -0.46481  -0.46206  -0.46023
 Alpha  occ. eigenvalues --   -0.45629  -0.45515  -0.45175  -0.44953  -0.44735
 Alpha  occ. eigenvalues --   -0.44566  -0.44526  -0.44506  -0.44250  -0.43996
 Alpha  occ. eigenvalues --   -0.43902  -0.43703  -0.43598  -0.43354  -0.42750
 Alpha  occ. eigenvalues --   -0.42408  -0.42337  -0.42264  -0.42167  -0.41984
 Alpha  occ. eigenvalues --   -0.41886  -0.41693  -0.41448  -0.41405  -0.41111
 Alpha  occ. eigenvalues --   -0.40907  -0.40656  -0.40465  -0.40438  -0.40203
 Alpha  occ. eigenvalues --   -0.39828  -0.39624  -0.39461  -0.38937  -0.38853
 Alpha  occ. eigenvalues --   -0.38643  -0.38446  -0.38342  -0.38116  -0.38060
 Alpha  occ. eigenvalues --   -0.37949  -0.37669  -0.37325  -0.37227  -0.37050
 Alpha  occ. eigenvalues --   -0.36882  -0.36285  -0.35634  -0.35590  -0.35481
 Alpha  occ. eigenvalues --   -0.35053  -0.34943  -0.34869  -0.34715  -0.34257
 Alpha  occ. eigenvalues --   -0.33972  -0.33831  -0.33661  -0.33304  -0.33095
 Alpha  occ. eigenvalues --   -0.32653  -0.32306  -0.32237  -0.32062  -0.31803
 Alpha  occ. eigenvalues --   -0.31382  -0.31177  -0.30487  -0.30464  -0.29618
 Alpha  occ. eigenvalues --   -0.29294  -0.28723  -0.28328  -0.28179  -0.28035
 Alpha  occ. eigenvalues --   -0.27883  -0.26416  -0.23388  -0.21606
 Alpha virt. eigenvalues --   -0.08571  -0.06553  -0.02135  -0.00827   0.00357
 Alpha virt. eigenvalues --    0.02909   0.03362   0.03435   0.03897   0.04686
 Alpha virt. eigenvalues --    0.05137   0.05236   0.07415   0.08009   0.09218

 Mulliken charges:
               1
     1  Mg   0.829821
     2  C    0.095921
     3  C   -0.189373
     4  C   -0.194722
     5  C   -0.186692
     6  N   -0.648292
     7  C    0.339010
     8  C   -0.167777
     9  C   -0.145458
    10  C    0.355585
    11  C   -0.303762
    12  C   -0.142155
    13  C   -0.272060
    14  C    0.607704
    15  O   -0.485835
    16  O   -0.489521
    17  N   -0.683099
    18  C    0.266998
    19  C    0.013782
    20  C   -0.045075
    21  C    0.321614
    22  C   -0.363926
    23  C    0.248242
    24  O   -0.390212
    25  N   -0.707253
    26  C    0.318870
    27  C    0.018163
    28  C    0.037347
    29  C    0.325899
    30  C    0.236219
    31  C   -0.258221
    32  C   -0.309825
    33  N   -0.739963
    34  C    0.253749
    35  C    0.048108
    36  C    0.029551
    37  C    0.307186
    38  C   -0.371315
    39  C    0.350778
    40  O   -0.439108
    41  C   -0.352088
    42  C    0.626889
    43  O   -0.458150
    44  O   -0.472150
    45  C   -0.079309
    46  C   -0.018010
    47  C   -0.080212
    48  C    0.131159
    49  C   -0.377117
    50  C   -0.238867
    51  C   -0.151860
    52  C   -0.168500
    53  C   -0.089940
    54  C   -0.304772
    55  C   -0.138866
    56  C   -0.190686
    57  C   -0.172404
    58  C   -0.064744
    59  C   -0.277464
    60  C   -0.134204
    61  C   -0.199923
    62  C   -0.167565
    63  C   -0.061995
    64  C   -0.296505
    65  C   -0.314709
    66  H    0.104986
    67  H    0.131594
    68  H    0.089066
    69  H    0.110617
    70  H    0.099295
    71  H    0.113885
    72  H    0.097276
    73  H    0.126996
    74  H    0.106264
    75  H    0.125750
    76  H    0.118612
    77  H    0.147605
    78  H    0.110119
    79  H    0.157431
    80  H    0.115201
    81  H    0.095268
    82  H    0.105285
    83  H    0.101056
    84  H    0.109932
    85  H    0.117410
    86  H    0.104618
    87  H    0.106757
    88  H    0.156179
    89  H    0.141599
    90  H    0.157233
    91  H    0.109502
    92  H    0.106366
    93  H    0.061838
    94  H    0.154461
    95  H    0.106988
    96  H    0.100053
    97  H    0.099163
    98  H    0.102933
    99  H    0.114607
   100  H    0.099611
   101  H    0.091039
   102  H    0.075869
   103  H    0.073560
   104  H    0.077561
   105  H    0.115037
   106  H    0.094831
   107  H    0.090411
   108  H    0.069258
   109  H    0.096667
   110  H    0.083904
   111  H    0.084785
   112  H    0.094219
   113  H    0.092020
   114  H    0.051806
   115  H    0.103918
   116  H    0.080813
   117  H    0.097595
   118  H    0.081295
   119  H    0.095826
   120  H    0.078876
   121  H    0.097214
   122  H    0.088915
   123  H    0.097135
   124  H    0.115380
   125  H    0.095284
   126  H    0.086222
   127  H    0.105529
   128  H    0.082129
   129  H    0.075123
   130  H    0.115898
   131  H    0.131568
   132  H    0.120172
   133  O   -0.434194
   134  H    0.069862
 Sum of Mulliken charges =   0.00000

 Dipole moment (field-independent basis, Debye):
    X=              1.5111    Y=             -2.6425    Z=             -1.4444  Tot=              3.3693
 Quadrupole moment (field-independent basis, Debye-Ang):
   XX=           -385.5282   YY=           -440.5976   ZZ=           -393.8330
   XY=              7.6964   XZ=             23.4208   YZ=            -32.6133

 Normal termination of Gaussian 09 at Tue Oct  8 05:36:20 2019.
