 Gaussian 09, Revision D.01,
 Gaussian 09:  ES64L-G09RevD.01 24-Apr-2013

 ----------------------------------------------------------------------
 # td=(NStates=1) iop(3/107=0140000000,3/108=0140000000) iop(3/107=0140
 000000,3/108=0140000000) CAM-B3LYP/6-31G(d,p)
 ----------------------------------------------------------------------

 --
 TD
 --
 Symbolic Z-matrix:
 Charge =  0 Multiplicity = 1

                         Standard orientation:
 ---------------------------------------------------------------------
 Center     Atomic      Atomic             Coordinates (Angstroms)
 Number     Number       Type             X           Y           Z
 ---------------------------------------------------------------------
      1         12           0       -5.662558    1.170927    0.124570
      2          6           0       -5.052695   -2.147807   -0.337071
      3          6           0       -3.491516    1.144827    2.772702
      4          6           0       -6.220888    4.537970    0.634503
      5          6           0       -7.856294    1.145759   -2.473476
      6          7           0       -4.421892   -0.260016    0.959094
      7          6           0       -4.212208   -1.552388    0.651795
      8          6           0       -3.237570   -2.309727    1.513998
      9          6           0       -3.048421   -1.293740    2.596264
     10          6           0       -3.611697    0.013508    2.115544
     11          6           0       -3.618257   -1.662509    4.026258
     12          6           0       -1.960989   -2.580872    0.706676
     13          6           0       -1.008224   -3.400830    1.434046
     14          6           0        0.255229   -3.814344    0.697681
     15          8           0        0.510524   -3.294490   -0.377700
     16          8           0        1.085644   -4.702906    1.315410
     17          7           0       -4.900400    2.675530    1.427363
     18          6           0       -4.009659    2.532384    2.434068
     19          6           0       -3.696722    3.724300    3.162312
     20          6           0       -4.718491    4.579647    2.604763
     21          6           0       -5.293412    3.927416    1.456529
     22          6           0       -2.850109    3.873608    4.323850
     23          6           0       -4.778953    5.952445    2.927267
     24          8           0       -4.087174    6.578056    3.724744
     25          7           0       -6.864060    2.585904   -0.778826
     26          6           0       -7.033795    3.859404   -0.375948
     27          6           0       -7.935080    4.574700   -1.186408
     28          6           0       -8.423141    3.635919   -2.075783
     29          6           0       -7.704281    2.428437   -1.885516
     30          6           0       -8.278959    6.011603   -1.174110
     31          6           0       -9.283567    3.832749   -3.218970
     32          6           0       -8.619198    4.022412   -4.576156
     33          7           0       -6.291564   -0.078354   -1.193239
     34          6           0       -7.341207   -0.071980   -2.101908
     35          6           0       -7.588892   -1.379439   -2.739137
     36          6           0       -6.656762   -2.182923   -2.030446
     37          6           0       -5.984106   -1.392863   -1.121527
     38          6           0       -8.535896   -1.730200   -3.832225
     39          6           0       -6.256127   -3.518041   -1.958637
     40          8           0       -6.695407   -4.526440   -2.553922
     41          6           0       -5.133768   -3.650986   -0.868800
     42          6           0       -5.555100   -4.537609    0.162233
     43          8           0       -5.830997   -4.407733    1.333704
     44          8           0       -5.297538   -5.846059   -0.353776
     45          6           0       -5.738791   -7.037432    0.498714
     46          6           0        2.335624   -4.985689    0.700400
     47          6           0        3.447266   -4.048299    0.967649
     48          6           0        4.113723   -3.169663    0.209092
     49          6           0        3.741482   -3.090962   -1.279407
     50          6           0        5.187317   -2.296408    0.702197
     51          6           0        6.500036   -2.722823    0.079728
     52          6           0        7.658902   -1.885010    0.594083
     53          6           0        9.042681   -2.078385   -0.059403
     54          6           0        9.551723   -3.457639    0.239453
     55          6           0       10.062352   -0.936934    0.356554
     56          6           0       11.316273   -0.762413   -0.470594
     57          6           0       12.320764    0.247976    0.146790
     58          6           0       13.606172    0.509625   -0.705441
     59          6           0       14.514963   -0.693827   -0.436276
     60          6           0       14.281474    1.768192   -0.117714
     61          6           0       15.595124    1.998474   -0.955198
     62          6           0       16.210409    3.444666   -0.512151
     63          6           0       17.548026    3.743932   -1.280416
     64          6           0       17.440700    3.882952   -2.808320
     65          6           0       18.187486    4.960440   -0.624039
     66          1           0       -2.732127    1.157295    3.614549
     67          1           0       -6.427571    5.568197    0.826014
     68          1           0       -8.635755    1.189433   -3.164909
     69          1           0       -3.741626   -3.171554    1.899057
     70          1           0       -2.073656   -1.129658    2.923817
     71          1           0       -3.129087   -2.419038    4.547121
     72          1           0       -3.613795   -0.923496    4.694048
     73          1           0       -4.549535   -2.193535    3.984565
     74          1           0       -2.246065   -3.239442   -0.327352
     75          1           0       -1.344184   -1.758291    0.556335
     76          1           0       -0.868649   -2.941261    2.439029
     77          1           0       -1.452928   -4.259157    1.830601
     78          1           0       -1.837040    3.820705    4.186956
     79          1           0       -2.787744    4.887619    4.657891
     80          1           0       -3.123403    3.047175    5.038829
     81          1           0       -5.537524    6.432139    2.421227
     82          1           0      -10.053987    2.997709   -3.238089
     83          1           0       -9.781503    4.960728   -2.916771
     84          1           0       -9.341275    3.957653   -5.548884
     85          1           0       -8.090784    4.985620   -4.591661
     86          1           0       -7.926041    3.221220   -5.121468
     87          1           0       -8.494544   -0.783991   -4.674939
     88          1           0       -8.109241   -2.706266   -4.247896
     89          1           0       -9.555473   -1.738199   -3.459516
     90          1           0       -4.030590   -4.021946   -1.273561
     91          1           0        2.612043   -5.998010    1.140442
     92          1           0        2.113833   -5.035370   -0.379702
     93          1           0        3.633658   -4.036433    2.034799
     94          1           0        2.653257   -3.599509   -1.365531
     95          1           0        3.576583   -2.086151   -1.528329
     96          1           0        4.518276   -3.640966   -1.931698
     97          1           0        5.112170   -1.148053    0.470566
     98          1           0        4.998903   -2.296805    1.718227
     99          1           0        6.810289   -3.755836    0.277981
    100          1           0        6.574706   -2.624288   -0.868452
    101          1           0        7.156786   -0.834748    0.133189
    102          1           0        7.795960   -1.976561    1.452003
    103          1           0        8.679719   -2.037429   -1.137747
    104          1           0        8.955128   -4.046830   -0.438698
    105          1           0       10.585605   -3.818138   -0.142014
    106          1           0        9.414535   -3.785524    1.340930
    107          1           0        9.449909    0.025486    0.345820
    108          1           0       10.368740   -1.028861    1.424834
    109          1           0       11.945112   -1.496505   -0.529695
    110          1           0       10.982732   -0.460014   -1.512372
    111          1           0       11.725167    1.123856    0.066604
    112          1           0       12.618490    0.103200    1.139594
    113          1           0       13.466320    0.614972   -1.862063
    114          1           0       14.279723   -1.134596    0.628279
    115          1           0       13.999089   -1.586638   -1.180154
    116          1           0       15.525842   -0.522849   -0.769076
    117          1           0       13.607415    2.653438   -0.177651
    118          1           0       14.435932    1.778628    0.922634
    119          1           0       16.573089    1.415742   -0.753270
    120          1           0       15.380156    2.239617   -2.060268
    121          1           0       15.686352    4.311332   -0.789605
    122          1           0       16.814890    3.376365    0.575787
    123          1           0       18.269620    3.117771   -1.298203
    124          1           0       16.577917    4.809695   -3.018635
    125          1           0       18.444215    4.606920   -3.128708
    126          1           0       17.273019    2.886985   -3.593030
    127          1           0       18.314459    4.625301    0.461780
    128          1           0       19.021251    5.276083   -1.200993
    129          1           0       17.325021    5.775742   -0.775988
    130          1           0       -5.478573   -7.967607   -0.032280
    131          1           0       -6.715583   -7.041137    0.611216
    132          1           0       -5.300471   -6.962625    1.445467
    133          8           0       -7.809771    6.791437   -0.374055
    134          1           0       -9.100988    6.223585   -1.942242
 ---------------------------------------------------------------------

 SCF Done:  E(RCAM-B3LYP) =  -3043.33343630     A.U. after   16 cycles

 Excitation energies and oscillator strengths:

 Excited State   1:      Singlet-A      2.0030 eV  618.99 nm  f=0.2016  <S**2>=0.000
     243 -> 245        0.12572
     243 -> 246       -0.23367
     244 -> 245        0.63960
     244 -> 246        0.11410
 This state for optimization and/or second-order correction.
 Total Energy, E(TD-HF/TD-KS) =  -3043.25982725
 Copying the excited state density for this state as the 1-particle RhoCI density.

 The electronic state is 1-A.
 Alpha  occ. eigenvalues --  -46.81270 -19.22604 -19.20140 -19.18225 -19.17965
 Alpha  occ. eigenvalues --  -19.17411 -19.16900 -19.15754 -14.38710 -14.37115
 Alpha  occ. eigenvalues --  -14.37008 -14.36696 -10.35626 -10.34933 -10.31563
 Alpha  occ. eigenvalues --  -10.31289 -10.28001 -10.27909 -10.27759 -10.27322
 Alpha  occ. eigenvalues --  -10.26774 -10.26743 -10.26736 -10.26336 -10.26173
 Alpha  occ. eigenvalues --  -10.26172 -10.25870 -10.25672 -10.25518 -10.25445
 Alpha  occ. eigenvalues --  -10.25404 -10.24821 -10.24514 -10.24256 -10.24204
 Alpha  occ. eigenvalues --  -10.24094 -10.24038 -10.23941 -10.23887 -10.23816
 Alpha  occ. eigenvalues --  -10.23686 -10.23227 -10.23110 -10.22834 -10.22819
 Alpha  occ. eigenvalues --  -10.22515 -10.22507 -10.22371 -10.22150 -10.21984
 Alpha  occ. eigenvalues --  -10.21965 -10.21874 -10.21787 -10.21203 -10.21133
 Alpha  occ. eigenvalues --  -10.21074 -10.21049 -10.21040 -10.20786 -10.20783
 Alpha  occ. eigenvalues --  -10.20434 -10.19889 -10.19799 -10.19740 -10.19430
 Alpha  occ. eigenvalues --  -10.19311  -3.10016  -1.84936  -1.84493  -1.84443
 Alpha  occ. eigenvalues --   -1.13431  -1.10863  -1.08085  -1.05286  -1.05099
 Alpha  occ. eigenvalues --   -1.05020  -1.02059  -1.01771  -1.01032  -0.99942
 Alpha  occ. eigenvalues --   -0.99288  -0.88747  -0.87508  -0.87044  -0.86048
 Alpha  occ. eigenvalues --   -0.85173  -0.85074  -0.84476  -0.84217  -0.83974
 Alpha  occ. eigenvalues --   -0.83743  -0.83643  -0.82503  -0.81001  -0.80409
 Alpha  occ. eigenvalues --   -0.79368  -0.78742  -0.77781  -0.76927  -0.76567
 Alpha  occ. eigenvalues --   -0.75855  -0.75256  -0.74772  -0.73520  -0.72909
 Alpha  occ. eigenvalues --   -0.71320  -0.70341  -0.70098  -0.69877  -0.69651
 Alpha  occ. eigenvalues --   -0.69375  -0.68686  -0.68081  -0.67274  -0.66704
 Alpha  occ. eigenvalues --   -0.66552  -0.65475  -0.65127  -0.63277  -0.63012
 Alpha  occ. eigenvalues --   -0.62170  -0.60916  -0.60480  -0.59659  -0.58984
 Alpha  occ. eigenvalues --   -0.58576  -0.58399  -0.57984  -0.57829  -0.57357
 Alpha  occ. eigenvalues --   -0.56989  -0.56323  -0.56030  -0.55341  -0.55126
 Alpha  occ. eigenvalues --   -0.54186  -0.53430  -0.53132  -0.52425  -0.52102
 Alpha  occ. eigenvalues --   -0.51975  -0.51840  -0.51406  -0.51029  -0.50809
 Alpha  occ. eigenvalues --   -0.50311  -0.49857  -0.49662  -0.49310  -0.49299
 Alpha  occ. eigenvalues --   -0.48963  -0.48734  -0.48642  -0.48144  -0.47894
 Alpha  occ. eigenvalues --   -0.47757  -0.47548  -0.47425  -0.47326  -0.46809
 Alpha  occ. eigenvalues --   -0.46597  -0.46531  -0.46177  -0.46167  -0.46014
 Alpha  occ. eigenvalues --   -0.45921  -0.45683  -0.45275  -0.45205  -0.45005
 Alpha  occ. eigenvalues --   -0.44831  -0.44468  -0.44395  -0.44201  -0.44016
 Alpha  occ. eigenvalues --   -0.43736  -0.43428  -0.43360  -0.43279  -0.42917
 Alpha  occ. eigenvalues --   -0.42649  -0.42472  -0.42352  -0.42174  -0.41930
 Alpha  occ. eigenvalues --   -0.41684  -0.41499  -0.41446  -0.41294  -0.41213
 Alpha  occ. eigenvalues --   -0.41041  -0.40910  -0.40761  -0.40549  -0.40420
 Alpha  occ. eigenvalues --   -0.39932  -0.39614  -0.39353  -0.39280  -0.39001
 Alpha  occ. eigenvalues --   -0.38769  -0.38704  -0.38510  -0.38112  -0.37967
 Alpha  occ. eigenvalues --   -0.37854  -0.37592  -0.37391  -0.37157  -0.36826
 Alpha  occ. eigenvalues --   -0.36732  -0.36207  -0.35859  -0.35802  -0.35548
 Alpha  occ. eigenvalues --   -0.35501  -0.35010  -0.34941  -0.34842  -0.34631
 Alpha  occ. eigenvalues --   -0.34499  -0.34368  -0.33121  -0.32970  -0.32833
 Alpha  occ. eigenvalues --   -0.32579  -0.32311  -0.32177  -0.32015  -0.31704
 Alpha  occ. eigenvalues --   -0.31365  -0.30800  -0.30694  -0.29828  -0.29295
 Alpha  occ. eigenvalues --   -0.28976  -0.28689  -0.28477  -0.27955  -0.27819
 Alpha  occ. eigenvalues --   -0.27370  -0.26619  -0.23339  -0.21926
 Alpha virt. eigenvalues --   -0.09158  -0.07043  -0.01809  -0.00778   0.00263
 Alpha virt. eigenvalues --    0.01890   0.02611   0.03201   0.03973   0.04462
 Alpha virt. eigenvalues --    0.04901   0.05769   0.06844   0.07701   0.07707

 Mulliken charges:
               1
     1  Mg   0.830363
     2  C   -0.013708
     3  C   -0.229243
     4  C   -0.149968
     5  C   -0.171303
     6  N   -0.645715
     7  C    0.327603
     8  C   -0.147856
     9  C   -0.158005
    10  C    0.385563
    11  C   -0.336081
    12  C   -0.137462
    13  C   -0.285398
    14  C    0.612516
    15  O   -0.461143
    16  O   -0.463829
    17  N   -0.672916
    18  C    0.271190
    19  C    0.074618
    20  C   -0.077180
    21  C    0.360564
    22  C   -0.398085
    23  C    0.254573
    24  O   -0.447136
    25  N   -0.680290
    26  C    0.280973
    27  C    0.003938
    28  C    0.022098
    29  C    0.280574
    30  C    0.264689
    31  C   -0.246780
    32  C   -0.291761
    33  N   -0.748087
    34  C    0.260140
    35  C    0.084604
    36  C    0.052131
    37  C    0.368440
    38  C   -0.372567
    39  C    0.317221
    40  O   -0.475036
    41  C   -0.317081
    42  C    0.649799
    43  O   -0.463486
    44  O   -0.498364
    45  C   -0.088504
    46  C    0.007169
    47  C   -0.125894
    48  C    0.135796
    49  C   -0.370992
    50  C   -0.215429
    51  C   -0.175821
    52  C   -0.125676
    53  C   -0.067055
    54  C   -0.307929
    55  C   -0.166467
    56  C   -0.160240
    57  C   -0.195824
    58  C   -0.057343
    59  C   -0.284637
    60  C   -0.156336
    61  C   -0.188743
    62  C   -0.158747
    63  C   -0.066074
    64  C   -0.281736
    65  C   -0.291743
    66  H    0.078149
    67  H    0.139562
    68  H    0.068243
    69  H    0.139987
    70  H    0.110143
    71  H    0.109330
    72  H    0.121493
    73  H    0.126534
    74  H    0.084785
    75  H    0.133873
    76  H    0.128519
    77  H    0.132766
    78  H    0.135647
    79  H    0.163253
    80  H    0.122357
    81  H    0.065000
    82  H    0.111235
    83  H    0.075343
    84  H    0.090449
    85  H    0.120290
    86  H    0.100907
    87  H    0.098497
    88  H    0.158461
    89  H    0.152103
    90  H    0.168965
    91  H    0.111371
    92  H    0.112944
    93  H    0.067606
    94  H    0.121797
    95  H    0.122658
    96  H    0.105585
    97  H    0.086570
    98  H    0.104995
    99  H    0.096131
   100  H    0.109703
   101  H    0.047375
   102  H    0.081151
   103  H    0.069799
   104  H    0.107364
   105  H    0.095312
   106  H    0.091648
   107  H    0.079407
   108  H    0.080139
   109  H    0.100061
   110  H    0.082067
   111  H    0.089203
   112  H    0.095293
   113  H    0.078127
   114  H    0.094154
   115  H    0.058856
   116  H    0.109543
   117  H    0.090025
   118  H    0.100846
   119  H    0.103006
   120  H    0.101180
   121  H    0.101455
   122  H    0.059893
   123  H    0.105107
   124  H    0.050031
   125  H    0.063850
   126  H    0.090645
   127  H    0.099785
   128  H    0.104756
   129  H    0.077551
   130  H    0.125456
   131  H    0.141127
   132  H    0.131053
   133  O   -0.416248
   134  H    0.064837
 Sum of Mulliken charges =   0.00000

 Dipole moment (field-independent basis, Debye):
    X=              1.2974    Y=             -4.6141    Z=             -0.3609  Tot=              4.8066
 Quadrupole moment (field-independent basis, Debye-Ang):
   XX=           -365.3195   YY=           -447.0970   ZZ=           -391.6526
   XY=              6.1204   XZ=             25.3668   YZ=            -35.9305

 Normal termination of Gaussian 09 at Wed Oct  9 12:04:18 2019.
