 Gaussian 09, Revision D.01,
 Gaussian 09:  ES64L-G09RevD.01 24-Apr-2013

 ----------------------------------------------------------------------
 # td=(NStates=1) iop(3/107=0140000000,3/108=0140000000) iop(3/107=0140
 000000,3/108=0140000000) CAM-B3LYP/6-31G(d,p)
 ----------------------------------------------------------------------

 --
 TD
 --
 Symbolic Z-matrix:
 Charge =  0 Multiplicity = 1

                         Standard orientation:
 ---------------------------------------------------------------------
 Center     Atomic      Atomic             Coordinates (Angstroms)
 Number     Number       Type             X           Y           Z
 ---------------------------------------------------------------------
      1         12           0       -5.585017    1.271075    0.188169
      2          6           0       -4.965055   -2.210630   -0.392351
      3          6           0       -3.268508    1.169155    2.738143
      4          6           0       -6.123282    4.616375    0.623765
      5          6           0       -7.989917    1.218469   -2.450025
      6          7           0       -4.361480   -0.295278    1.103153
      7          6           0       -4.261713   -1.621152    0.689482
      8          6           0       -3.227149   -2.414592    1.530552
      9          6           0       -2.914627   -1.408209    2.762073
     10          6           0       -3.512464   -0.115714    2.133935
     11          6           0       -3.523914   -1.828689    4.010160
     12          6           0       -1.938837   -2.829690    0.676291
     13          6           0       -0.994690   -3.632048    1.416842
     14          6           0        0.348035   -3.926921    0.635481
     15          8           0        0.580264   -3.501440   -0.514968
     16          8           0        1.175240   -4.806048    1.333175
     17          7           0       -4.892783    2.640106    1.480365
     18          6           0       -3.979459    2.323911    2.436349
     19          6           0       -3.641871    3.621665    3.127488
     20          6           0       -4.507386    4.541677    2.582730
     21          6           0       -5.241682    3.908995    1.564408
     22          6           0       -2.744764    3.827173    4.250449
     23          6           0       -4.511726    6.043210    2.849327
     24          8           0       -3.928924    6.657729    3.602357
     25          7           0       -6.824403    2.687446   -0.674164
     26          6           0       -6.902744    3.995151   -0.311311
     27          6           0       -7.812467    4.607218   -1.183150
     28          6           0       -8.415412    3.685484   -2.081707
     29          6           0       -7.702211    2.483119   -1.773225
     30          6           0       -8.220523    6.042757   -1.202058
     31          6           0       -9.624751    3.876149   -2.975552
     32          6           0       -9.120390    4.087767   -4.525062
     33          7           0       -6.295530   -0.105815   -0.976200
     34          6           0       -7.223390    0.052181   -2.110439
     35          6           0       -7.514214   -1.354499   -2.713548
     36          6           0       -6.736400   -2.210177   -1.977033
     37          6           0       -5.927518   -1.358252   -1.081497
     38          6           0       -8.564081   -1.571622   -3.866912
     39          6           0       -6.142561   -3.581081   -1.979900
     40          8           0       -6.589414   -4.592204   -2.456765
     41          6           0       -5.018373   -3.581320   -0.914684
     42          6           0       -5.301791   -4.628454    0.082112
     43          8           0       -5.609034   -4.441392    1.222254
     44          8           0       -5.097562   -5.823527   -0.351693
     45          6           0       -5.397280   -6.917058    0.575552
     46          6           0        2.409607   -5.141080    0.699465
     47          6           0        3.471370   -4.160221    1.003221
     48          6           0        4.061322   -3.392116    0.005266
     49          6           0        3.660002   -3.451915   -1.483122
     50          6           0        5.055411   -2.418777    0.441797
     51          6           0        6.437439   -2.751707   -0.066231
     52          6           0        7.634039   -1.912166    0.554460
     53          6           0        8.949143   -2.000903   -0.236166
     54          6           0        9.572629   -3.341226    0.087705
     55          6           0        9.903109   -0.940174    0.363874
     56          6           0       11.310660   -0.944395   -0.340399
     57          6           0       12.141598    0.316198    0.109322
     58          6           0       13.509212    0.448362   -0.487882
     59          6           0       14.441629   -0.703759   -0.440476
     60          6           0       14.180438    1.834934   -0.067839
     61          6           0       15.439079    2.244094   -1.023376
     62          6           0       15.920309    3.625111   -0.536560
     63          6           0       17.253655    3.991692   -1.233950
     64          6           0       17.099590    4.150354   -2.774830
     65          6           0       17.697730    5.397010   -0.734084
     66          1           0       -2.684559    1.106382    3.481922
     67          1           0       -6.436975    5.709632    0.878645
     68          1           0       -8.741902    1.277481   -3.327699
     69          1           0       -3.579175   -3.179369    2.036303
     70          1           0       -1.937781   -1.301395    2.881440
     71          1           0       -3.039861   -2.797240    4.223701
     72          1           0       -3.307914   -0.775590    4.863832
     73          1           0       -4.592315   -1.774380    3.922301
     74          1           0       -2.306225   -3.431618   -0.107386
     75          1           0       -1.455807   -1.984526    0.218766
     76          1           0       -0.613444   -2.873121    2.132794
     77          1           0       -1.534846   -4.506448    1.923940
     78          1           0       -1.763491    3.801224    3.964414
     79          1           0       -2.697883    4.779160    4.553723
     80          1           0       -3.008167    3.129660    5.051809
     81          1           0       -5.194994    6.609061    2.404493
     82          1           0      -10.090946    2.923240   -2.904516
     83          1           0      -10.158020    4.715260   -2.490120
     84          1           0      -10.151237    4.191037   -5.113747
     85          1           0       -8.571175    5.235310   -4.461321
     86          1           0       -8.575376    3.389216   -4.954940
     87          1           0       -8.494860   -0.430016   -4.445026
     88          1           0       -8.015557   -2.537329   -4.547994
     89          1           0       -9.599599   -1.960791   -3.341694
     90          1           0       -4.176152   -3.875162   -1.656717
     91          1           0        2.736060   -6.135137    0.835681
     92          1           0        2.350618   -5.280857   -0.348786
     93          1           0        4.048317   -3.906893    2.116296
     94          1           0        2.667779   -3.661949   -1.408025
     95          1           0        3.643550   -2.584711   -1.941421
     96          1           0        4.357187   -3.914899   -2.263563
     97          1           0        4.704342   -1.397594    0.257102
     98          1           0        5.037047   -2.354266    1.702053
     99          1           0        6.717326   -3.762375    0.283285
    100          1           0        6.631503   -3.017587   -1.209791
    101          1           0        7.457509   -0.822279    0.486383
    102          1           0        7.721987   -2.268982    1.653041
    103          1           0        8.805409   -1.809522   -1.367785
    104          1           0        8.870871   -4.263929   -0.121473
    105          1           0       10.558617   -3.528456   -0.620810
    106          1           0       10.007267   -3.238554    1.121217
    107          1           0        9.337866   -0.003339    0.123816
    108          1           0       10.146197   -1.119870    1.494497
    109          1           0       11.780821   -1.963886   -0.054003
    110          1           0       11.188639   -0.888319   -1.503824
    111          1           0       11.867536    1.323505    0.165487
    112          1           0       12.274701    0.102295    1.353112
    113          1           0       13.325934    0.667117   -1.693111
    114          1           0       14.566230   -0.870890    0.692128
    115          1           0       14.072266   -1.542107   -1.092421
    116          1           0       15.414410   -0.239072   -0.863346
    117          1           0       13.462878    2.687170   -0.242612
    118          1           0       14.454409    1.795733    0.994580
    119          1           0       16.100450    1.409063   -0.767395
    120          1           0       15.124349    2.228539   -1.948489
    121          1           0       15.249568    4.406761   -0.891278
    122          1           0       16.023519    3.492967    0.607485
    123          1           0       18.126650    3.217284   -1.067790
    124          1           0       16.470504    4.861556   -2.985472
    125          1           0       18.136180    4.191153   -3.174929
    126          1           0       16.712627    3.188443   -3.231113
    127          1           0       17.804928    5.374369    0.321255
    128          1           0       18.578075    6.028680   -1.151416
    129          1           0       16.843353    6.059600   -0.921601
    130          1           0       -4.862999   -7.630521    0.091765
    131          1           0       -6.418225   -7.003580    0.769634
    132          1           0       -4.926791   -6.674628    1.614378
    133          8           0       -7.893361    6.855606   -0.303199
    134          1           0       -9.048440    6.324396   -1.960349
 ---------------------------------------------------------------------

 SCF Done:  E(RCAM-B3LYP) =  -3043.33823489     A.U. after   16 cycles

 Excitation energies and oscillator strengths:

 Excited State   1:      Singlet-A      2.0246 eV  612.38 nm  f=0.1627  <S**2>=0.000
     243 -> 246       -0.26010
     244 -> 245        0.64798
 This state for optimization and/or second-order correction.
 Total Energy, E(TD-HF/TD-KS) =  -3043.26383065
 Copying the excited state density for this state as the 1-particle RhoCI density.

 The electronic state is 1-A.
 Alpha  occ. eigenvalues --  -46.80799 -19.23254 -19.22645 -19.18578 -19.17772
 Alpha  occ. eigenvalues --  -19.16499 -19.16372 -19.16301 -14.39391 -14.38137
 Alpha  occ. eigenvalues --  -14.36426 -14.36186 -10.36923 -10.34404 -10.32117
 Alpha  occ. eigenvalues --  -10.30346 -10.28372 -10.28248 -10.28115 -10.28024
 Alpha  occ. eigenvalues --  -10.27695 -10.27271 -10.26928 -10.26807 -10.26682
 Alpha  occ. eigenvalues --  -10.26564 -10.26361 -10.26099 -10.25774 -10.25516
 Alpha  occ. eigenvalues --  -10.25082 -10.24869 -10.24485 -10.24423 -10.24350
 Alpha  occ. eigenvalues --  -10.24317 -10.23722 -10.23511 -10.23355 -10.23283
 Alpha  occ. eigenvalues --  -10.23198 -10.22982 -10.22944 -10.22902 -10.22827
 Alpha  occ. eigenvalues --  -10.22619 -10.22392 -10.22343 -10.22266 -10.22218
 Alpha  occ. eigenvalues --  -10.22131 -10.22002 -10.21962 -10.21867 -10.21778
 Alpha  occ. eigenvalues --  -10.21663 -10.21590 -10.21581 -10.21368 -10.21239
 Alpha  occ. eigenvalues --  -10.21105 -10.19916 -10.19879 -10.19470 -10.19331
 Alpha  occ. eigenvalues --  -10.19256  -3.09579  -1.84503  -1.84039  -1.84017
 Alpha  occ. eigenvalues --   -1.16009  -1.12375  -1.11268  -1.08506  -1.05153
 Alpha  occ. eigenvalues --   -1.04523  -1.04116  -1.00802  -0.99871  -0.98903
 Alpha  occ. eigenvalues --   -0.98010  -0.88772  -0.86774  -0.85872  -0.85014
 Alpha  occ. eigenvalues --   -0.84945  -0.84297  -0.84096  -0.83446  -0.83000
 Alpha  occ. eigenvalues --   -0.82908  -0.82663  -0.81959  -0.80261  -0.79768
 Alpha  occ. eigenvalues --   -0.78122  -0.77855  -0.77457  -0.76823  -0.76473
 Alpha  occ. eigenvalues --   -0.75386  -0.74816  -0.73574  -0.73343  -0.71887
 Alpha  occ. eigenvalues --   -0.71680  -0.70910  -0.70064  -0.69136  -0.68995
 Alpha  occ. eigenvalues --   -0.68621  -0.68130  -0.67080  -0.66546  -0.65862
 Alpha  occ. eigenvalues --   -0.65366  -0.64507  -0.63449  -0.62860  -0.62276
 Alpha  occ. eigenvalues --   -0.61579  -0.60914  -0.60250  -0.59678  -0.59241
 Alpha  occ. eigenvalues --   -0.58111  -0.57922  -0.57678  -0.57531  -0.56894
 Alpha  occ. eigenvalues --   -0.56581  -0.55982  -0.55701  -0.55433  -0.54794
 Alpha  occ. eigenvalues --   -0.54121  -0.53798  -0.53134  -0.52809  -0.52180
 Alpha  occ. eigenvalues --   -0.51918  -0.51569  -0.51111  -0.50931  -0.50859
 Alpha  occ. eigenvalues --   -0.50174  -0.50011  -0.49655  -0.49223  -0.49090
 Alpha  occ. eigenvalues --   -0.48940  -0.48653  -0.48410  -0.47915  -0.47729
 Alpha  occ. eigenvalues --   -0.47567  -0.47383  -0.47235  -0.47086  -0.46767
 Alpha  occ. eigenvalues --   -0.46486  -0.46386  -0.46195  -0.46168  -0.45771
 Alpha  occ. eigenvalues --   -0.45547  -0.45151  -0.45102  -0.45069  -0.44801
 Alpha  occ. eigenvalues --   -0.44591  -0.44560  -0.44384  -0.44162  -0.43920
 Alpha  occ. eigenvalues --   -0.43788  -0.43599  -0.43378  -0.43178  -0.43052
 Alpha  occ. eigenvalues --   -0.42901  -0.42719  -0.42529  -0.42143  -0.41955
 Alpha  occ. eigenvalues --   -0.41874  -0.41518  -0.41386  -0.41231  -0.40603
 Alpha  occ. eigenvalues --   -0.40510  -0.40409  -0.40209  -0.40148  -0.39934
 Alpha  occ. eigenvalues --   -0.39773  -0.39535  -0.39239  -0.38974  -0.38939
 Alpha  occ. eigenvalues --   -0.38853  -0.38752  -0.38460  -0.38431  -0.38097
 Alpha  occ. eigenvalues --   -0.37880  -0.37799  -0.37369  -0.37268  -0.37106
 Alpha  occ. eigenvalues --   -0.36823  -0.36128  -0.35813  -0.35672  -0.35613
 Alpha  occ. eigenvalues --   -0.35051  -0.34981  -0.34720  -0.34597  -0.34573
 Alpha  occ. eigenvalues --   -0.34292  -0.33783  -0.33711  -0.33504  -0.33428
 Alpha  occ. eigenvalues --   -0.33165  -0.32448  -0.32028  -0.31591  -0.31286
 Alpha  occ. eigenvalues --   -0.31120  -0.30943  -0.30763  -0.29799  -0.29546
 Alpha  occ. eigenvalues --   -0.29446  -0.28206  -0.27980  -0.27198  -0.26686
 Alpha  occ. eigenvalues --   -0.26639  -0.26495  -0.23222  -0.20805
 Alpha virt. eigenvalues --   -0.07845  -0.06435  -0.01642   0.00217   0.01274
 Alpha virt. eigenvalues --    0.01875   0.03300   0.03512   0.03954   0.04541
 Alpha virt. eigenvalues --    0.04673   0.05634   0.06330   0.07123   0.07905

 Mulliken charges:
               1
     1  Mg   0.833094
     2  C    0.088113
     3  C   -0.126216
     4  C   -0.184431
     5  C   -0.172820
     6  N   -0.611217
     7  C    0.294564
     8  C   -0.146659
     9  C   -0.133456
    10  C    0.298376
    11  C   -0.265249
    12  C   -0.169017
    13  C   -0.262180
    14  C    0.600752
    15  O   -0.459453
    16  O   -0.460888
    17  N   -0.720612
    18  C    0.315546
    19  C    0.010632
    20  C   -0.077651
    21  C    0.316467
    22  C   -0.378051
    23  C    0.282356
    24  O   -0.366124
    25  N   -0.714314
    26  C    0.376219
    27  C   -0.072882
    28  C    0.042038
    29  C    0.252956
    30  C    0.225158
    31  C   -0.243019
    32  C   -0.292004
    33  N   -0.708202
    34  C    0.225843
    35  C    0.002067
    36  C    0.016343
    37  C    0.319181
    38  C   -0.329880
    39  C    0.351649
    40  O   -0.434742
    41  C   -0.348190
    42  C    0.642383
    43  O   -0.489184
    44  O   -0.431661
    45  C   -0.085933
    46  C   -0.011311
    47  C   -0.133030
    48  C    0.131900
    49  C   -0.373994
    50  C   -0.217919
    51  C   -0.178060
    52  C   -0.157379
    53  C   -0.053462
    54  C   -0.292055
    55  C   -0.168214
    56  C   -0.180138
    57  C   -0.127785
    58  C   -0.044991
    59  C   -0.289417
    60  C   -0.214036
    61  C   -0.174874
    62  C   -0.155253
    63  C   -0.068321
    64  C   -0.300563
    65  C   -0.306329
    66  H    0.050060
    67  H    0.151203
    68  H    0.103722
    69  H    0.113753
    70  H    0.106161
    71  H    0.118759
    72  H    0.049116
    73  H    0.139648
    74  H    0.116478
    75  H    0.124786
    76  H    0.134713
    77  H    0.129764
    78  H    0.127388
    79  H    0.147581
    80  H    0.121562
    81  H    0.054442
    82  H    0.121303
    83  H    0.122707
    84  H    0.097159
    85  H    0.090842
    86  H    0.132586
    87  H    0.100537
    88  H    0.120092
    89  H    0.141815
    90  H    0.166422
    91  H    0.120804
    92  H    0.128707
    93  H    0.067754
    94  H    0.154307
    95  H    0.123488
    96  H    0.104526
    97  H    0.110267
    98  H    0.057326
    99  H    0.103884
   100  H    0.079131
   101  H    0.081760
   102  H    0.087438
   103  H    0.084009
   104  H    0.087133
   105  H    0.071350
   106  H    0.103311
   107  H    0.088641
   108  H    0.087356
   109  H    0.100644
   110  H    0.078534
   111  H    0.101670
   112  H    0.027454
   113  H    0.036494
   114  H    0.090798
   115  H    0.108478
   116  H    0.090031
   117  H    0.085850
   118  H    0.090398
   119  H    0.101858
   120  H    0.107075
   121  H    0.093005
   122  H    0.088348
   123  H    0.068726
   124  H    0.110638
   125  H    0.104990
   126  H    0.085400
   127  H    0.101632
   128  H    0.088129
   129  H    0.091724
   130  H    0.136204
   131  H    0.150643
   132  H    0.120361
   133  O   -0.438955
   134  H    0.061608
 Sum of Mulliken charges =   0.00000

 Dipole moment (field-independent basis, Debye):
    X=              1.3513    Y=             -5.8129    Z=             -1.7462  Tot=              6.2182
 Quadrupole moment (field-independent basis, Debye-Ang):
   XX=           -393.5962   YY=           -437.9772   ZZ=           -392.8316
   XY=             21.4809   XZ=             20.1011   YZ=            -28.7188

 Normal termination of Gaussian 09 at Thu Oct  3 19:51:13 2019.
