 Gaussian 09, Revision D.01,
 Gaussian 09:  ES64L-G09RevD.01 24-Apr-2013

 ----------------------------------------------------------------------
 # td=(NStates=1) iop(3/107=0140000000,3/108=0140000000) iop(3/107=0140
 000000,3/108=0140000000) CAM-B3LYP/6-31G(d,p)
 ----------------------------------------------------------------------

 --
 TD
 --
 Symbolic Z-matrix:
 Charge =  0 Multiplicity = 1

                         Standard orientation:
 ---------------------------------------------------------------------
 Center     Atomic      Atomic             Coordinates (Angstroms)
 Number     Number       Type             X           Y           Z
 ---------------------------------------------------------------------
      1         12           0       -5.507355    1.247616    0.108652
      2          6           0       -4.979343   -2.101262   -0.392683
      3          6           0       -3.468092    1.104441    2.744947
      4          6           0       -6.185417    4.589230    0.675466
      5          6           0       -7.997889    1.282829   -2.397939
      6          7           0       -4.433622   -0.412316    1.134864
      7          6           0       -4.412223   -1.684796    0.720295
      8          6           0       -3.253174   -2.443706    1.503335
      9          6           0       -3.041599   -1.426777    2.672898
     10          6           0       -3.602410   -0.090598    2.161418
     11          6           0       -3.634112   -1.955982    3.966651
     12          6           0       -2.001082   -2.753233    0.613789
     13          6           0       -1.080277   -3.746580    1.388514
     14          6           0        0.207971   -3.852257    0.559277
     15          8           0        0.400288   -3.426226   -0.565334
     16          8           0        1.170730   -4.603442    1.266870
     17          7           0       -4.920494    2.524907    1.504184
     18          6           0       -3.871309    2.271632    2.402593
     19          6           0       -3.568702    3.565230    3.036207
     20          6           0       -4.423045    4.517553    2.545050
     21          6           0       -5.208186    3.914224    1.462857
     22          6           0       -2.675579    3.604074    4.267025
     23          6           0       -4.414366    5.928106    2.910524
     24          8           0       -3.637316    6.446470    3.785795
     25          7           0       -6.772799    2.646649   -0.696916
     26          6           0       -6.917757    4.011348   -0.361589
     27          6           0       -7.902063    4.707761   -1.103990
     28          6           0       -8.354944    3.689673   -1.921493
     29          6           0       -7.648946    2.557175   -1.778861
     30          6           0       -8.338397    6.079581   -0.911412
     31          6           0       -9.490010    3.940816   -2.938292
     32          6           0       -8.758563    4.189676   -4.346268
     33          7           0       -6.305019   -0.095988   -1.102397
     34          6           0       -7.311437    0.006719   -2.100948
     35          6           0       -7.542624   -1.282440   -2.713047
     36          6           0       -6.641559   -2.050222   -2.153023
     37          6           0       -5.912712   -1.326837   -1.108225
     38          6           0       -8.566615   -1.576080   -3.751553
     39          6           0       -6.216958   -3.464589   -2.095898
     40          8           0       -6.535876   -4.364444   -2.814666
     41          6           0       -5.125464   -3.533420   -0.948494
     42          6           0       -5.413257   -4.587032    0.021445
     43          8           0       -5.773725   -4.490134    1.173826
     44          8           0       -5.202755   -5.892059   -0.571434
     45          6           0       -5.472380   -7.003702    0.231429
     46          6           0        2.370264   -4.951458    0.511222
     47          6           0        3.370782   -4.066236    0.914259
     48          6           0        3.969058   -3.116457    0.140770
     49          6           0        3.625563   -2.876607   -1.336696
     50          6           0        5.115940   -2.328499    0.700497
     51          6           0        6.498515   -2.613312    0.148589
     52          6           0        7.630294   -1.678839    0.748357
     53          6           0        8.947681   -1.976366    0.062879
     54          6           0        9.519216   -3.437618    0.356090
     55          6           0       10.075335   -1.027055    0.611242
     56          6           0       11.360569   -0.917932   -0.218894
     57          6           0       12.219399    0.221208    0.253371
     58          6           0       13.472580    0.402907   -0.630991
     59          6           0       14.377471   -0.815447   -0.431119
     60          6           0       14.302510    1.718262   -0.123406
     61          6           0       15.475172    2.124188   -1.027824
     62          6           0       16.138600    3.372174   -0.664480
     63          6           0       17.345944    3.825262   -1.476303
     64          6           0       16.984718    4.028120   -2.812359
     65          6           0       17.913032    5.234825   -0.957861
     66          1           0       -2.587830    1.039946    3.525919
     67          1           0       -6.405665    5.547568    0.971135
     68          1           0       -8.822709    1.207420   -3.222407
     69          1           0       -3.623764   -3.535924    1.833420
     70          1           0       -1.868557   -1.370992    3.020331
     71          1           0       -3.175258   -2.986130    4.180783
     72          1           0       -3.299264   -1.217674    4.775850
     73          1           0       -4.820653   -1.968777    3.924657
     74          1           0       -2.082774   -3.282639   -0.429729
     75          1           0       -1.453794   -1.886211    0.374393
     76          1           0       -0.711198   -3.254845    2.242980
     77          1           0       -1.530054   -4.505617    1.894890
     78          1           0       -1.634036    2.969718    4.336181
     79          1           0       -2.788538    4.493038    4.727063
     80          1           0       -3.212784    3.009662    4.976408
     81          1           0       -5.384602    6.558381    2.481303
     82          1           0      -10.341430    3.123142   -2.980268
     83          1           0      -10.134278    4.770976   -2.790524
     84          1           0       -9.519981    4.193481   -5.135767
     85          1           0       -8.074976    4.951502   -4.402254
     86          1           0       -8.184143    3.306150   -4.441111
     87          1           0       -8.635875   -1.064135   -4.678904
     88          1           0       -8.555376   -2.644235   -4.221561
     89          1           0       -9.611602   -1.254886   -3.337874
     90          1           0       -4.285526   -3.855700   -1.553730
     91          1           0        2.737831   -5.846375    0.870381
     92          1           0        2.065607   -4.848334   -0.510778
     93          1           0        3.909570   -4.230102    1.982612
     94          1           0        2.534608   -3.012379   -1.420758
     95          1           0        3.695777   -1.697615   -1.442094
     96          1           0        4.432700   -3.288493   -1.971030
     97          1           0        4.871306   -1.242000    0.614376
     98          1           0        5.114914   -2.515180    1.709169
     99          1           0        6.625262   -3.565925    0.498745
    100          1           0        6.503840   -2.516457   -0.938354
    101          1           0        7.200461   -0.762914    0.483679
    102          1           0        7.807775   -1.948847    1.891828
    103          1           0        8.763570   -1.738024   -1.045494
    104          1           0        8.954234   -4.227903   -0.155285
    105          1           0       10.531503   -3.663404   -0.043458
    106          1           0        9.318548   -3.820879    1.466323
    107          1           0        9.587414    0.014191    0.598327
    108          1           0       10.118888   -1.424263    1.593645
    109          1           0       12.013031   -1.758129   -0.328895
    110          1           0       11.203793   -0.624275   -1.265008
    111          1           0       11.726086    1.049908    0.215117
    112          1           0       12.718463    0.084098    1.270324
    113          1           0       13.317653    0.417803   -1.681424
    114          1           0       14.686410   -0.955476    0.594537
    115          1           0       14.073115   -1.571195   -0.713145
    116          1           0       15.154103   -0.672570   -1.124259
    117          1           0       13.615927    2.487726    0.295931
    118          1           0       14.890543    1.476992    0.780575
    119          1           0       16.346630    1.387887   -0.934206
    120          1           0       15.035507    2.206899   -2.068959
    121          1           0       15.360882    4.182160   -0.846718
    122          1           0       16.205366    3.708144    0.507282
    123          1           0       18.090846    3.043430   -1.373169
    124          1           0       16.143101    4.741082   -3.088428
    125          1           0       17.687018    4.425884   -3.529750
    126          1           0       16.464583    3.096338   -3.467451
    127          1           0       18.119956    5.366572    0.054827
    128          1           0       18.947567    5.368221   -1.482035
    129          1           0       17.396009    6.248602   -1.452605
    130          1           0       -4.945393   -7.669599   -0.281700
    131          1           0       -6.703636   -7.174696    0.407322
    132          1           0       -4.998525   -6.732970    1.268789
    133          8           0       -7.841152    6.889377   -0.173647
    134          1           0       -9.048665    6.558325   -1.767312
 ---------------------------------------------------------------------

 SCF Done:  E(RCAM-B3LYP) =  -3043.39870830     A.U. after   16 cycles

 Excitation energies and oscillator strengths:

 Excited State   1:      Singlet-A      2.1119 eV  587.07 nm  f=0.1471  <S**2>=0.000
     243 -> 246       -0.28340
     244 -> 245        0.64071
 This state for optimization and/or second-order correction.
 Total Energy, E(TD-HF/TD-KS) =  -3043.32109636
 Copying the excited state density for this state as the 1-particle RhoCI density.

 The electronic state is 1-A.
 Alpha  occ. eigenvalues --  -46.81137 -19.21223 -19.21082 -19.18830 -19.18685
 Alpha  occ. eigenvalues --  -19.18165 -19.17690 -19.17408 -14.38794 -14.37645
 Alpha  occ. eigenvalues --  -14.37124 -14.37095 -10.36245 -10.35749 -10.32198
 Alpha  occ. eigenvalues --  -10.31692 -10.31423 -10.28116 -10.27632 -10.27376
 Alpha  occ. eigenvalues --  -10.27292 -10.27287 -10.27207 -10.26559 -10.26364
 Alpha  occ. eigenvalues --  -10.26257 -10.26104 -10.25853 -10.25679 -10.25593
 Alpha  occ. eigenvalues --  -10.25516 -10.25378 -10.25329 -10.24176 -10.24131
 Alpha  occ. eigenvalues --  -10.24110 -10.24070 -10.24017 -10.23777 -10.23659
 Alpha  occ. eigenvalues --  -10.23417 -10.23194 -10.23009 -10.22738 -10.22584
 Alpha  occ. eigenvalues --  -10.22460 -10.22292 -10.22061 -10.21957 -10.21940
 Alpha  occ. eigenvalues --  -10.21699 -10.21614 -10.21574 -10.21242 -10.21172
 Alpha  occ. eigenvalues --  -10.21030 -10.20990 -10.20974 -10.20788 -10.20770
 Alpha  occ. eigenvalues --  -10.20629 -10.20288 -10.20162 -10.20129 -10.18788
 Alpha  occ. eigenvalues --  -10.16404  -3.09891  -1.84809  -1.84358  -1.84319
 Alpha  occ. eigenvalues --   -1.12146  -1.12086  -1.09070  -1.08210  -1.05008
 Alpha  occ. eigenvalues --   -1.04705  -1.03472  -1.02057  -1.00545  -0.99620
 Alpha  occ. eigenvalues --   -0.98108  -0.89334  -0.86572  -0.86261  -0.85765
 Alpha  occ. eigenvalues --   -0.85523  -0.85234  -0.84810  -0.84609  -0.83743
 Alpha  occ. eigenvalues --   -0.83500  -0.83127  -0.82032  -0.80834  -0.80165
 Alpha  occ. eigenvalues --   -0.79202  -0.78861  -0.78333  -0.77332  -0.77168
 Alpha  occ. eigenvalues --   -0.75635  -0.75497  -0.74312  -0.72952  -0.72637
 Alpha  occ. eigenvalues --   -0.71538  -0.70849  -0.70571  -0.70068  -0.69870
 Alpha  occ. eigenvalues --   -0.69530  -0.68253  -0.67491  -0.67107  -0.66555
 Alpha  occ. eigenvalues --   -0.66039  -0.64766  -0.64454  -0.63025  -0.62406
 Alpha  occ. eigenvalues --   -0.61445  -0.61027  -0.60941  -0.59657  -0.59386
 Alpha  occ. eigenvalues --   -0.58507  -0.58503  -0.57760  -0.57755  -0.57430
 Alpha  occ. eigenvalues --   -0.57052  -0.56530  -0.55598  -0.55267  -0.55064
 Alpha  occ. eigenvalues --   -0.54486  -0.54066  -0.52995  -0.52834  -0.52576
 Alpha  occ. eigenvalues --   -0.52438  -0.51581  -0.51416  -0.51270  -0.51093
 Alpha  occ. eigenvalues --   -0.50550  -0.50026  -0.49830  -0.49686  -0.49225
 Alpha  occ. eigenvalues --   -0.48934  -0.48626  -0.48189  -0.47932  -0.47731
 Alpha  occ. eigenvalues --   -0.47538  -0.47377  -0.47141  -0.46984  -0.46820
 Alpha  occ. eigenvalues --   -0.46634  -0.46533  -0.46148  -0.46096  -0.46033
 Alpha  occ. eigenvalues --   -0.45846  -0.45709  -0.45663  -0.45362  -0.45285
 Alpha  occ. eigenvalues --   -0.44725  -0.44673  -0.44493  -0.44422  -0.44318
 Alpha  occ. eigenvalues --   -0.44063  -0.43723  -0.43239  -0.43099  -0.43033
 Alpha  occ. eigenvalues --   -0.42659  -0.42537  -0.42373  -0.42198  -0.42014
 Alpha  occ. eigenvalues --   -0.41819  -0.41579  -0.41209  -0.41130  -0.40904
 Alpha  occ. eigenvalues --   -0.40541  -0.40466  -0.40387  -0.40265  -0.40061
 Alpha  occ. eigenvalues --   -0.39916  -0.39540  -0.39466  -0.39141  -0.39027
 Alpha  occ. eigenvalues --   -0.38841  -0.38739  -0.38632  -0.38258  -0.38168
 Alpha  occ. eigenvalues --   -0.37847  -0.37692  -0.37522  -0.37337  -0.36587
 Alpha  occ. eigenvalues --   -0.36525  -0.36193  -0.36164  -0.35777  -0.35705
 Alpha  occ. eigenvalues --   -0.35573  -0.35340  -0.35195  -0.34970  -0.34768
 Alpha  occ. eigenvalues --   -0.34492  -0.34440  -0.34247  -0.33459  -0.32722
 Alpha  occ. eigenvalues --   -0.32624  -0.32288  -0.32156  -0.32076  -0.31842
 Alpha  occ. eigenvalues --   -0.31710  -0.31410  -0.31168  -0.31009  -0.30221
 Alpha  occ. eigenvalues --   -0.30037  -0.28715  -0.28413  -0.28227  -0.27868
 Alpha  occ. eigenvalues --   -0.27737  -0.26558  -0.23885  -0.22288
 Alpha virt. eigenvalues --   -0.08749  -0.07298  -0.02445  -0.01513   0.00295
 Alpha virt. eigenvalues --    0.01984   0.02333   0.02582   0.03950   0.04326
 Alpha virt. eigenvalues --    0.04970   0.05576   0.07660   0.08401   0.08692

 Mulliken charges:
               1
     1  Mg   0.831301
     2  C    0.093645
     3  C   -0.166279
     4  C   -0.154204
     5  C   -0.160616
     6  N   -0.642039
     7  C    0.310585
     8  C   -0.162396
     9  C   -0.152172
    10  C    0.350012
    11  C   -0.282976
    12  C   -0.170471
    13  C   -0.271025
    14  C    0.609046
    15  O   -0.459946
    16  O   -0.493029
    17  N   -0.730910
    18  C    0.343964
    19  C    0.039824
    20  C   -0.014766
    21  C    0.302512
    22  C   -0.380350
    23  C    0.232155
    24  O   -0.437763
    25  N   -0.680786
    26  C    0.267539
    27  C    0.046461
    28  C    0.011860
    29  C    0.284715
    30  C    0.228635
    31  C   -0.253547
    32  C   -0.320488
    33  N   -0.742077
    34  C    0.207951
    35  C    0.096755
    36  C   -0.019175
    37  C    0.341569
    38  C   -0.407432
    39  C    0.365530
    40  O   -0.422016
    41  C   -0.311391
    42  C    0.620496
    43  O   -0.457660
    44  O   -0.476236
    45  C   -0.051062
    46  C    0.008125
    47  C   -0.116011
    48  C    0.116956
    49  C   -0.382623
    50  C   -0.229459
    51  C   -0.174446
    52  C   -0.159264
    53  C   -0.060796
    54  C   -0.328873
    55  C   -0.148483
    56  C   -0.184872
    57  C   -0.141961
    58  C   -0.094477
    59  C   -0.276986
    60  C   -0.182163
    61  C   -0.166478
    62  C   -0.168749
    63  C   -0.027068
    64  C   -0.296240
    65  C   -0.316875
    66  H    0.081538
    67  H    0.117357
    68  H    0.107787
    69  H    0.106997
    70  H    0.077677
    71  H    0.109418
    72  H    0.101712
    73  H    0.115617
    74  H    0.114841
    75  H    0.124819
    76  H    0.142826
    77  H    0.143314
    78  H    0.111048
    79  H    0.155075
    80  H    0.135387
    81  H    0.076882
    82  H    0.089958
    83  H    0.116692
    84  H    0.106025
    85  H    0.129881
    86  H    0.112885
    87  H    0.141794
    88  H    0.143626
    89  H    0.118204
    90  H    0.177136
    91  H    0.117535
    92  H    0.130038
    93  H    0.065091
    94  H    0.153780
    95  H    0.087338
    96  H    0.128519
    97  H    0.082350
    98  H    0.096767
    99  H    0.105783
   100  H    0.089652
   101  H    0.102704
   102  H    0.073172
   103  H    0.069499
   104  H    0.101689
   105  H    0.111711
   106  H    0.085869
   107  H    0.072214
   108  H    0.097456
   109  H    0.096525
   110  H    0.088747
   111  H    0.092349
   112  H    0.076512
   113  H    0.078557
   114  H    0.094871
   115  H    0.092677
   116  H    0.091816
   117  H    0.083927
   118  H    0.090516
   119  H    0.088899
   120  H    0.095200
   121  H    0.079872
   122  H    0.061546
   123  H    0.096145
   124  H    0.098707
   125  H    0.103865
   126  H    0.060825
   127  H    0.113815
   128  H    0.088312
   129  H    0.083401
   130  H    0.132213
   131  H    0.095808
   132  H    0.103779
   133  O   -0.398356
   134  H    0.046808
 Sum of Mulliken charges =   0.00000

 Dipole moment (field-independent basis, Debye):
    X=              1.1362    Y=             -4.6761    Z=             -1.8856  Tot=              5.1684
 Quadrupole moment (field-independent basis, Debye-Ang):
   XX=           -375.1931   YY=           -445.5677   ZZ=           -393.4045
   XY=              1.9087   XZ=             21.7882   YZ=            -33.7258

 Normal termination of Gaussian 09 at Thu Oct  3 18:17:06 2019.
