 Gaussian 09, Revision D.01,
 Gaussian 09:  ES64L-G09RevD.01 24-Apr-2013

 ----------------------------------------------------------------------
 # td=(NStates=1) iop(3/107=0140000000,3/108=0140000000) iop(3/107=0140
 000000,3/108=0140000000) CAM-B3LYP/6-31G(d,p)
 ----------------------------------------------------------------------

 --
 TD
 --
 Symbolic Z-matrix:
 Charge =  0 Multiplicity = 1

                         Standard orientation:
 ---------------------------------------------------------------------
 Center     Atomic      Atomic             Coordinates (Angstroms)
 Number     Number       Type             X           Y           Z
 ---------------------------------------------------------------------
      1         12           0       -5.484053    1.279494    0.132374
      2          6           0       -4.905284   -2.121665   -0.326670
      3          6           0       -3.441429    1.199698    2.764056
      4          6           0       -6.120451    4.518398    0.508766
      5          6           0       -7.862556    1.144888   -2.439217
      6          7           0       -4.357285   -0.258311    1.136599
      7          6           0       -4.266695   -1.605996    0.729267
      8          6           0       -3.145602   -2.307955    1.471075
      9          6           0       -2.944617   -1.256862    2.610216
     10          6           0       -3.543820   -0.026982    2.124423
     11          6           0       -3.530293   -1.827567    3.973965
     12          6           0       -1.898559   -2.605893    0.655324
     13          6           0       -0.960539   -3.533733    1.513829
     14          6           0        0.201794   -3.998883    0.661427
     15          8           0        0.406825   -3.531915   -0.425381
     16          8           0        1.066295   -4.749401    1.255391
     17          7           0       -4.925112    2.655751    1.414271
     18          6           0       -3.997888    2.440124    2.505806
     19          6           0       -3.728646    3.686897    3.228337
     20          6           0       -4.508023    4.577282    2.506353
     21          6           0       -5.192607    3.984053    1.465357
     22          6           0       -2.799034    3.900780    4.369480
     23          6           0       -4.629966    5.989363    2.884171
     24          8           0       -4.047857    6.611058    3.831789
     25          7           0       -6.813979    2.617473   -0.770498
     26          6           0       -6.904706    3.940386   -0.462075
     27          6           0       -7.917020    4.640161   -1.261673
     28          6           0       -8.442030    3.604407   -2.038546
     29          6           0       -7.723032    2.356949   -1.754910
     30          6           0       -8.341179    6.020970   -1.179850
     31          6           0       -9.402141    3.836846   -3.168753
     32          6           0       -8.866909    3.760625   -4.562122
     33          7           0       -6.361102   -0.111573   -1.143006
     34          6           0       -7.273820   -0.125662   -2.157783
     35          6           0       -7.441218   -1.291669   -2.733306
     36          6           0       -6.621504   -2.190160   -2.028168
     37          6           0       -5.947088   -1.392869   -1.105087
     38          6           0       -8.472347   -1.603316   -3.792055
     39          6           0       -6.075852   -3.618346   -1.974465
     40          8           0       -6.351495   -4.672829   -2.585001
     41          6           0       -5.049862   -3.508819   -0.837396
     42          6           0       -5.207140   -4.607984    0.133316
     43          8           0       -5.656222   -4.338987    1.282191
     44          8           0       -4.976347   -5.876795   -0.242532
     45          6           0       -5.372252   -7.027403    0.657027
     46          6           0        2.304815   -5.130556    0.548259
     47          6           0        3.453757   -4.214041    0.922323
     48          6           0        3.948303   -3.327770    0.099016
     49          6           0        3.712771   -3.036777   -1.343654
     50          6           0        5.125768   -2.353039    0.554794
     51          6           0        6.439948   -2.589091    0.000461
     52          6           0        7.547297   -1.776085    0.650004
     53          6           0        8.875372   -1.843553   -0.115524
     54          6           0        9.529058   -3.229608    0.207034
     55          6           0        9.928552   -0.827061    0.373246
     56          6           0       11.310770   -0.872151   -0.341736
     57          6           0       12.093646    0.324981    0.083733
     58          6           0       13.490505    0.499136   -0.598999
     59          6           0       14.455876   -0.720100   -0.307075
     60          6           0       14.095875    1.856523   -0.148911
     61          6           0       15.447099    2.207283   -0.835515
     62          6           0       16.003520    3.507850   -0.567095
     63          6           0       17.296556    3.746686   -1.318008
     64          6           0       17.133559    3.841247   -2.824365
     65          6           0       17.870061    5.162949   -0.846804
     66          1           0       -2.825168    1.199358    3.790266
     67          1           0       -6.513485    5.527235    0.676404
     68          1           0       -8.616577    1.210542   -3.077412
     69          1           0       -3.555526   -3.317733    1.890373
     70          1           0       -1.890441   -1.404451    2.944835
     71          1           0       -3.389404   -2.852194    4.299517
     72          1           0       -3.576827   -1.137994    4.900828
     73          1           0       -4.618866   -1.732583    3.644995
     74          1           0       -2.160771   -3.166036   -0.295854
     75          1           0       -1.570179   -1.660832    0.365532
     76          1           0       -0.521136   -3.053878    2.353460
     77          1           0       -1.493309   -4.422976    1.743269
     78          1           0       -1.830852    3.559421    3.974018
     79          1           0       -2.740876    4.904356    4.628993
     80          1           0       -2.973603    3.404155    5.173405
     81          1           0       -5.408490    6.629934    2.234920
     82          1           0      -10.082370    2.985510   -3.059804
     83          1           0       -9.906032    4.736820   -3.065509
     84          1           0       -9.821355    3.939013   -5.301691
     85          1           0       -8.136281    4.733777   -4.730232
     86          1           0       -8.350972    2.919130   -4.753603
     87          1           0       -8.224625   -1.107210   -4.857664
     88          1           0       -8.458317   -2.643188   -4.129559
     89          1           0       -9.575836   -1.517646   -3.451498
     90          1           0       -4.212023   -3.688341   -1.417857
     91          1           0        2.357650   -6.163538    0.849251
     92          1           0        1.940468   -5.076381   -0.546546
     93          1           0        4.172671   -4.518499    1.948134
     94          1           0        2.806740   -3.617234   -1.569478
     95          1           0        3.479222   -1.976400   -1.801958
     96          1           0        4.566496   -3.432637   -1.985803
     97          1           0        4.566730   -1.319381    0.382306
     98          1           0        4.978911   -2.419988    1.723705
     99          1           0        6.631844   -3.574634    0.079200
    100          1           0        6.252769   -2.427851   -1.019020
    101          1           0        7.113651   -0.748553    0.387846
    102          1           0        7.642997   -1.905772    1.663243
    103          1           0        8.631915   -1.575310   -1.174575
    104          1           0        8.739686   -4.037579   -0.292407
    105          1           0       10.584805   -3.363759   -0.298182
    106          1           0        9.605453   -3.407416    1.253656
    107          1           0        9.565669    0.186290    0.237263
    108          1           0       10.125995   -1.030680    1.496430
    109          1           0       11.758011   -1.650282    0.171252
    110          1           0       11.239566   -0.912498   -1.388341
    111          1           0       11.507837    1.213603   -0.072205
    112          1           0       12.318327    0.257506    1.170812
    113          1           0       13.230405    0.292880   -1.600122
    114          1           0       14.574134   -1.183579    0.817311
    115          1           0       14.033202   -1.636309   -0.550459
    116          1           0       15.611442   -0.723224   -0.690221
    117          1           0       13.474504    2.846715   -0.302811
    118          1           0       14.438578    1.619482    0.810145
    119          1           0       16.146331    1.613718   -0.551608
    120          1           0       15.151814    2.170159   -1.933893
    121          1           0       15.225721    4.269391   -1.031287
    122          1           0       16.286101    4.009522    0.513832
    123          1           0       18.064360    3.165198   -0.832441
    124          1           0       16.342335    4.494517   -3.227026
    125          1           0       18.109332    4.063783   -3.304748
    126          1           0       16.771391    2.819370   -3.369192
    127          1           0       17.992582    5.164209    0.086735
    128          1           0       18.854092    5.376210   -1.387873
    129          1           0       16.972269    6.028285   -1.029089
    130          1           0       -4.943193   -7.827452    0.138672
    131          1           0       -6.294067   -6.877162    1.043531
    132          1           0       -4.870267   -6.897080    1.720641
    133          8           0       -7.886002    6.760566   -0.356378
    134          1           0       -9.120486    6.315974   -1.933297
 ---------------------------------------------------------------------

 SCF Done:  E(RCAM-B3LYP) =  -3043.42059319     A.U. after   16 cycles

 Excitation energies and oscillator strengths:

 Excited State   1:      Singlet-A      1.9641 eV  631.27 nm  f=0.2147  <S**2>=0.000
     243 -> 246        0.18349
     244 -> 245        0.67649
 This state for optimization and/or second-order correction.
 Total Energy, E(TD-HF/TD-KS) =  -3043.34841559
 Copying the excited state density for this state as the 1-particle RhoCI density.

 The electronic state is 1-A.
 Alpha  occ. eigenvalues --  -46.81631 -19.22743 -19.21656 -19.17861 -19.17241
 Alpha  occ. eigenvalues --  -19.16915 -19.15829 -19.15285 -14.39260 -14.36656
 Alpha  occ. eigenvalues --  -14.36538 -14.35742 -10.35040 -10.33489 -10.32185
 Alpha  occ. eigenvalues --  -10.31027 -10.30861 -10.28439 -10.28074 -10.27742
 Alpha  occ. eigenvalues --  -10.27212 -10.26612 -10.26545 -10.26302 -10.26225
 Alpha  occ. eigenvalues --  -10.25530 -10.25248 -10.25033 -10.24401 -10.24365
 Alpha  occ. eigenvalues --  -10.24182 -10.24003 -10.23921 -10.23838 -10.23736
 Alpha  occ. eigenvalues --  -10.23723 -10.23529 -10.23445 -10.23393 -10.23247
 Alpha  occ. eigenvalues --  -10.23239 -10.23040 -10.23034 -10.22820 -10.22771
 Alpha  occ. eigenvalues --  -10.22725 -10.22499 -10.22453 -10.22398 -10.22255
 Alpha  occ. eigenvalues --  -10.22176 -10.22080 -10.21986 -10.21906 -10.21534
 Alpha  occ. eigenvalues --  -10.21415 -10.21310 -10.20952 -10.20932 -10.20826
 Alpha  occ. eigenvalues --  -10.20492 -10.20305 -10.20036 -10.19873 -10.19499
 Alpha  occ. eigenvalues --  -10.18846  -3.10170  -1.85104  -1.84643  -1.84579
 Alpha  occ. eigenvalues --   -1.14618  -1.11675  -1.08908  -1.05141  -1.04148
 Alpha  occ. eigenvalues --   -1.03345  -1.01920  -1.01564  -1.00850  -0.99793
 Alpha  occ. eigenvalues --   -0.98835  -0.89205  -0.86925  -0.85955  -0.85869
 Alpha  occ. eigenvalues --   -0.85651  -0.85000  -0.84810  -0.83967  -0.83623
 Alpha  occ. eigenvalues --   -0.83571  -0.83015  -0.81617  -0.80914  -0.80145
 Alpha  occ. eigenvalues --   -0.79517  -0.78908  -0.78375  -0.77629  -0.77020
 Alpha  occ. eigenvalues --   -0.76285  -0.75590  -0.74292  -0.73555  -0.72397
 Alpha  occ. eigenvalues --   -0.70941  -0.70686  -0.70377  -0.70091  -0.69815
 Alpha  occ. eigenvalues --   -0.69632  -0.69061  -0.67839  -0.66906  -0.66592
 Alpha  occ. eigenvalues --   -0.65844  -0.65063  -0.64371  -0.63006  -0.62054
 Alpha  occ. eigenvalues --   -0.61575  -0.61098  -0.61028  -0.59578  -0.59391
 Alpha  occ. eigenvalues --   -0.58799  -0.58574  -0.58122  -0.57916  -0.57324
 Alpha  occ. eigenvalues --   -0.56715  -0.56622  -0.55489  -0.55097  -0.54971
 Alpha  occ. eigenvalues --   -0.54178  -0.53410  -0.53279  -0.53061  -0.52349
 Alpha  occ. eigenvalues --   -0.52216  -0.52033  -0.51601  -0.51431  -0.51115
 Alpha  occ. eigenvalues --   -0.50685  -0.50282  -0.49432  -0.49387  -0.49118
 Alpha  occ. eigenvalues --   -0.48845  -0.48563  -0.48283  -0.48098  -0.48007
 Alpha  occ. eigenvalues --   -0.47715  -0.47642  -0.47203  -0.47123  -0.46676
 Alpha  occ. eigenvalues --   -0.46587  -0.46474  -0.46224  -0.45879  -0.45713
 Alpha  occ. eigenvalues --   -0.45478  -0.45444  -0.44933  -0.44907  -0.44769
 Alpha  occ. eigenvalues --   -0.44551  -0.44465  -0.44278  -0.44162  -0.43724
 Alpha  occ. eigenvalues --   -0.43397  -0.43208  -0.43157  -0.42861  -0.42734
 Alpha  occ. eigenvalues --   -0.42634  -0.42352  -0.42339  -0.42048  -0.41817
 Alpha  occ. eigenvalues --   -0.41735  -0.41631  -0.41308  -0.41067  -0.40951
 Alpha  occ. eigenvalues --   -0.40914  -0.40568  -0.40456  -0.40321  -0.40055
 Alpha  occ. eigenvalues --   -0.39788  -0.39723  -0.39396  -0.39274  -0.39184
 Alpha  occ. eigenvalues --   -0.39058  -0.38731  -0.38520  -0.38171  -0.38142
 Alpha  occ. eigenvalues --   -0.37619  -0.37353  -0.37201  -0.36716  -0.36681
 Alpha  occ. eigenvalues --   -0.36439  -0.36203  -0.36131  -0.35840  -0.35816
 Alpha  occ. eigenvalues --   -0.35652  -0.35180  -0.34980  -0.34609  -0.34322
 Alpha  occ. eigenvalues --   -0.33834  -0.33604  -0.33547  -0.33326  -0.32864
 Alpha  occ. eigenvalues --   -0.32375  -0.32193  -0.31698  -0.31649  -0.31302
 Alpha  occ. eigenvalues --   -0.31289  -0.30397  -0.30172  -0.29751  -0.29412
 Alpha  occ. eigenvalues --   -0.28980  -0.28793  -0.28460  -0.28129  -0.27830
 Alpha  occ. eigenvalues --   -0.27529  -0.27191  -0.23349  -0.21652
 Alpha virt. eigenvalues --   -0.09312  -0.06214  -0.01740  -0.00863   0.00653
 Alpha virt. eigenvalues --    0.02681   0.02811   0.03150   0.04594   0.05081
 Alpha virt. eigenvalues --    0.05864   0.06037   0.08278   0.08958   0.09450

 Mulliken charges:
               1
     1  Mg   0.833729
     2  C    0.087614
     3  C   -0.223576
     4  C   -0.208330
     5  C   -0.148682
     6  N   -0.645888
     7  C    0.301185
     8  C   -0.173980
     9  C   -0.176804
    10  C    0.423123
    11  C   -0.329509
    12  C   -0.145337
    13  C   -0.264194
    14  C    0.568397
    15  O   -0.477828
    16  O   -0.449852
    17  N   -0.741713
    18  C    0.275644
    19  C    0.081204
    20  C   -0.040486
    21  C    0.373823
    22  C   -0.367645
    23  C    0.226943
    24  O   -0.444696
    25  N   -0.694455
    26  C    0.297289
    27  C    0.018572
    28  C   -0.018584
    29  C    0.315572
    30  C    0.254005
    31  C   -0.236816
    32  C   -0.278433
    33  N   -0.714107
    34  C    0.306203
    35  C    0.031076
    36  C   -0.009343
    37  C    0.271796
    38  C   -0.394220
    39  C    0.367305
    40  O   -0.469494
    41  C   -0.302351
    42  C    0.624101
    43  O   -0.509034
    44  O   -0.462199
    45  C   -0.075656
    46  C   -0.015335
    47  C   -0.126996
    48  C    0.139747
    49  C   -0.365394
    50  C   -0.225115
    51  C   -0.158067
    52  C   -0.159375
    53  C   -0.052488
    54  C   -0.305148
    55  C   -0.173876
    56  C   -0.171008
    57  C   -0.181041
    58  C   -0.054572
    59  C   -0.330509
    60  C   -0.164983
    61  C   -0.157695
    62  C   -0.153642
    63  C   -0.050472
    64  C   -0.297858
    65  C   -0.294038
    66  H    0.081515
    67  H    0.125008
    68  H    0.066879
    69  H    0.117996
    70  H    0.107663
    71  H    0.129262
    72  H    0.101670
    73  H    0.116358
    74  H    0.110967
    75  H    0.119746
    76  H    0.142832
    77  H    0.135496
    78  H    0.125702
    79  H    0.166386
    80  H    0.138953
    81  H    0.078423
    82  H    0.114105
    83  H    0.112907
    84  H    0.092690
    85  H    0.084793
    86  H    0.125764
    87  H    0.102575
    88  H    0.144885
    89  H    0.121600
    90  H    0.171918
    91  H    0.121324
    92  H    0.135351
    93  H    0.075931
    94  H    0.128815
    95  H    0.115941
    96  H    0.119885
    97  H    0.086780
    98  H    0.068243
    99  H    0.108581
   100  H    0.102000
   101  H    0.081168
   102  H    0.097993
   103  H    0.078445
   104  H    0.069258
   105  H    0.097113
   106  H    0.114492
   107  H    0.081382
   108  H    0.071595
   109  H    0.109128
   110  H    0.094133
   111  H    0.089495
   112  H    0.085049
   113  H    0.091647
   114  H    0.059938
   115  H    0.117087
   116  H    0.093019
   117  H    0.077362
   118  H    0.106787
   119  H    0.097613
   120  H    0.092425
   121  H    0.058466
   122  H    0.060912
   123  H    0.096295
   124  H    0.112553
   125  H    0.100778
   126  H    0.069649
   127  H    0.111233
   128  H    0.089050
   129  H    0.061455
   130  H    0.147298
   131  H    0.161467
   132  H    0.108670
   133  O   -0.404848
   134  H    0.066448
 Sum of Mulliken charges =   0.00000

 Dipole moment (field-independent basis, Debye):
    X=              2.7762    Y=             -5.1566    Z=             -1.0702  Tot=              5.9534
 Quadrupole moment (field-independent basis, Debye-Ang):
   XX=           -378.1857   YY=           -433.2716   ZZ=           -394.0790
   XY=             -4.5945   XZ=             22.9608   YZ=            -39.5276

 Normal termination of Gaussian 09 at Fri Oct  4 02:09:48 2019.
