 Gaussian 09, Revision D.01,
 Gaussian 09:  ES64L-G09RevD.01 24-Apr-2013

 ----------------------------------------------------------------------
 # td=(NStates=1) iop(3/107=0140000000,3/108=0140000000) iop(3/107=0140
 000000,3/108=0140000000) CAM-B3LYP/6-31G(d,p)
 ----------------------------------------------------------------------

 --
 TD
 --
 Symbolic Z-matrix:
 Charge =  0 Multiplicity = 1

                         Standard orientation:
 ---------------------------------------------------------------------
 Center     Atomic      Atomic             Coordinates (Angstroms)
 Number     Number       Type             X           Y           Z
 ---------------------------------------------------------------------
      1         12           0       -5.647557    1.229205    0.210231
      2          6           0       -4.976207   -2.045383   -0.373332
      3          6           0       -3.460628    1.263790    2.862915
      4          6           0       -6.257850    4.547500    0.706985
      5          6           0       -7.856438    1.122681   -2.455245
      6          7           0       -4.406390   -0.260672    1.097445
      7          6           0       -4.298804   -1.539166    0.710515
      8          6           0       -3.264971   -2.308708    1.502246
      9          6           0       -2.920658   -1.320316    2.656731
     10          6           0       -3.652723   -0.013863    2.148116
     11          6           0       -3.489759   -1.824559    4.116231
     12          6           0       -2.112878   -2.723081    0.593512
     13          6           0       -1.009249   -3.643965    1.332527
     14          6           0        0.213022   -3.867807    0.627550
     15          8           0        0.444933   -3.403223   -0.433857
     16          8           0        1.000414   -4.690867    1.315810
     17          7           0       -4.934004    2.697179    1.589665
     18          6           0       -4.036980    2.363659    2.515378
     19          6           0       -3.769492    3.632006    3.129345
     20          6           0       -4.492421    4.658279    2.505715
     21          6           0       -5.182211    3.943509    1.507397
     22          6           0       -2.764959    3.950532    4.145683
     23          6           0       -4.559464    6.060859    2.909669
     24          8           0       -3.814883    6.682973    3.697741
     25          7           0       -6.853836    2.602520   -0.667272
     26          6           0       -6.994426    3.808836   -0.231650
     27          6           0       -7.964154    4.590222   -1.136300
     28          6           0       -8.417881    3.638747   -1.977165
     29          6           0       -7.713920    2.418589   -1.744969
     30          6           0       -8.309486    6.062783   -1.120440
     31          6           0       -9.452535    3.754034   -3.110915
     32          6           0       -8.693649    4.076340   -4.539736
     33          7           0       -6.288262   -0.156358   -1.218261
     34          6           0       -7.154311   -0.094595   -2.251711
     35          6           0       -7.428822   -1.413920   -2.808734
     36          6           0       -6.495323   -2.185309   -2.113937
     37          6           0       -5.962196   -1.429877   -1.174838
     38          6           0       -8.298756   -1.626223   -3.977205
     39          6           0       -6.063611   -3.556224   -2.048634
     40          8           0       -6.306735   -4.634991   -2.629153
     41          6           0       -4.966374   -3.505618   -0.839803
     42          6           0       -5.276616   -4.589648    0.175793
     43          8           0       -5.704125   -4.530044    1.205533
     44          8           0       -4.808632   -5.815173   -0.352219
     45          6           0       -5.195240   -6.992265    0.345260
     46          6           0        2.199762   -5.068571    0.634254
     47          6           0        3.271018   -4.111539    1.062914
     48          6           0        4.022578   -3.400006    0.203079
     49          6           0        3.634591   -3.182572   -1.236249
     50          6           0        5.013372   -2.484560    0.687129
     51          6           0        6.396880   -2.683311   -0.025831
     52          6           0        7.489240   -1.740612    0.597909
     53          6           0        8.913442   -2.045040   -0.009233
     54          6           0        9.406696   -3.369137    0.446880
     55          6           0        9.885174   -0.840384    0.407156
     56          6           0       11.201041   -0.829604   -0.237307
     57          6           0       12.142654    0.380705    0.145133
     58          6           0       13.464405    0.516531   -0.605357
     59          6           0       14.447916   -0.778928   -0.303348
     60          6           0       14.142969    1.733352   -0.199824
     61          6           0       15.442526    2.091565   -1.020577
     62          6           0       15.920683    3.466407   -0.639370
     63          6           0       17.307706    3.936337   -1.393815
     64          6           0       17.213219    4.147576   -2.977293
     65          6           0       17.825557    5.208216   -0.750565
     66          1           0       -2.793669    1.353196    3.752903
     67          1           0       -6.360684    5.560572    0.765414
     68          1           0       -8.680957    1.184935   -3.196703
     69          1           0       -3.738670   -3.300663    1.878545
     70          1           0       -1.802737   -1.147452    2.583988
     71          1           0       -2.903566   -2.789883    4.315035
     72          1           0       -3.144601   -1.219467    4.818734
     73          1           0       -4.445780   -1.815755    4.316431
     74          1           0       -2.269210   -3.160766   -0.421274
     75          1           0       -1.488757   -1.815905    0.235819
     76          1           0       -0.657910   -3.222008    2.319800
     77          1           0       -1.443737   -4.750698    1.615926
     78          1           0       -1.846057    3.798267    3.641550
     79          1           0       -3.010537    5.055142    4.477571
     80          1           0       -2.624997    3.044415    5.089169
     81          1           0       -5.358056    6.545921    2.219823
     82          1           0      -10.017540    2.864987   -3.143894
     83          1           0      -10.044786    4.568605   -2.934525
     84          1           0       -9.460681    4.323737   -5.209533
     85          1           0       -8.027147    4.958257   -4.529847
     86          1           0       -8.181240    3.182224   -4.859794
     87          1           0       -8.078330   -0.829303   -4.834174
     88          1           0       -8.281717   -2.604540   -4.036584
     89          1           0       -9.507516   -1.187384   -3.649085
     90          1           0       -4.167498   -3.704533   -1.612482
     91          1           0        2.528466   -6.025116    1.079553
     92          1           0        2.128751   -5.256087   -0.439834
     93          1           0        3.546109   -4.084390    2.015369
     94          1           0        2.541873   -3.345388   -1.549513
     95          1           0        3.971696   -2.324475   -1.615559
     96          1           0        4.200325   -3.980215   -1.831158
     97          1           0        4.683642   -1.447149    0.552315
     98          1           0        5.169536   -2.427406    1.891726
     99          1           0        6.519253   -3.772296    0.126079
    100          1           0        6.456130   -2.629615   -0.977854
    101          1           0        7.213589   -0.806259    0.538745
    102          1           0        7.523529   -1.899506    1.617307
    103          1           0        8.989279   -1.974328   -1.069689
    104          1           0        8.724040   -4.244991    0.145147
    105          1           0       10.472610   -3.558978   -0.016793
    106          1           0        9.707828   -3.673797    1.400892
    107          1           0        9.491735    0.130653    0.312131
    108          1           0        9.919249   -0.992809    1.347249
    109          1           0       11.825902   -1.551743   -0.052646
    110          1           0       11.028226   -0.902779   -1.268591
    111          1           0       11.700229    1.490298    0.056285
    112          1           0       12.529879    0.153297    1.213601
    113          1           0       13.364595    0.594789   -1.903693
    114          1           0       14.553449   -0.903632    0.767518
    115          1           0       13.886244   -1.676042   -0.674039
    116          1           0       15.467487   -0.792794   -0.683996
    117          1           0       13.372043    2.310375   -0.417290
    118          1           0       14.229526    1.617952    0.810939
    119          1           0       16.097670    1.391020   -0.948495
    120          1           0       15.065842    2.009250   -2.128330
    121          1           0       15.126815    4.353197   -0.606375
    122          1           0       16.202253    3.244669    0.406019
    123          1           0       17.983262    2.829328   -1.412703
    124          1           0       16.664322    5.097264   -3.123444
    125          1           0       18.148165    4.473587   -3.302146
    126          1           0       16.595544    3.222709   -3.623546
    127          1           0       18.161511    4.990634    0.214449
    128          1           0       18.833206    5.474620   -1.150679
    129          1           0       17.255805    6.066925   -0.775370
    130          1           0       -4.972627   -8.016150   -0.130104
    131          1           0       -6.330733   -6.934460    0.687853
    132          1           0       -4.819659   -7.063992    1.319896
    133          8           0       -7.755713    6.854227   -0.415691
    134          1           0       -9.082934    6.359993   -1.878962
 ---------------------------------------------------------------------

 SCF Done:  E(RCAM-B3LYP) =  -3043.33412653     A.U. after   16 cycles

 Excitation energies and oscillator strengths:

 Excited State   1:      Singlet-A      2.0307 eV  610.55 nm  f=0.2331  <S**2>=0.000
     243 -> 246       -0.23121
     244 -> 245        0.66084
 This state for optimization and/or second-order correction.
 Total Energy, E(TD-HF/TD-KS) =  -3043.25949968
 Copying the excited state density for this state as the 1-particle RhoCI density.

 The electronic state is 1-A.
 Alpha  occ. eigenvalues --  -46.83194 -19.22150 -19.20228 -19.18574 -19.18134
 Alpha  occ. eigenvalues --  -19.17824 -19.17440 -19.16662 -14.40263 -14.37244
 Alpha  occ. eigenvalues --  -14.36415 -14.36278 -10.34844 -10.33809 -10.31895
 Alpha  occ. eigenvalues --  -10.31521 -10.31238 -10.29274 -10.27184 -10.27100
 Alpha  occ. eigenvalues --  -10.26932 -10.26660 -10.26630 -10.26166 -10.26151
 Alpha  occ. eigenvalues --  -10.25887 -10.25658 -10.25393 -10.24980 -10.24849
 Alpha  occ. eigenvalues --  -10.24797 -10.24731 -10.24588 -10.24471 -10.24313
 Alpha  occ. eigenvalues --  -10.24251 -10.24237 -10.24019 -10.23884 -10.23847
 Alpha  occ. eigenvalues --  -10.23390 -10.22952 -10.22870 -10.22816 -10.22553
 Alpha  occ. eigenvalues --  -10.22490 -10.22251 -10.22056 -10.22039 -10.21935
 Alpha  occ. eigenvalues --  -10.21785 -10.21781 -10.21732 -10.21680 -10.21192
 Alpha  occ. eigenvalues --  -10.20612 -10.20221 -10.20088 -10.20032 -10.19889
 Alpha  occ. eigenvalues --  -10.19549 -10.19535 -10.19280 -10.18812 -10.18150
 Alpha  occ. eigenvalues --  -10.17852  -3.11561  -1.86524  -1.86025  -1.85952
 Alpha  occ. eigenvalues --   -1.16277  -1.14861  -1.08886  -1.06262  -1.05741
 Alpha  occ. eigenvalues --   -1.05477  -1.05203  -1.03495  -1.02795  -1.02010
 Alpha  occ. eigenvalues --   -1.00952  -0.89245  -0.86493  -0.86414  -0.85976
 Alpha  occ. eigenvalues --   -0.85271  -0.84962  -0.84554  -0.84499  -0.83704
 Alpha  occ. eigenvalues --   -0.82518  -0.82135  -0.81708  -0.80372  -0.79870
 Alpha  occ. eigenvalues --   -0.79266  -0.78153  -0.77947  -0.76907  -0.76466
 Alpha  occ. eigenvalues --   -0.75808  -0.75203  -0.74641  -0.72698  -0.72177
 Alpha  occ. eigenvalues --   -0.71577  -0.71055  -0.70639  -0.70612  -0.69993
 Alpha  occ. eigenvalues --   -0.69612  -0.69130  -0.68116  -0.67683  -0.66999
 Alpha  occ. eigenvalues --   -0.66681  -0.65297  -0.64911  -0.64007  -0.62480
 Alpha  occ. eigenvalues --   -0.62012  -0.61938  -0.61745  -0.60973  -0.58968
 Alpha  occ. eigenvalues --   -0.58846  -0.57988  -0.57581  -0.57564  -0.56996
 Alpha  occ. eigenvalues --   -0.56556  -0.56325  -0.56096  -0.55703  -0.55023
 Alpha  occ. eigenvalues --   -0.54527  -0.53810  -0.52828  -0.52391  -0.52266
 Alpha  occ. eigenvalues --   -0.52051  -0.51950  -0.51648  -0.51210  -0.50898
 Alpha  occ. eigenvalues --   -0.50830  -0.50169  -0.50166  -0.49634  -0.49174
 Alpha  occ. eigenvalues --   -0.48847  -0.48576  -0.48465  -0.48082  -0.47988
 Alpha  occ. eigenvalues --   -0.47897  -0.47674  -0.47600  -0.47465  -0.47170
 Alpha  occ. eigenvalues --   -0.46800  -0.46624  -0.46397  -0.46302  -0.45961
 Alpha  occ. eigenvalues --   -0.45779  -0.45553  -0.45391  -0.44939  -0.44584
 Alpha  occ. eigenvalues --   -0.44502  -0.44438  -0.44347  -0.44137  -0.44034
 Alpha  occ. eigenvalues --   -0.43777  -0.43514  -0.43245  -0.43021  -0.42968
 Alpha  occ. eigenvalues --   -0.42760  -0.42626  -0.42500  -0.42180  -0.42013
 Alpha  occ. eigenvalues --   -0.41762  -0.41409  -0.41352  -0.41147  -0.41065
 Alpha  occ. eigenvalues --   -0.41001  -0.40735  -0.40679  -0.40290  -0.40267
 Alpha  occ. eigenvalues --   -0.40213  -0.40115  -0.39987  -0.39741  -0.39484
 Alpha  occ. eigenvalues --   -0.39103  -0.39050  -0.38986  -0.38908  -0.38709
 Alpha  occ. eigenvalues --   -0.38636  -0.38446  -0.37949  -0.37875  -0.37493
 Alpha  occ. eigenvalues --   -0.37261  -0.36815  -0.36778  -0.36398  -0.35861
 Alpha  occ. eigenvalues --   -0.35748  -0.35489  -0.35297  -0.34891  -0.34710
 Alpha  occ. eigenvalues --   -0.34513  -0.33817  -0.33347  -0.32931  -0.32725
 Alpha  occ. eigenvalues --   -0.32572  -0.32281  -0.32049  -0.31964  -0.31657
 Alpha  occ. eigenvalues --   -0.31224  -0.31142  -0.30533  -0.30267  -0.30100
 Alpha  occ. eigenvalues --   -0.29015  -0.28787  -0.28349  -0.28053  -0.27683
 Alpha  occ. eigenvalues --   -0.27511  -0.26181  -0.23366  -0.21261
 Alpha virt. eigenvalues --   -0.08646  -0.06481  -0.02510  -0.00789   0.00424
 Alpha virt. eigenvalues --    0.02913   0.03274   0.04150   0.04308   0.04492
 Alpha virt. eigenvalues --    0.04845   0.06042   0.07797   0.07964   0.08739

 Mulliken charges:
               1
     1  Mg   0.831550
     2  C    0.051521
     3  C   -0.190494
     4  C   -0.148167
     5  C   -0.181502
     6  N   -0.613781
     7  C    0.298445
     8  C   -0.142743
     9  C   -0.161741
    10  C    0.306454
    11  C   -0.312414
    12  C   -0.186116
    13  C   -0.272586
    14  C    0.623470
    15  O   -0.461277
    16  O   -0.454936
    17  N   -0.732784
    18  C    0.426442
    19  C   -0.000713
    20  C   -0.009740
    21  C    0.301391
    22  C   -0.392957
    23  C    0.252322
    24  O   -0.441044
    25  N   -0.693438
    26  C    0.319158
    27  C   -0.061113
    28  C    0.022344
    29  C    0.270830
    30  C    0.260699
    31  C   -0.241871
    32  C   -0.327602
    33  N   -0.694047
    34  C    0.257050
    35  C    0.028295
    36  C    0.063640
    37  C    0.319819
    38  C   -0.342347
    39  C    0.312114
    40  O   -0.469878
    41  C   -0.337775
    42  C    0.625325
    43  O   -0.393203
    44  O   -0.473623
    45  C   -0.084742
    46  C   -0.011683
    47  C   -0.135097
    48  C    0.166709
    49  C   -0.378930
    50  C   -0.247402
    51  C   -0.183269
    52  C   -0.167554
    53  C   -0.075094
    54  C   -0.317093
    55  C   -0.169779
    56  C   -0.167043
    57  C   -0.186321
    58  C   -0.057493
    59  C   -0.339103
    60  C   -0.129945
    61  C   -0.166232
    62  C   -0.156345
    63  C   -0.039458
    64  C   -0.298145
    65  C   -0.327601
    66  H    0.096346
    67  H    0.116411
    68  H    0.079338
    69  H    0.127049
    70  H    0.113755
    71  H    0.110365
    72  H    0.124525
    73  H    0.134795
    74  H    0.132409
    75  H    0.106405
    76  H    0.127435
    77  H    0.119767
    78  H    0.144431
    79  H    0.168387
    80  H    0.058834
    81  H    0.080185
    82  H    0.117316
    83  H    0.114755
    84  H    0.119918
    85  H    0.118779
    86  H    0.118021
    87  H    0.135438
    88  H    0.149316
    89  H    0.078246
    90  H    0.174705
    91  H    0.111485
    92  H    0.129848
    93  H    0.074561
    94  H    0.148174
    95  H    0.119154
    96  H    0.096175
    97  H    0.106412
    98  H    0.068092
    99  H    0.090890
   100  H    0.108588
   101  H    0.096424
   102  H    0.097782
   103  H    0.090380
   104  H    0.095524
   105  H    0.077074
   106  H    0.115327
   107  H    0.088473
   108  H    0.098662
   109  H    0.102397
   110  H    0.092881
   111  H    0.068651
   112  H    0.083182
   113  H    0.027313
   114  H    0.096701
   115  H    0.097602
   116  H    0.105039
   117  H    0.094563
   118  H    0.087637
   119  H    0.103762
   120  H    0.068736
   121  H    0.074801
   122  H    0.094018
   123  H    0.043328
   124  H    0.091801
   125  H    0.114798
   126  H    0.074571
   127  H    0.115822
   128  H    0.092651
   129  H    0.122400
   130  H    0.120357
   131  H    0.095508
   132  H    0.117887
   133  O   -0.396400
   134  H    0.068683
 Sum of Mulliken charges =   0.00000

 Dipole moment (field-independent basis, Debye):
    X=              0.6117    Y=             -2.9588    Z=             -0.3840  Tot=              3.0457
 Quadrupole moment (field-independent basis, Debye-Ang):
   XX=           -366.9108   YY=           -444.6050   ZZ=           -394.6433
   XY=             -0.7230   XZ=             29.7582   YZ=            -39.0317

 Normal termination of Gaussian 09 at Fri Oct  4 04:47:53 2019.
