 Gaussian 09, Revision D.01,
 Gaussian 09:  ES64L-G09RevD.01 24-Apr-2013

 ----------------------------------------------------------------------
 # td=(NStates=1) iop(3/107=0140000000,3/108=0140000000) iop(3/107=0140
 000000,3/108=0140000000) CAM-B3LYP/6-31G(d,p)
 ----------------------------------------------------------------------

 --
 TD
 --
 Symbolic Z-matrix:
 Charge =  0 Multiplicity = 1

                         Standard orientation:
 ---------------------------------------------------------------------
 Center     Atomic      Atomic             Coordinates (Angstroms)
 Number     Number       Type             X           Y           Z
 ---------------------------------------------------------------------
      1         12           0       -5.629309    1.291789    0.248432
      2          6           0       -5.029362   -2.182645   -0.332021
      3          6           0       -3.409509    1.202187    2.760902
      4          6           0       -6.151983    4.632299    0.635574
      5          6           0       -8.001666    1.103759   -2.383737
      6          7           0       -4.266057   -0.224955    0.979165
      7          6           0       -4.260516   -1.620503    0.679496
      8          6           0       -3.134357   -2.359445    1.366014
      9          6           0       -2.870474   -1.380311    2.651617
     10          6           0       -3.589346   -0.017615    2.113351
     11          6           0       -3.451381   -1.726637    4.014088
     12          6           0       -1.858184   -2.679020    0.582546
     13          6           0       -0.871279   -3.497237    1.439460
     14          6           0        0.262411   -3.882904    0.661514
     15          8           0        0.508300   -3.436997   -0.475108
     16          8           0        1.048403   -4.751016    1.249182
     17          7           0       -4.904998    2.674416    1.440383
     18          6           0       -4.012573    2.430219    2.420039
     19          6           0       -3.671029    3.672527    3.115390
     20          6           0       -4.534703    4.591597    2.600067
     21          6           0       -5.214523    3.977954    1.410771
     22          6           0       -2.728063    3.799467    4.269256
     23          6           0       -4.471900    6.098970    2.898230
     24          8           0       -3.970878    6.527801    3.847886
     25          7           0       -6.810404    2.594135   -0.686594
     26          6           0       -6.984729    4.035757   -0.376359
     27          6           0       -7.913477    4.618214   -1.257456
     28          6           0       -8.409301    3.618603   -2.084051
     29          6           0       -7.766991    2.396249   -1.713777
     30          6           0       -8.359054    5.991644   -1.226622
     31          6           0       -9.538713    3.826154   -3.131436
     32          6           0       -9.027438    4.052908   -4.479639
     33          7           0       -6.282674   -0.129246   -1.072569
     34          6           0       -7.332981   -0.074075   -2.098709
     35          6           0       -7.606503   -1.330294   -2.658044
     36          6           0       -6.613508   -2.197102   -2.106873
     37          6           0       -5.960978   -1.425984   -1.096928
     38          6           0       -8.614963   -1.637765   -3.718465
     39          6           0       -6.234100   -3.609105   -1.942118
     40          8           0       -6.646366   -4.576166   -2.520093
     41          6           0       -5.025232   -3.628247   -0.990466
     42          6           0       -5.365456   -4.668992    0.121045
     43          8           0       -5.813431   -4.443688    1.269330
     44          8           0       -5.083621   -5.883827   -0.315285
     45          6           0       -5.443342   -6.981622    0.466900
     46          6           0        2.393030   -5.077946    0.647176
     47          6           0        3.394445   -4.118484    0.934291
     48          6           0        3.963805   -3.223325    0.111851
     49          6           0        3.689305   -3.272509   -1.413896
     50          6           0        5.026580   -2.364919    0.658351
     51          6           0        6.427048   -2.597262    0.121992
     52          6           0        7.482785   -1.563004    0.712378
     53          6           0        8.846299   -1.751219   -0.020294
     54          6           0        9.468600   -3.149274    0.150046
     55          6           0        9.841704   -0.691013    0.540495
     56          6           0       11.230344   -0.656503   -0.234102
     57          6           0       12.173001    0.424999    0.314671
     58          6           0       13.584347    0.415073   -0.460234
     59          6           0       14.502331   -0.794278   -0.165214
     60          6           0       14.307173    1.755204   -0.131290
     61          6           0       15.482369    2.003346   -1.062437
     62          6           0       16.174968    3.359697   -0.730685
     63          6           0       17.521295    3.699399   -1.492656
     64          6           0       17.333522    3.657476   -2.955847
     65          6           0       18.070131    5.000754   -1.003923
     66          1           0       -2.881606    1.276325    3.636797
     67          1           0       -6.184053    5.755029    0.911726
     68          1           0       -8.633223    1.282454   -3.258143
     69          1           0       -3.579428   -3.306463    1.938328
     70          1           0       -1.846316   -1.152633    2.702685
     71          1           0       -3.082654   -2.524357    4.512379
     72          1           0       -3.527056   -0.876024    4.713176
     73          1           0       -4.512680   -2.234741    3.685462
     74          1           0       -2.333581   -3.187853   -0.304875
     75          1           0       -1.355444   -1.757069    0.365053
     76          1           0       -0.432156   -3.081535    2.388504
     77          1           0       -1.389472   -4.462379    1.799111
     78          1           0       -1.648623    3.524923    4.194579
     79          1           0       -2.482632    4.940025    4.573513
     80          1           0       -3.185359    3.167912    5.223290
     81          1           0       -4.951409    6.795446    2.005872
     82          1           0       -9.796523    2.695461   -3.141265
     83          1           0      -10.304544    4.781876   -2.911240
     84          1           0       -9.820807    3.812066   -5.366851
     85          1           0       -8.473340    4.893211   -4.630222
     86          1           0       -8.365610    3.233339   -4.697613
     87          1           0       -8.264697   -1.241939   -4.714754
     88          1           0       -8.555059   -2.724022   -3.853338
     89          1           0       -9.654515   -1.310910   -3.580213
     90          1           0       -4.222472   -3.928415   -1.542011
     91          1           0        2.518807   -6.036405    1.054899
     92          1           0        2.433374   -5.192444   -0.468301
     93          1           0        3.433115   -3.869262    1.990736
     94          1           0        2.723485   -3.647256   -1.564441
     95          1           0        3.629846   -2.198006   -1.969356
     96          1           0        4.244241   -3.953205   -2.022276
     97          1           0        4.752969   -1.347462    0.297664
     98          1           0        5.014062   -2.278625    1.826886
     99          1           0        6.687167   -3.711630    0.080823
    100          1           0        6.531952   -2.352063   -0.972487
    101          1           0        7.135638   -0.520748    0.738989
    102          1           0        7.678452   -2.077281    1.707106
    103          1           0        8.687730   -1.267340   -0.924318
    104          1           0        8.632014   -4.108858   -0.092306
    105          1           0       10.298580   -3.252409   -0.805520
    106          1           0        9.853965   -3.256446    1.122848
    107          1           0        9.463926    0.248995    0.666882
    108          1           0       10.051985   -0.712142    1.741498
    109          1           0       11.816311   -1.653680   -0.348344
    110          1           0       11.443106   -0.627436   -1.325834
    111          1           0       11.640914    1.432017    0.255133
    112          1           0       12.020401    0.154970    1.454032
    113          1           0       13.547706    0.536647   -1.467885
    114          1           0       14.962881   -0.807468    0.808855
    115          1           0       13.717245   -1.695876   -0.299032
    116          1           0       15.213701   -0.727925   -1.124328
    117          1           0       13.496457    2.573123   -0.153888
    118          1           0       14.688617    1.787653    0.985810
    119          1           0       16.271831    1.142372   -0.678717
    120          1           0       15.334587    1.938879   -2.147303
    121          1           0       15.376047    4.087007   -0.804232
    122          1           0       16.472699    3.574539    0.371172
    123          1           0       18.253106    2.922154   -1.242431
    124          1           0       16.687816    4.531549   -3.358022
    125          1           0       18.361230    4.066164   -3.428993
    126          1           0       16.858638    2.711806   -3.326249
    127          1           0       18.020072    5.174264    0.104168
    128          1           0       19.150898    4.964630   -1.313492
    129          1           0       17.748333    5.992320   -1.335916
    130          1           0       -5.277499   -7.974652   -0.042376
    131          1           0       -6.475050   -6.998665    0.838353
    132          1           0       -4.912561   -6.941189    1.471958
    133          8           0       -7.846086    6.795555   -0.505096
    134          1           0       -9.182740    6.013137   -1.743534
 ---------------------------------------------------------------------

 SCF Done:  E(RCAM-B3LYP) =  -3043.45030306     A.U. after   15 cycles

 Excitation energies and oscillator strengths:

 Excited State   1:      Singlet-A      2.0844 eV  594.81 nm  f=0.1479  <S**2>=0.000
     243 -> 246       -0.26598
     244 -> 245        0.63657
 This state for optimization and/or second-order correction.
 Total Energy, E(TD-HF/TD-KS) =  -3043.37370131
 Copying the excited state density for this state as the 1-particle RhoCI density.

 The electronic state is 1-A.
 Alpha  occ. eigenvalues --  -46.80262 -19.23790 -19.21978 -19.18379 -19.17098
 Alpha  occ. eigenvalues --  -19.16996 -19.16876 -19.15189 -14.38747 -14.36835
 Alpha  occ. eigenvalues --  -14.36605 -14.36433 -10.35784 -10.33633 -10.31621
 Alpha  occ. eigenvalues --  -10.31182 -10.28577 -10.27905 -10.27629 -10.27625
 Alpha  occ. eigenvalues --  -10.27013 -10.26766 -10.26527 -10.26364 -10.26084
 Alpha  occ. eigenvalues --  -10.26026 -10.25635 -10.25506 -10.25476 -10.25422
 Alpha  occ. eigenvalues --  -10.25194 -10.24577 -10.24380 -10.24337 -10.24278
 Alpha  occ. eigenvalues --  -10.24153 -10.24058 -10.23966 -10.23942 -10.23917
 Alpha  occ. eigenvalues --  -10.23877 -10.23599 -10.23270 -10.22977 -10.22379
 Alpha  occ. eigenvalues --  -10.22263 -10.22251 -10.22245 -10.22212 -10.22175
 Alpha  occ. eigenvalues --  -10.22123 -10.22048 -10.22023 -10.21974 -10.21828
 Alpha  occ. eigenvalues --  -10.21580 -10.21552 -10.21540 -10.21511 -10.21508
 Alpha  occ. eigenvalues --  -10.21491 -10.21326 -10.21314 -10.20818 -10.20594
 Alpha  occ. eigenvalues --  -10.20304  -3.09056  -1.83973  -1.83525  -1.83492
 Alpha  occ. eigenvalues --   -1.15099  -1.12808  -1.11180  -1.08023  -1.07881
 Alpha  occ. eigenvalues --   -1.03550  -1.02093  -1.00698  -0.99072  -0.97969
 Alpha  occ. eigenvalues --   -0.96078  -0.87832  -0.86806  -0.85441  -0.85114
 Alpha  occ. eigenvalues --   -0.84975  -0.84427  -0.84211  -0.83723  -0.83170
 Alpha  occ. eigenvalues --   -0.82768  -0.82463  -0.81656  -0.80494  -0.79859
 Alpha  occ. eigenvalues --   -0.79514  -0.78557  -0.77666  -0.77298  -0.76317
 Alpha  occ. eigenvalues --   -0.75056  -0.74313  -0.73984  -0.73209  -0.72262
 Alpha  occ. eigenvalues --   -0.71483  -0.70697  -0.69994  -0.69821  -0.69429
 Alpha  occ. eigenvalues --   -0.69093  -0.68623  -0.67728  -0.66890  -0.65468
 Alpha  occ. eigenvalues --   -0.64838  -0.64351  -0.63715  -0.62541  -0.62023
 Alpha  occ. eigenvalues --   -0.61322  -0.60789  -0.60475  -0.59573  -0.59496
 Alpha  occ. eigenvalues --   -0.58735  -0.58522  -0.58272  -0.57757  -0.56325
 Alpha  occ. eigenvalues --   -0.56163  -0.55809  -0.55297  -0.55037  -0.54764
 Alpha  occ. eigenvalues --   -0.54363  -0.53370  -0.52730  -0.52365  -0.51770
 Alpha  occ. eigenvalues --   -0.51673  -0.51482  -0.50963  -0.50758  -0.50362
 Alpha  occ. eigenvalues --   -0.50036  -0.49392  -0.48899  -0.48690  -0.48534
 Alpha  occ. eigenvalues --   -0.48438  -0.48328  -0.48162  -0.48111  -0.47957
 Alpha  occ. eigenvalues --   -0.47753  -0.47486  -0.47234  -0.47119  -0.46934
 Alpha  occ. eigenvalues --   -0.46560  -0.46441  -0.46113  -0.45997  -0.45667
 Alpha  occ. eigenvalues --   -0.45473  -0.45235  -0.45185  -0.45064  -0.44869
 Alpha  occ. eigenvalues --   -0.44757  -0.44318  -0.44265  -0.43830  -0.43787
 Alpha  occ. eigenvalues --   -0.43449  -0.43302  -0.43254  -0.42986  -0.42756
 Alpha  occ. eigenvalues --   -0.42645  -0.42535  -0.42198  -0.42105  -0.41548
 Alpha  occ. eigenvalues --   -0.41474  -0.41408  -0.41088  -0.40970  -0.40856
 Alpha  occ. eigenvalues --   -0.40725  -0.40614  -0.40166  -0.40043  -0.39786
 Alpha  occ. eigenvalues --   -0.39623  -0.39605  -0.39294  -0.39254  -0.39074
 Alpha  occ. eigenvalues --   -0.38944  -0.38545  -0.38475  -0.38224  -0.37949
 Alpha  occ. eigenvalues --   -0.37866  -0.37572  -0.37494  -0.37141  -0.36655
 Alpha  occ. eigenvalues --   -0.36253  -0.36009  -0.35676  -0.35384  -0.35257
 Alpha  occ. eigenvalues --   -0.34950  -0.34845  -0.34689  -0.34385  -0.34174
 Alpha  occ. eigenvalues --   -0.34034  -0.33913  -0.33779  -0.32973  -0.32841
 Alpha  occ. eigenvalues --   -0.32415  -0.32382  -0.31825  -0.31791  -0.30963
 Alpha  occ. eigenvalues --   -0.30705  -0.30317  -0.29952  -0.29829  -0.29178
 Alpha  occ. eigenvalues --   -0.29016  -0.28164  -0.27977  -0.27749  -0.27639
 Alpha  occ. eigenvalues --   -0.27540  -0.27247  -0.23094  -0.21632
 Alpha virt. eigenvalues --   -0.08197  -0.06476  -0.01326  -0.00169   0.01261
 Alpha virt. eigenvalues --    0.02047   0.02966   0.03890   0.04232   0.04520
 Alpha virt. eigenvalues --    0.05691   0.06074   0.06934   0.08869   0.08896

 Mulliken charges:
               1
     1  Mg   0.825399
     2  C    0.064476
     3  C   -0.173627
     4  C   -0.166795
     5  C   -0.171155
     6  N   -0.613835
     7  C    0.274043
     8  C   -0.173949
     9  C   -0.135182
    10  C    0.348768
    11  C   -0.312107
    12  C   -0.136070
    13  C   -0.276361
    14  C    0.617073
    15  O   -0.503242
    16  O   -0.476012
    17  N   -0.741440
    18  C    0.331488
    19  C    0.074759
    20  C   -0.083345
    21  C    0.329742
    22  C   -0.394910
    23  C    0.257393
    24  O   -0.358576
    25  N   -0.690567
    26  C    0.237730
    27  C   -0.025533
    28  C    0.007325
    29  C    0.286694
    30  C    0.308236
    31  C   -0.234138
    32  C   -0.290753
    33  N   -0.703381
    34  C    0.263664
    35  C    0.049022
    36  C   -0.023436
    37  C    0.321490
    38  C   -0.394203
    39  C    0.375461
    40  O   -0.450774
    41  C   -0.303063
    42  C    0.615175
    43  O   -0.495225
    44  O   -0.400296
    45  C   -0.099425
    46  C    0.013005
    47  C   -0.121268
    48  C    0.151847
    49  C   -0.392889
    50  C   -0.219631
    51  C   -0.178426
    52  C   -0.181505
    53  C   -0.045808
    54  C   -0.276975
    55  C   -0.188315
    56  C   -0.178916
    57  C   -0.172692
    58  C   -0.061686
    59  C   -0.289041
    60  C   -0.165885
    61  C   -0.183502
    62  C   -0.170150
    63  C   -0.030885
    64  C   -0.295279
    65  C   -0.322406
    66  H    0.071478
    67  H    0.128415
    68  H    0.094264
    69  H    0.109727
    70  H    0.101185
    71  H    0.124022
    72  H    0.116098
    73  H    0.101601
    74  H    0.116676
    75  H    0.131996
    76  H    0.144300
    77  H    0.131711
    78  H    0.124557
    79  H    0.141911
    80  H    0.108188
    81  H    0.054602
    82  H    0.102285
    83  H    0.105428
    84  H    0.085952
    85  H    0.124923
    86  H    0.108788
    87  H    0.130071
    88  H    0.150914
    89  H    0.130742
    90  H    0.166011
    91  H    0.118987
    92  H    0.112206
    93  H    0.074224
    94  H    0.159512
    95  H    0.094500
    96  H    0.124015
    97  H    0.096601
    98  H    0.086980
    99  H    0.093754
   100  H    0.091631
   101  H    0.098735
   102  H    0.089431
   103  H    0.108540
   104  H    0.064180
   105  H    0.083975
   106  H    0.130700
   107  H    0.104374
   108  H    0.055956
   109  H    0.074010
   110  H    0.083519
   111  H    0.083152
   112  H    0.077742
   113  H    0.101267
   114  H    0.118020
   115  H    0.080166
   116  H    0.091430
   117  H    0.074058
   118  H    0.078893
   119  H    0.073741
   120  H    0.095360
   121  H    0.091505
   122  H    0.071125
   123  H    0.096562
   124  H    0.090695
   125  H    0.076063
   126  H    0.101008
   127  H    0.095573
   128  H    0.092496
   129  H    0.106790
   130  H    0.126537
   131  H    0.135860
   132  H    0.114610
   133  O   -0.428207
   134  H    0.053749
 Sum of Mulliken charges =   0.00000

 Dipole moment (field-independent basis, Debye):
    X=              2.6573    Y=             -3.6469    Z=             -0.6673  Tot=              4.5614
 Quadrupole moment (field-independent basis, Debye-Ang):
   XX=           -390.9935   YY=           -427.2688   ZZ=           -391.3887
   XY=             11.0291   XZ=             20.5034   YZ=            -26.8356

 Normal termination of Gaussian 09 at Mon Oct  7 08:28:52 2019.
