 Gaussian 09, Revision D.01,
 Gaussian 09:  ES64L-G09RevD.01 24-Apr-2013

 ----------------------------------------------------------------------
 # td=(NStates=1) iop(3/107=0140000000,3/108=0140000000) iop(3/107=0140
 000000,3/108=0140000000) CAM-B3LYP/6-31G(d,p)
 ----------------------------------------------------------------------

 --
 TD
 --
 Symbolic Z-matrix:
 Charge =  0 Multiplicity = 1

                         Standard orientation:
 ---------------------------------------------------------------------
 Center     Atomic      Atomic             Coordinates (Angstroms)
 Number     Number       Type             X           Y           Z
 ---------------------------------------------------------------------
      1         12           0       -5.660594    1.245469    0.257161
      2          6           0       -5.116474   -2.153596   -0.330629
      3          6           0       -3.419550    1.192662    2.736618
      4          6           0       -6.116363    4.634697    0.621222
      5          6           0       -8.213630    1.119241   -2.273637
      6          7           0       -4.392890   -0.277463    1.034473
      7          6           0       -4.356794   -1.607764    0.740209
      8          6           0       -3.262694   -2.338983    1.517769
      9          6           0       -2.870481   -1.438251    2.630130
     10          6           0       -3.529282   -0.075217    2.111621
     11          6           0       -3.274436   -1.790004    4.041143
     12          6           0       -2.060008   -2.691890    0.635180
     13          6           0       -1.038622   -3.584590    1.379737
     14          6           0        0.243352   -3.814335    0.523311
     15          8           0        0.358225   -3.410009   -0.639400
     16          8           0        1.032179   -4.662894    1.188668
     17          7           0       -4.960283    2.658024    1.490043
     18          6           0       -4.028053    2.444347    2.441730
     19          6           0       -3.559233    3.709131    3.058958
     20          6           0       -4.385910    4.664259    2.498649
     21          6           0       -5.236599    3.943234    1.445642
     22          6           0       -2.481913    3.798421    4.149579
     23          6           0       -4.603391    6.054817    2.885896
     24          8           0       -3.973489    6.705477    3.710499
     25          7           0       -6.892815    2.614476   -0.761333
     26          6           0       -6.909757    3.964033   -0.393671
     27          6           0       -7.865816    4.615515   -1.248074
     28          6           0       -8.559720    3.585786   -1.954190
     29          6           0       -7.878785    2.370723   -1.702415
     30          6           0       -8.240539    6.015024   -1.240970
     31          6           0       -9.586567    3.759501   -3.148293
     32          6           0       -8.929063    4.145186   -4.419347
     33          7           0       -6.532639   -0.108285   -0.933517
     34          6           0       -7.505310   -0.082726   -1.928207
     35          6           0       -7.710160   -1.308502   -2.618991
     36          6           0       -6.754086   -2.211039   -2.043178
     37          6           0       -6.005794   -1.404504   -1.135627
     38          6           0       -8.670571   -1.741360   -3.562757
     39          6           0       -6.242553   -3.549630   -1.989027
     40          8           0       -6.516333   -4.473803   -2.622043
     41          6           0       -5.131002   -3.517696   -0.850361
     42          6           0       -5.292114   -4.614855    0.157378
     43          8           0       -5.852295   -4.338525    1.257371
     44          8           0       -5.011287   -5.863815   -0.281306
     45          6           0       -5.546752   -6.904712    0.695057
     46          6           0        2.267931   -5.004888    0.417753
     47          6           0        3.362091   -4.190033    0.849419
     48          6           0        4.053900   -3.271004    0.121070
     49          6           0        3.856264   -3.238124   -1.429265
     50          6           0        5.213452   -2.351234    0.581570
     51          6           0        6.556591   -2.785897    0.165876
     52          6           0        7.707485   -1.900621    0.548809
     53          6           0        9.103557   -1.982272   -0.104955
     54          6           0        9.554946   -3.458175    0.045323
     55          6           0       10.048120   -0.876950    0.397310
     56          6           0       11.404129   -0.890886   -0.305127
     57          6           0       12.297731    0.322209    0.143497
     58          6           0       13.638027    0.487441   -0.453270
     59          6           0       14.541019   -0.747520   -0.244441
     60          6           0       14.340673    1.848430   -0.067618
     61          6           0       15.576890    2.100116   -0.943743
     62          6           0       16.134087    3.491407   -0.621401
     63          6           0       17.343606    3.787809   -1.390958
     64          6           0       17.103149    3.981413   -2.822680
     65          6           0       17.973493    5.151937   -0.845965
     66          1           0       -2.775748    1.278712    3.658549
     67          1           0       -6.069041    5.747293    0.606999
     68          1           0       -9.002205    0.974603   -3.013433
     69          1           0       -3.680072   -3.397821    1.967000
     70          1           0       -1.824734   -1.224079    2.793256
     71          1           0       -2.730667   -2.710085    4.285967
     72          1           0       -2.966092   -1.107446    4.904817
     73          1           0       -4.390342   -2.000916    4.276111
     74          1           0       -2.453830   -3.006758   -0.112226
     75          1           0       -1.580887   -1.675045    0.233119
     76          1           0       -0.712345   -3.119333    2.228552
     77          1           0       -1.661727   -4.418331    1.437086
     78          1           0       -1.421164    3.588493    3.603912
     79          1           0       -2.364738    4.733592    4.801894
     80          1           0       -2.799919    3.010916    4.789731
     81          1           0       -5.374563    6.541333    2.345406
     82          1           0      -10.119507    2.822422   -3.213814
     83          1           0      -10.227880    4.596797   -2.809622
     84          1           0       -9.741028    4.364958   -5.146584
     85          1           0       -8.106031    5.138744   -4.215320
     86          1           0       -8.284974    3.347869   -4.765156
     87          1           0       -8.331320   -1.210104   -4.648003
     88          1           0       -8.666813   -2.810361   -3.961587
     89          1           0       -9.668190   -1.505840   -3.311549
     90          1           0       -4.266311   -3.811801   -1.558718
     91          1           0        2.443176   -6.048583    0.850824
     92          1           0        1.815633   -5.069357   -0.706465
     93          1           0        3.597161   -4.044480    2.017745
     94          1           0        2.893402   -3.722426   -1.865132
     95          1           0        3.793684   -2.215246   -1.700123
     96          1           0        4.535472   -3.629272   -2.138518
     97          1           0        5.028045   -1.266801    0.243873
     98          1           0        5.266130   -2.123327    1.850860
     99          1           0        6.768650   -4.011427    0.437674
    100          1           0        6.722640   -2.638424   -1.132256
    101          1           0        7.240475   -0.795190    0.581019
    102          1           0        7.825487   -1.998682    1.718090
    103          1           0        8.979729   -1.741060   -1.174202
    104          1           0        8.956855   -4.119258   -0.596073
    105          1           0       10.508566   -3.754602   -0.390797
    106          1           0        9.556128   -3.864920    1.101825
    107          1           0        9.608697    0.124074    0.485631
    108          1           0       10.390371   -1.336637    1.300128
    109          1           0       11.994533   -1.891681   -0.203774
    110          1           0       11.263500   -0.729537   -1.308322
    111          1           0       11.585281    1.318724   -0.192014
    112          1           0       12.374555    0.526545    1.351974
    113          1           0       13.349666    0.571229   -1.627027
    114          1           0       14.727134   -0.923122    0.880243
    115          1           0       14.070566   -1.620854   -0.335331
    116          1           0       15.391700   -0.769357   -0.893356
    117          1           0       13.642598    2.629399   -0.371494
    118          1           0       14.615877    1.768310    1.151649
    119          1           0       16.465195    1.353116   -0.508092
    120          1           0       15.304183    1.797632   -2.051759
    121          1           0       15.362661    4.319985   -0.906994
    122          1           0       16.444498    3.706751    0.659541
    123          1           0       18.080060    2.950578   -1.363005
    124          1           0       16.496028    4.758504   -3.123826
    125          1           0       17.974014    4.163643   -3.273699
    126          1           0       16.770879    3.081207   -3.217255
    127          1           0       18.309607    5.367810    0.218574
    128          1           0       18.960283    5.549479   -1.459812
    129          1           0       17.169449    6.038100   -0.877718
    130          1           0       -5.463527   -7.844898    0.187702
    131          1           0       -6.460780   -6.824011    0.973844
    132          1           0       -4.937135   -6.821821    1.590168
    133          8           0       -7.707257    6.833305   -0.501075
    134          1           0       -9.092255    6.200812   -1.985988
 ---------------------------------------------------------------------

 SCF Done:  E(RCAM-B3LYP) =  -3043.42146314     A.U. after   16 cycles

 Excitation energies and oscillator strengths:

 Excited State   1:      Singlet-A      2.0373 eV  608.57 nm  f=0.1245  <S**2>=0.000
     243 -> 245       -0.15943
     243 -> 246        0.30852
     244 -> 245        0.59733
     244 -> 246        0.11647
 This state for optimization and/or second-order correction.
 Total Energy, E(TD-HF/TD-KS) =  -3043.34659408
 Copying the excited state density for this state as the 1-particle RhoCI density.

 The electronic state is 1-A.
 Alpha  occ. eigenvalues --  -46.81294 -19.23853 -19.23095 -19.17324 -19.17251
 Alpha  occ. eigenvalues --  -19.16626 -19.16576 -19.16292 -14.39399 -14.37408
 Alpha  occ. eigenvalues --  -14.36582 -14.36333 -10.35336 -10.35252 -10.30994
 Alpha  occ. eigenvalues --  -10.29938 -10.29303 -10.29067 -10.28416 -10.27725
 Alpha  occ. eigenvalues --  -10.27511 -10.26678 -10.26525 -10.26382 -10.26193
 Alpha  occ. eigenvalues --  -10.25639 -10.25637 -10.25312 -10.25200 -10.25167
 Alpha  occ. eigenvalues --  -10.25041 -10.25039 -10.25013 -10.24686 -10.24605
 Alpha  occ. eigenvalues --  -10.24574 -10.24064 -10.23901 -10.23804 -10.23761
 Alpha  occ. eigenvalues --  -10.23609 -10.23549 -10.23406 -10.23361 -10.23276
 Alpha  occ. eigenvalues --  -10.23195 -10.23189 -10.23132 -10.23034 -10.23017
 Alpha  occ. eigenvalues --  -10.22901 -10.22849 -10.22839 -10.22638 -10.22387
 Alpha  occ. eigenvalues --  -10.22311 -10.21876 -10.21826 -10.21615 -10.21463
 Alpha  occ. eigenvalues --  -10.21294 -10.21151 -10.20916 -10.20779 -10.19560
 Alpha  occ. eigenvalues --  -10.17222  -3.09907  -1.84839  -1.84379  -1.84324
 Alpha  occ. eigenvalues --   -1.13137  -1.12072  -1.10834  -1.05888  -1.05444
 Alpha  occ. eigenvalues --   -1.04167  -1.02472  -1.01398  -0.99574  -0.98530
 Alpha  occ. eigenvalues --   -0.97462  -0.88698  -0.86711  -0.86093  -0.85607
 Alpha  occ. eigenvalues --   -0.84949  -0.84768  -0.84081  -0.83590  -0.83545
 Alpha  occ. eigenvalues --   -0.82952  -0.82565  -0.81788  -0.80877  -0.79430
 Alpha  occ. eigenvalues --   -0.78704  -0.78331  -0.77662  -0.77118  -0.76667
 Alpha  occ. eigenvalues --   -0.75540  -0.74741  -0.74290  -0.73558  -0.72320
 Alpha  occ. eigenvalues --   -0.71594  -0.71068  -0.70871  -0.69780  -0.69198
 Alpha  occ. eigenvalues --   -0.69029  -0.68838  -0.67593  -0.66705  -0.66273
 Alpha  occ. eigenvalues --   -0.65214  -0.64815  -0.63806  -0.62116  -0.61523
 Alpha  occ. eigenvalues --   -0.61117  -0.60723  -0.59604  -0.58969  -0.58758
 Alpha  occ. eigenvalues --   -0.57848  -0.57741  -0.57159  -0.56691  -0.56386
 Alpha  occ. eigenvalues --   -0.56169  -0.55975  -0.55914  -0.55119  -0.53989
 Alpha  occ. eigenvalues --   -0.53816  -0.53435  -0.52796  -0.52321  -0.51802
 Alpha  occ. eigenvalues --   -0.51562  -0.51393  -0.50823  -0.50703  -0.50349
 Alpha  occ. eigenvalues --   -0.50211  -0.50046  -0.49654  -0.49144  -0.48986
 Alpha  occ. eigenvalues --   -0.48872  -0.48750  -0.48439  -0.47942  -0.47750
 Alpha  occ. eigenvalues --   -0.47683  -0.47434  -0.47359  -0.47256  -0.46638
 Alpha  occ. eigenvalues --   -0.46599  -0.46416  -0.46163  -0.45983  -0.45966
 Alpha  occ. eigenvalues --   -0.45606  -0.45388  -0.45029  -0.44794  -0.44657
 Alpha  occ. eigenvalues --   -0.44449  -0.44401  -0.44104  -0.43887  -0.43583
 Alpha  occ. eigenvalues --   -0.43504  -0.43413  -0.43291  -0.43039  -0.42837
 Alpha  occ. eigenvalues --   -0.42537  -0.42305  -0.42094  -0.41908  -0.41822
 Alpha  occ. eigenvalues --   -0.41605  -0.41460  -0.41218  -0.40968  -0.40874
 Alpha  occ. eigenvalues --   -0.40731  -0.40534  -0.40487  -0.40281  -0.39804
 Alpha  occ. eigenvalues --   -0.39600  -0.39514  -0.39385  -0.39226  -0.38786
 Alpha  occ. eigenvalues --   -0.38607  -0.38582  -0.38428  -0.38290  -0.37893
 Alpha  occ. eigenvalues --   -0.37666  -0.37521  -0.37396  -0.37130  -0.36937
 Alpha  occ. eigenvalues --   -0.36741  -0.36476  -0.36205  -0.35755  -0.35643
 Alpha  occ. eigenvalues --   -0.35124  -0.35056  -0.34709  -0.34423  -0.34406
 Alpha  occ. eigenvalues --   -0.34309  -0.34169  -0.33767  -0.33588  -0.33307
 Alpha  occ. eigenvalues --   -0.32970  -0.32953  -0.31856  -0.31811  -0.31567
 Alpha  occ. eigenvalues --   -0.31523  -0.30924  -0.30536  -0.30038  -0.29612
 Alpha  occ. eigenvalues --   -0.28788  -0.28248  -0.27924  -0.27716  -0.27389
 Alpha  occ. eigenvalues --   -0.27122  -0.26897  -0.22485  -0.21523
 Alpha virt. eigenvalues --   -0.08242  -0.06728  -0.01654  -0.00467   0.00824
 Alpha virt. eigenvalues --    0.02066   0.02182   0.03524   0.04105   0.04412
 Alpha virt. eigenvalues --    0.05099   0.05940   0.07981   0.08593   0.08777

 Mulliken charges:
               1
     1  Mg   0.828962
     2  C    0.090122
     3  C   -0.215583
     4  C   -0.164579
     5  C   -0.154344
     6  N   -0.627853
     7  C    0.334565
     8  C   -0.182021
     9  C   -0.095910
    10  C    0.322271
    11  C   -0.321716
    12  C   -0.127584
    13  C   -0.246436
    14  C    0.592136
    15  O   -0.477586
    16  O   -0.454546
    17  N   -0.715195
    18  C    0.305578
    19  C    0.052557
    20  C   -0.057166
    21  C    0.342667
    22  C   -0.363255
    23  C    0.249639
    24  O   -0.429393
    25  N   -0.702665
    26  C    0.290058
    27  C   -0.026871
    28  C   -0.041728
    29  C    0.330155
    30  C    0.250172
    31  C   -0.223248
    32  C   -0.275152
    33  N   -0.680785
    34  C    0.278868
    35  C    0.065690
    36  C    0.035645
    37  C    0.203654
    38  C   -0.407536
    39  C    0.343307
    40  O   -0.408093
    41  C   -0.347687
    42  C    0.635660
    43  O   -0.505717
    44  O   -0.463413
    45  C   -0.092691
    46  C   -0.017369
    47  C   -0.112740
    48  C    0.135905
    49  C   -0.375929
    50  C   -0.218730
    51  C   -0.108177
    52  C   -0.156978
    53  C   -0.053247
    54  C   -0.330801
    55  C   -0.162560
    56  C   -0.183510
    57  C   -0.153695
    58  C   -0.042748
    59  C   -0.310226
    60  C   -0.140479
    61  C   -0.173542
    62  C   -0.121872
    63  C   -0.043344
    64  C   -0.298537
    65  C   -0.309733
    66  H    0.075929
    67  H    0.151247
    68  H    0.098025
    69  H    0.107991
    70  H    0.115574
    71  H    0.111673
    72  H    0.104873
    73  H    0.118271
    74  H    0.102020
    75  H    0.090273
    76  H    0.131976
    77  H    0.142296
    78  H    0.116851
    79  H    0.155364
    80  H    0.132456
    81  H    0.078011
    82  H    0.107854
    83  H    0.111021
    84  H    0.112231
    85  H    0.075468
    86  H    0.118466
    87  H    0.097923
    88  H    0.153433
    89  H    0.136122
    90  H    0.150046
    91  H    0.116972
    92  H    0.145304
    93  H    0.086458
    94  H    0.113754
    95  H    0.118159
    96  H    0.128352
    97  H    0.110508
    98  H    0.061334
    99  H    0.076634
   100  H    0.047058
   101  H    0.064525
   102  H    0.069554
   103  H    0.081887
   104  H    0.112932
   105  H    0.101101
   106  H    0.102748
   107  H    0.099170
   108  H    0.106909
   109  H    0.086631
   110  H    0.103188
   111  H    0.042896
   112  H    0.058431
   113  H    0.051001
   114  H    0.083299
   115  H    0.109678
   116  H    0.110737
   117  H    0.096781
   118  H    0.071456
   119  H    0.074434
   120  H    0.096559
   121  H    0.078014
   122  H    0.051352
   123  H    0.084692
   124  H    0.104836
   125  H    0.111026
   126  H    0.097353
   127  H    0.096392
   128  H    0.069633
   129  H    0.079705
   130  H    0.129941
   131  H    0.157111
   132  H    0.133811
   133  O   -0.439832
   134  H    0.057483
 Sum of Mulliken charges =   0.00000

 Dipole moment (field-independent basis, Debye):
    X=              2.6149    Y=             -7.0459    Z=             -1.1088  Tot=              7.5968
 Quadrupole moment (field-independent basis, Debye-Ang):
   XX=           -377.9210   YY=           -440.7127   ZZ=           -391.8891
   XY=             13.9010   XZ=             14.8976   YZ=            -31.0063

 Normal termination of Gaussian 09 at Tue Oct  8 23:55:00 2019.
