 Gaussian 09, Revision D.01,
 Gaussian 09:  ES64L-G09RevD.01 24-Apr-2013

 ----------------------------------------------------------------------
 # td=(NStates=1) iop(3/107=0140000000,3/108=0140000000) iop(3/107=0140
 000000,3/108=0140000000) CAM-B3LYP/6-31G(d,p)
 ----------------------------------------------------------------------

 --
 TD
 --
 Symbolic Z-matrix:
 Charge =  0 Multiplicity = 1

                         Standard orientation:
 ---------------------------------------------------------------------
 Center     Atomic      Atomic             Coordinates (Angstroms)
 Number     Number       Type             X           Y           Z
 ---------------------------------------------------------------------
      1         12           0       -5.739418    1.289540    0.236169
      2          6           0       -5.066565   -2.145475   -0.288576
      3          6           0       -3.463912    1.142606    2.772136
      4          6           0       -6.215858    4.545926    0.595464
      5          6           0       -8.081015    1.170039   -2.331622
      6          7           0       -4.503822   -0.261478    1.122803
      7          6           0       -4.275607   -1.616936    0.708450
      8          6           0       -3.258925   -2.286084    1.462449
      9          6           0       -2.819887   -1.358167    2.565362
     10          6           0       -3.602679   -0.121284    2.138874
     11          6           0       -3.438715   -1.732008    3.918595
     12          6           0       -1.960485   -2.642228    0.502255
     13          6           0       -0.997302   -3.437135    1.414720
     14          6           0        0.255061   -3.907526    0.599602
     15          8           0        0.464192   -3.525275   -0.522192
     16          8           0        0.997146   -4.783797    1.268864
     17          7           0       -4.828215    2.665663    1.430763
     18          6           0       -3.960943    2.493973    2.418845
     19          6           0       -3.666266    3.752558    3.124169
     20          6           0       -4.450449    4.651630    2.514911
     21          6           0       -5.257670    3.985629    1.510395
     22          6           0       -2.688353    3.793090    4.277149
     23          6           0       -4.572667    6.029700    2.891227
     24          8           0       -3.976440    6.598312    3.784336
     25          7           0       -7.025591    2.620189   -0.651029
     26          6           0       -6.914121    3.979002   -0.353474
     27          6           0       -7.925737    4.579308   -1.190353
     28          6           0       -8.418625    3.674601   -2.058050
     29          6           0       -7.785169    2.420008   -1.664212
     30          6           0       -8.295848    5.994153   -1.209278
     31          6           0       -9.396886    3.827407   -3.224589
     32          6           0       -8.587926    3.692533   -4.533396
     33          7           0       -6.500048   -0.152641   -1.025320
     34          6           0       -7.364048   -0.016785   -2.037920
     35          6           0       -7.545171   -1.346025   -2.699799
     36          6           0       -6.763673   -2.205111   -2.022751
     37          6           0       -6.004593   -1.382424   -1.027853
     38          6           0       -8.415959   -1.681636   -3.865703
     39          6           0       -6.232358   -3.512479   -2.082844
     40          8           0       -6.526682   -4.496976   -2.714115
     41          6           0       -5.076791   -3.518163   -0.873992
     42          6           0       -5.403435   -4.655282    0.075752
     43          8           0       -5.933404   -4.444824    1.212034
     44          8           0       -5.060141   -5.818603   -0.356525
     45          6           0       -5.334754   -6.961949    0.615071
     46          6           0        2.299746   -4.991259    0.690416
     47          6           0        3.371300   -3.961072    1.081982
     48          6           0        3.988556   -3.148021    0.141538
     49          6           0        3.666618   -3.148665   -1.338520
     50          6           0        5.180238   -2.248346    0.709798
     51          6           0        6.502316   -2.748345    0.149735
     52          6           0        7.656417   -1.926589    0.709379
     53          6           0        9.005500   -2.083111   -0.072618
     54          6           0        9.608777   -3.407088    0.266229
     55          6           0        9.967220   -1.025737    0.433091
     56          6           0       11.363994   -0.819717   -0.277648
     57          6           0       12.302821    0.212160    0.226904
     58          6           0       13.646915    0.419359   -0.494584
     59          6           0       14.490320   -0.724717   -0.372783
     60          6           0       14.314629    1.667257   -0.193306
     61          6           0       15.458775    2.114644   -1.076480
     62          6           0       16.061177    3.600217   -0.680043
     63          6           0       17.382702    3.984551   -1.417463
     64          6           0       17.168614    4.040795   -2.967941
     65          6           0       17.948654    5.261527   -0.795161
     66          1           0       -2.454348    1.223739    3.454114
     67          1           0       -6.509572    5.630750    0.621971
     68          1           0       -8.858331    1.310015   -3.251839
     69          1           0       -3.729834   -3.358809    1.932672
     70          1           0       -1.906333   -1.134064    2.896832
     71          1           0       -2.758221   -2.584638    4.261456
     72          1           0       -3.296500   -0.756265    4.596618
     73          1           0       -4.540786   -2.183307    3.814351
     74          1           0       -2.034871   -3.228289   -0.649888
     75          1           0       -1.557272   -1.706434    0.105553
     76          1           0       -0.453988   -2.891211    2.185621
     77          1           0       -1.360909   -4.419410    1.950150
     78          1           0       -1.672372    3.485334    3.945218
     79          1           0       -2.631073    4.772737    4.641631
     80          1           0       -2.919663    3.207660    5.156107
     81          1           0       -5.164304    6.563531    2.093011
     82          1           0      -10.205667    3.009783   -2.987629
     83          1           0      -10.041218    4.625800   -3.272444
     84          1           0       -9.056115    3.874536   -5.509896
     85          1           0       -7.811952    4.364560   -4.529117
     86          1           0       -7.932953    2.977063   -4.679982
     87          1           0       -8.239977   -1.203167   -4.788535
     88          1           0       -8.299918   -2.735729   -4.116166
     89          1           0       -9.380921   -1.209780   -3.532369
     90          1           0       -4.137496   -3.835108   -1.466057
     91          1           0        2.479392   -6.081753    0.945837
     92          1           0        2.135508   -5.064007   -0.421760
     93          1           0        3.508170   -4.018668    2.159064
     94          1           0        2.592934   -3.301037   -1.588534
     95          1           0        3.907138   -2.194811   -1.933562
     96          1           0        4.348136   -4.048242   -1.746980
     97          1           0        4.898204   -1.240228    0.688004
     98          1           0        5.287843   -2.460969    1.803933
     99          1           0        6.651131   -3.842254    0.306109
    100          1           0        6.499913   -2.814072   -0.943903
    101          1           0        7.353132   -0.890466    0.453506
    102          1           0        7.693040   -1.829804    1.754600
    103          1           0        8.723412   -2.063488   -1.109752
    104          1           0        9.161607   -4.384561    0.090198
    105          1           0       10.707501   -3.466449   -0.204483
    106          1           0        9.746643   -3.663758    1.387775
    107          1           0        9.458466   -0.063801    0.507135
    108          1           0       10.047432   -1.255651    1.711596
    109          1           0       11.812692   -1.897353   -0.235542
    110          1           0       11.109705   -0.590139   -1.461464
    111          1           0       11.601536    1.245975    0.402678
    112          1           0       12.427378    0.135954    1.398243
    113          1           0       13.368690    0.419902   -1.584594
    114          1           0       15.098773   -0.812827    0.719098
    115          1           0       14.091134   -1.811594   -0.661931
    116          1           0       15.314019   -0.881693   -1.197356
    117          1           0       13.654885    2.582771   -0.289911
    118          1           0       14.670016    1.559255    0.974872
    119          1           0       16.138056    1.369107   -0.871140
    120          1           0       15.049817    2.065800   -2.188188
    121          1           0       15.330448    4.320812   -0.849689
    122          1           0       16.247278    3.632594    0.509109
    123          1           0       17.895318    3.063734   -1.317844
    124          1           0       16.331505    4.798418   -3.312977
    125          1           0       18.001415    4.182423   -3.620566
    126          1           0       16.840764    3.082658   -3.520419
    127          1           0       17.787432    5.027102    0.413247
    128          1           0       19.070573    5.394422   -1.051483
    129          1           0       17.446301    6.240410   -1.050388
    130          1           0       -5.332561   -7.785136   -0.114513
    131          1           0       -6.348824   -6.789646    1.097035
    132          1           0       -4.525060   -6.699864    1.263651
    133          8           0       -7.946585    6.903667   -0.334495
    134          1           0       -8.982011    6.355127   -2.039131
 ---------------------------------------------------------------------

 SCF Done:  E(RCAM-B3LYP) =  -3043.44864393     A.U. after   16 cycles

 Excitation energies and oscillator strengths:

 Excited State   1:      Singlet-A      1.9448 eV  637.53 nm  f=0.2139  <S**2>=0.000
     243 -> 246       -0.21310
     244 -> 245        0.66250
 This state for optimization and/or second-order correction.
 Total Energy, E(TD-HF/TD-KS) =  -3043.37717526
 Copying the excited state density for this state as the 1-particle RhoCI density.

 The electronic state is 1-A.
 Alpha  occ. eigenvalues --  -46.82286 -19.23082 -19.22670 -19.17857 -19.17155
 Alpha  occ. eigenvalues --  -19.17131 -19.16448 -19.15328 -14.39123 -14.37336
 Alpha  occ. eigenvalues --  -14.36848 -14.36749 -10.34748 -10.34379 -10.31681
 Alpha  occ. eigenvalues --  -10.31084 -10.29090 -10.28695 -10.27648 -10.27480
 Alpha  occ. eigenvalues --  -10.27409 -10.27184 -10.26626 -10.26297 -10.26290
 Alpha  occ. eigenvalues --  -10.26286 -10.26149 -10.26058 -10.25708 -10.25413
 Alpha  occ. eigenvalues --  -10.25178 -10.25039 -10.24979 -10.24843 -10.24792
 Alpha  occ. eigenvalues --  -10.24326 -10.24289 -10.23816 -10.23783 -10.23613
 Alpha  occ. eigenvalues --  -10.23543 -10.23270 -10.23269 -10.22990 -10.22978
 Alpha  occ. eigenvalues --  -10.22926 -10.22903 -10.22857 -10.22772 -10.22652
 Alpha  occ. eigenvalues --  -10.22468 -10.22275 -10.22206 -10.22194 -10.22146
 Alpha  occ. eigenvalues --  -10.21900 -10.21868 -10.21787 -10.21717 -10.21448
 Alpha  occ. eigenvalues --  -10.21318 -10.21168 -10.21091 -10.20930 -10.20725
 Alpha  occ. eigenvalues --  -10.20617  -3.10760  -1.85710  -1.85241  -1.85149
 Alpha  occ. eigenvalues --   -1.14450  -1.13805  -1.08006  -1.06049  -1.05534
 Alpha  occ. eigenvalues --   -1.02418  -1.01829  -1.01302  -1.01057  -1.00079
 Alpha  occ. eigenvalues --   -0.99178  -0.88242  -0.86713  -0.85949  -0.85826
 Alpha  occ. eigenvalues --   -0.85553  -0.84898  -0.84635  -0.84060  -0.83447
 Alpha  occ. eigenvalues --   -0.82798  -0.82593  -0.81351  -0.80314  -0.79660
 Alpha  occ. eigenvalues --   -0.79566  -0.78295  -0.77924  -0.77447  -0.76111
 Alpha  occ. eigenvalues --   -0.75333  -0.74960  -0.73771  -0.72852  -0.72068
 Alpha  occ. eigenvalues --   -0.71222  -0.70360  -0.70272  -0.69788  -0.69611
 Alpha  occ. eigenvalues --   -0.69296  -0.68962  -0.68104  -0.66900  -0.66522
 Alpha  occ. eigenvalues --   -0.65885  -0.64984  -0.64798  -0.63052  -0.62075
 Alpha  occ. eigenvalues --   -0.61860  -0.60682  -0.60667  -0.59237  -0.58968
 Alpha  occ. eigenvalues --   -0.58498  -0.58224  -0.57927  -0.57290  -0.57067
 Alpha  occ. eigenvalues --   -0.56583  -0.56074  -0.55300  -0.55164  -0.54196
 Alpha  occ. eigenvalues --   -0.53635  -0.53323  -0.52864  -0.52471  -0.52365
 Alpha  occ. eigenvalues --   -0.51996  -0.51483  -0.51417  -0.50887  -0.50711
 Alpha  occ. eigenvalues --   -0.49991  -0.49573  -0.49011  -0.48979  -0.48913
 Alpha  occ. eigenvalues --   -0.48574  -0.48496  -0.48352  -0.48110  -0.47659
 Alpha  occ. eigenvalues --   -0.47555  -0.47128  -0.46987  -0.46703  -0.46309
 Alpha  occ. eigenvalues --   -0.46156  -0.45964  -0.45908  -0.45697  -0.45640
 Alpha  occ. eigenvalues --   -0.45448  -0.45190  -0.45059  -0.44566  -0.44488
 Alpha  occ. eigenvalues --   -0.44279  -0.44114  -0.43830  -0.43732  -0.43600
 Alpha  occ. eigenvalues --   -0.43422  -0.43354  -0.43076  -0.42902  -0.42753
 Alpha  occ. eigenvalues --   -0.42709  -0.42579  -0.42233  -0.42037  -0.41837
 Alpha  occ. eigenvalues --   -0.41743  -0.41544  -0.41354  -0.41116  -0.41056
 Alpha  occ. eigenvalues --   -0.40748  -0.40468  -0.40361  -0.40328  -0.40030
 Alpha  occ. eigenvalues --   -0.39973  -0.39679  -0.39676  -0.39509  -0.39168
 Alpha  occ. eigenvalues --   -0.38901  -0.38808  -0.38286  -0.37969  -0.37725
 Alpha  occ. eigenvalues --   -0.37401  -0.37081  -0.37000  -0.36941  -0.36806
 Alpha  occ. eigenvalues --   -0.36731  -0.35997  -0.35889  -0.35830  -0.35493
 Alpha  occ. eigenvalues --   -0.35435  -0.35208  -0.35130  -0.34677  -0.34464
 Alpha  occ. eigenvalues --   -0.34351  -0.34128  -0.33901  -0.33423  -0.33206
 Alpha  occ. eigenvalues --   -0.32891  -0.32651  -0.32588  -0.32175  -0.31461
 Alpha  occ. eigenvalues --   -0.30975  -0.30941  -0.30419  -0.29950  -0.29272
 Alpha  occ. eigenvalues --   -0.29240  -0.29025  -0.27905  -0.27786  -0.27677
 Alpha  occ. eigenvalues --   -0.27295  -0.26971  -0.22923  -0.20799
 Alpha virt. eigenvalues --   -0.08397  -0.06141  -0.01891  -0.01058   0.00761
 Alpha virt. eigenvalues --    0.02624   0.03105   0.03737   0.03990   0.04544
 Alpha virt. eigenvalues --    0.04844   0.05566   0.07795   0.08186   0.09172

 Mulliken charges:
               1
     1  Mg   0.837458
     2  C    0.129209
     3  C   -0.217789
     4  C   -0.192770
     5  C   -0.182656
     6  N   -0.610997
     7  C    0.335494
     8  C   -0.190693
     9  C   -0.093342
    10  C    0.344518
    11  C   -0.303507
    12  C   -0.169730
    13  C   -0.253313
    14  C    0.584920
    15  O   -0.463716
    16  O   -0.449896
    17  N   -0.683575
    18  C    0.279954
    19  C    0.058947
    20  C   -0.019810
    21  C    0.274087
    22  C   -0.388066
    23  C    0.247762
    24  O   -0.423555
    25  N   -0.715594
    26  C    0.313775
    27  C   -0.005831
    28  C   -0.005540
    29  C    0.333049
    30  C    0.219579
    31  C   -0.228230
    32  C   -0.334537
    33  N   -0.718535
    34  C    0.297534
    35  C    0.006550
    36  C    0.058993
    37  C    0.267912
    38  C   -0.381258
    39  C    0.346617
    40  O   -0.445057
    41  C   -0.369481
    42  C    0.624830
    43  O   -0.534498
    44  O   -0.436742
    45  C   -0.098085
    46  C   -0.022324
    47  C   -0.122406
    48  C    0.104538
    49  C   -0.377452
    50  C   -0.222645
    51  C   -0.182900
    52  C   -0.177632
    53  C   -0.043764
    54  C   -0.297206
    55  C   -0.153805
    56  C   -0.157567
    57  C   -0.147989
    58  C   -0.020134
    59  C   -0.297071
    60  C   -0.159975
    61  C   -0.181260
    62  C   -0.175282
    63  C   -0.032521
    64  C   -0.323818
    65  C   -0.296025
    66  H    0.056154
    67  H    0.146135
    68  H    0.106352
    69  H    0.118781
    70  H    0.117185
    71  H    0.096816
    72  H    0.110185
    73  H    0.124821
    74  H    0.100290
    75  H    0.133417
    76  H    0.138640
    77  H    0.123989
    78  H    0.117486
    79  H    0.154045
    80  H    0.130027
    81  H    0.066037
    82  H    0.099642
    83  H    0.121501
    84  H    0.109015
    85  H    0.123152
    86  H    0.124183
    87  H    0.137616
    88  H    0.150191
    89  H    0.126809
    90  H    0.138870
    91  H    0.104940
    92  H    0.121029
    93  H    0.094202
    94  H    0.162686
    95  H    0.109699
    96  H    0.108673
    97  H    0.114187
    98  H    0.098703
    99  H    0.096725
   100  H    0.095035
   101  H    0.086086
   102  H    0.099165
   103  H    0.095096
   104  H    0.097990
   105  H    0.077676
   106  H    0.088213
   107  H    0.088982
   108  H    0.045355
   109  H    0.091587
   110  H    0.065194
   111  H    0.053851
   112  H    0.079902
   113  H    0.083409
   114  H    0.072155
   115  H    0.092235
   116  H    0.093091
   117  H    0.085525
   118  H    0.056812
   119  H    0.107174
   120  H    0.080426
   121  H    0.102377
   122  H    0.068747
   123  H    0.105034
   124  H    0.080703
   125  H    0.107391
   126  H    0.089883
   127  H    0.076121
   128  H    0.097592
   129  H    0.111374
   130  H    0.146776
   131  H    0.160243
   132  H    0.150547
   133  O   -0.454623
   134  H    0.083547
 Sum of Mulliken charges =   0.00000

 Dipole moment (field-independent basis, Debye):
    X=              3.0398    Y=             -6.2346    Z=             -3.2581  Tot=              7.6632
 Quadrupole moment (field-independent basis, Debye-Ang):
   XX=           -386.6654   YY=           -444.0583   ZZ=           -392.6019
   XY=             14.7410   XZ=             26.2929   YZ=            -39.1855

 Normal termination of Gaussian 09 at Mon Oct  7 10:43:50 2019.
