 Gaussian 09, Revision D.01,
 Gaussian 09:  ES64L-G09RevD.01 24-Apr-2013

 ----------------------------------------------------------------------
 # td=(NStates=1) iop(3/107=0140000000,3/108=0140000000) iop(3/107=0140
 000000,3/108=0140000000) CAM-B3LYP/6-31G(d,p)
 ----------------------------------------------------------------------

 --
 TD
 --
 Symbolic Z-matrix:
 Charge =  0 Multiplicity = 1

                         Standard orientation:
 ---------------------------------------------------------------------
 Center     Atomic      Atomic             Coordinates (Angstroms)
 Number     Number       Type             X           Y           Z
 ---------------------------------------------------------------------
      1         12           0       -5.486037    1.210774    0.133284
      2          6           0       -4.993307   -2.111945   -0.461648
      3          6           0       -3.271603    1.231055    2.686646
      4          6           0       -6.111998    4.538052    0.622224
      5          6           0       -7.868523    1.282486   -2.504219
      6          7           0       -4.381081   -0.209895    1.028737
      7          6           0       -4.266656   -1.562926    0.636646
      8          6           0       -3.296782   -2.334599    1.485775
      9          6           0       -2.867794   -1.314389    2.539715
     10          6           0       -3.508180   -0.066290    2.055223
     11          6           0       -3.327982   -1.772975    3.962904
     12          6           0       -2.021586   -2.793541    0.648564
     13          6           0       -1.077486   -3.663162    1.377076
     14          6           0        0.136883   -3.996120    0.598305
     15          8           0        0.459238   -3.429581   -0.453072
     16          8           0        0.916739   -4.854093    1.242150
     17          7           0       -4.785388    2.622587    1.468730
     18          6           0       -3.906165    2.406721    2.376319
     19          6           0       -3.645624    3.680457    3.156534
     20          6           0       -4.417681    4.644744    2.611209
     21          6           0       -5.250104    3.914607    1.462257
     22          6           0       -2.678289    3.689756    4.334489
     23          6           0       -4.522847    6.038874    3.036740
     24          8           0       -3.903174    6.629752    3.892081
     25          7           0       -6.674865    2.728125   -0.809053
     26          6           0       -6.899992    3.953777   -0.317932
     27          6           0       -7.859197    4.710656   -1.202361
     28          6           0       -8.380319    3.714405   -2.028494
     29          6           0       -7.639710    2.504539   -1.868521
     30          6           0       -8.287369    6.083322   -1.159259
     31          6           0       -9.342881    3.777274   -3.176264
     32          6           0       -8.637319    4.055457   -4.451516
     33          7           0       -6.398381    0.015741   -1.202384
     34          6           0       -7.350231    0.072373   -2.197296
     35          6           0       -7.683845   -1.332598   -2.644656
     36          6           0       -6.732529   -2.132950   -2.040971
     37          6           0       -5.895504   -1.352147   -1.225141
     38          6           0       -8.652052   -1.629116   -3.710792
     39          6           0       -6.256665   -3.545972   -1.924478
     40          8           0       -6.689328   -4.606927   -2.397455
     41          6           0       -5.121203   -3.541197   -0.910815
     42          6           0       -5.377770   -4.528366    0.145199
     43          8           0       -5.865783   -4.232765    1.204719
     44          8           0       -5.044316   -5.762230   -0.306368
     45          6           0       -5.280415   -6.880956    0.545021
     46          6           0        2.125599   -5.135367    0.641029
     47          6           0        3.282601   -4.199425    1.113650
     48          6           0        3.967146   -3.333659    0.280051
     49          6           0        3.725826   -3.283436   -1.187723
     50          6           0        5.141016   -2.540180    0.674469
     51          6           0        6.579537   -2.965464    0.066155
     52          6           0        7.564619   -1.982583    0.647493
     53          6           0        9.019568   -2.093170   -0.160317
     54          6           0        9.541934   -3.468032    0.137788
     55          6           0        9.855536   -0.899658    0.241096
     56          6           0       11.131895   -0.749866   -0.569533
     57          6           0       12.046665    0.401766    0.048881
     58          6           0       13.455111    0.522027   -0.665957
     59          6           0       14.235312   -0.691040   -0.268124
     60          6           0       14.267192    1.662770   -0.139361
     61          6           0       15.398326    2.236326   -1.007809
     62          6           0       15.926398    3.587520   -0.656786
     63          6           0       17.364362    3.919250   -1.336462
     64          6           0       17.337680    4.019631   -2.844261
     65          6           0       17.922494    5.153736   -0.637209
     66          1           0       -2.667907    1.175894    3.564083
     67          1           0       -6.485809    5.520662    1.068543
     68          1           0       -8.863680    1.130647   -3.165247
     69          1           0       -3.620246   -3.400090    1.604637
     70          1           0       -1.630279   -1.131136    2.360728
     71          1           0       -2.647011   -2.666188    4.301980
     72          1           0       -3.189881   -1.056097    4.766926
     73          1           0       -4.470282   -2.078354    4.018274
     74          1           0       -2.219680   -3.324621   -0.298770
     75          1           0       -1.481936   -2.005282    0.139132
     76          1           0       -0.581120   -3.218184    2.419879
     77          1           0       -1.556367   -4.546614    1.620773
     78          1           0       -1.575030    3.416656    4.024717
     79          1           0       -2.702306    4.664702    4.892193
     80          1           0       -2.947175    2.954209    5.103943
     81          1           0       -5.433416    6.700025    2.696098
     82          1           0       -9.787758    2.736408   -3.293791
     83          1           0      -10.189269    4.672352   -2.808926
     84          1           0       -9.349701    3.945622   -5.417184
     85          1           0       -8.057365    5.192156   -4.463218
     86          1           0       -7.935632    3.399089   -4.695204
     87          1           0       -8.582182   -0.992839   -4.513526
     88          1           0       -8.475223   -2.623739   -4.386842
     89          1           0       -9.576463   -1.663694   -3.301241
     90          1           0       -4.107282   -3.974347   -1.466130
     91          1           0        2.314342   -6.246070    0.866138
     92          1           0        2.176666   -5.042959   -0.448499
     93          1           0        3.611604   -4.168515    2.127668
     94          1           0        2.700476   -3.558106   -1.363887
     95          1           0        3.920408   -2.195207   -1.467859
     96          1           0        4.527049   -3.878008   -1.739874
     97          1           0        4.761538   -1.374305    0.551710
     98          1           0        5.374524   -2.448173    1.742977
     99          1           0        6.807210   -3.944340    0.560425
    100          1           0        6.419101   -2.958326   -1.100457
    101          1           0        7.245684   -0.931147    0.589895
    102          1           0        7.788753   -2.125220    1.556185
    103          1           0        8.777887   -1.926090   -1.265272
    104          1           0        8.753466   -4.250585   -0.316376
    105          1           0       10.419480   -3.756815   -0.321420
    106          1           0        9.746444   -3.485471    1.030359
    107          1           0        9.278414   -0.009263    0.126478
    108          1           0       10.104167   -0.964122    1.308120
    109          1           0       11.710948   -1.810073   -0.688789
    110          1           0       11.071802   -0.359125   -1.545274
    111          1           0       11.636889    1.476634    0.063709
    112          1           0       12.208338    0.157110    1.108991
    113          1           0       13.394461    0.638412   -1.623486
    114          1           0       14.389563   -0.707313    0.842382
    115          1           0       13.875386   -1.713802   -0.461666
    116          1           0       15.291973   -0.745002   -0.779195
    117          1           0       13.694313    2.717466    0.272806
    118          1           0       14.555420    1.342537    1.045595
    119          1           0       16.278452    1.457208   -1.051818
    120          1           0       14.925892    2.410167   -2.020719
    121          1           0       15.240899    4.363859   -1.174278
    122          1           0       15.966931    3.571995    0.356010
    123          1           0       18.087083    3.094663   -1.004175
    124          1           0       16.696702    4.868856   -3.136728
    125          1           0       18.381455    4.492069   -3.265789
    126          1           0       17.156433    2.962807   -3.194828
    127          1           0       17.950574    4.857304    0.466226
    128          1           0       19.061072    5.324092   -0.959153
    129          1           0       17.358707    6.114305   -0.684627
    130          1           0       -4.822972   -7.799215    0.148076
    131          1           0       -6.367428   -7.012549    0.782722
    132          1           0       -5.050392   -6.669301    1.612646
    133          8           0       -7.923776    6.867739   -0.238653
    134          1           0       -8.949605    6.479328   -1.866943
 ---------------------------------------------------------------------

 SCF Done:  E(RCAM-B3LYP) =  -3043.44283905     A.U. after   16 cycles

 Excitation energies and oscillator strengths:

 Excited State   1:      Singlet-A      2.0669 eV  599.86 nm  f=0.1588  <S**2>=0.000
     243 -> 246        0.28464
     244 -> 245        0.63636
 This state for optimization and/or second-order correction.
 Total Energy, E(TD-HF/TD-KS) =  -3043.36688246
 Copying the excited state density for this state as the 1-particle RhoCI density.

 The electronic state is 1-A.
 Alpha  occ. eigenvalues --  -46.81532 -19.23782 -19.23752 -19.18302 -19.17487
 Alpha  occ. eigenvalues --  -19.17229 -19.16871 -19.15648 -14.40195 -14.37217
 Alpha  occ. eigenvalues --  -14.36726 -14.36690 -10.35845 -10.35570 -10.31981
 Alpha  occ. eigenvalues --  -10.30451 -10.29108 -10.28995 -10.28510 -10.28278
 Alpha  occ. eigenvalues --  -10.28253 -10.27253 -10.27160 -10.26802 -10.26195
 Alpha  occ. eigenvalues --  -10.25986 -10.25981 -10.25932 -10.25869 -10.25513
 Alpha  occ. eigenvalues --  -10.25255 -10.25176 -10.25037 -10.25036 -10.24885
 Alpha  occ. eigenvalues --  -10.24756 -10.24660 -10.24017 -10.24000 -10.23366
 Alpha  occ. eigenvalues --  -10.23321 -10.23173 -10.23127 -10.23073 -10.22870
 Alpha  occ. eigenvalues --  -10.22870 -10.22735 -10.22718 -10.22696 -10.22276
 Alpha  occ. eigenvalues --  -10.22233 -10.22018 -10.21935 -10.21732 -10.21692
 Alpha  occ. eigenvalues --  -10.21684 -10.21556 -10.21414 -10.21261 -10.20892
 Alpha  occ. eigenvalues --  -10.20652 -10.20609 -10.20562 -10.20446 -10.19914
 Alpha  occ. eigenvalues --  -10.18900  -3.10161  -1.85095  -1.84667  -1.84545
 Alpha  occ. eigenvalues --   -1.16055  -1.14556  -1.06892  -1.06744  -1.05996
 Alpha  occ. eigenvalues --   -1.05076  -1.03348  -1.01558  -1.00439  -0.98484
 Alpha  occ. eigenvalues --   -0.97401  -0.89563  -0.87207  -0.86021  -0.85963
 Alpha  occ. eigenvalues --   -0.85473  -0.84476  -0.84145  -0.83478  -0.83452
 Alpha  occ. eigenvalues --   -0.83174  -0.82947  -0.82484  -0.81080  -0.80020
 Alpha  occ. eigenvalues --   -0.79104  -0.78377  -0.77948  -0.77875  -0.77173
 Alpha  occ. eigenvalues --   -0.76162  -0.74661  -0.74123  -0.73611  -0.72304
 Alpha  occ. eigenvalues --   -0.71515  -0.70787  -0.70283  -0.70002  -0.69865
 Alpha  occ. eigenvalues --   -0.68987  -0.68810  -0.67535  -0.66698  -0.66140
 Alpha  occ. eigenvalues --   -0.65482  -0.64596  -0.64527  -0.62656  -0.62168
 Alpha  occ. eigenvalues --   -0.61935  -0.61756  -0.60634  -0.59966  -0.59585
 Alpha  occ. eigenvalues --   -0.59422  -0.58697  -0.57704  -0.57401  -0.57355
 Alpha  occ. eigenvalues --   -0.56232  -0.55882  -0.55670  -0.55135  -0.54677
 Alpha  occ. eigenvalues --   -0.54026  -0.53754  -0.53077  -0.52984  -0.52315
 Alpha  occ. eigenvalues --   -0.52027  -0.51829  -0.51584  -0.50969  -0.50913
 Alpha  occ. eigenvalues --   -0.50452  -0.50335  -0.50035  -0.49677  -0.49518
 Alpha  occ. eigenvalues --   -0.49272  -0.48430  -0.48407  -0.48291  -0.47920
 Alpha  occ. eigenvalues --   -0.47727  -0.47567  -0.47327  -0.46989  -0.46950
 Alpha  occ. eigenvalues --   -0.46822  -0.46608  -0.46233  -0.46170  -0.45972
 Alpha  occ. eigenvalues --   -0.45779  -0.45433  -0.45175  -0.44778  -0.44604
 Alpha  occ. eigenvalues --   -0.44443  -0.44346  -0.44110  -0.43875  -0.43513
 Alpha  occ. eigenvalues --   -0.43433  -0.43378  -0.43188  -0.42950  -0.42779
 Alpha  occ. eigenvalues --   -0.42656  -0.42110  -0.42104  -0.41996  -0.41844
 Alpha  occ. eigenvalues --   -0.41763  -0.41432  -0.41208  -0.40974  -0.40804
 Alpha  occ. eigenvalues --   -0.40563  -0.40547  -0.40410  -0.40305  -0.40107
 Alpha  occ. eigenvalues --   -0.39941  -0.39835  -0.39551  -0.39459  -0.38924
 Alpha  occ. eigenvalues --   -0.38861  -0.38718  -0.38554  -0.38368  -0.38139
 Alpha  occ. eigenvalues --   -0.38009  -0.37695  -0.37577  -0.37227  -0.36843
 Alpha  occ. eigenvalues --   -0.36717  -0.36397  -0.36093  -0.36043  -0.35909
 Alpha  occ. eigenvalues --   -0.35609  -0.35484  -0.35161  -0.35070  -0.34849
 Alpha  occ. eigenvalues --   -0.34437  -0.34311  -0.33986  -0.33789  -0.33659
 Alpha  occ. eigenvalues --   -0.33563  -0.33010  -0.32109  -0.31905  -0.31686
 Alpha  occ. eigenvalues --   -0.31404  -0.31280  -0.31088  -0.30012  -0.29511
 Alpha  occ. eigenvalues --   -0.29084  -0.28257  -0.27974  -0.27351  -0.27063
 Alpha  occ. eigenvalues --   -0.26890  -0.26454  -0.23414  -0.21170
 Alpha virt. eigenvalues --   -0.07796  -0.06838  -0.02468  -0.01002  -0.00362
 Alpha virt. eigenvalues --    0.02134   0.02625   0.03116   0.03590   0.03956
 Alpha virt. eigenvalues --    0.04460   0.05241   0.07282   0.08172   0.08649

 Mulliken charges:
               1
     1  Mg   0.825340
     2  C    0.052450
     3  C   -0.194339
     4  C   -0.154104
     5  C   -0.190041
     6  N   -0.654783
     7  C    0.331599
     8  C   -0.130142
     9  C   -0.144855
    10  C    0.346078
    11  C   -0.308561
    12  C   -0.224999
    13  C   -0.241031
    14  C    0.601618
    15  O   -0.482639
    16  O   -0.418436
    17  N   -0.707155
    18  C    0.370947
    19  C    0.070378
    20  C   -0.041333
    21  C    0.290581
    22  C   -0.392135
    23  C    0.220457
    24  O   -0.404035
    25  N   -0.645637
    26  C    0.290631
    27  C   -0.001005
    28  C    0.018901
    29  C    0.287631
    30  C    0.222743
    31  C   -0.221512
    32  C   -0.274536
    33  N   -0.700769
    34  C    0.281173
    35  C   -0.002455
    36  C    0.043801
    37  C    0.248922
    38  C   -0.378480
    39  C    0.381652
    40  O   -0.468414
    41  C   -0.317509
    42  C    0.644058
    43  O   -0.466182
    44  O   -0.438122
    45  C   -0.101731
    46  C   -0.012415
    47  C   -0.136121
    48  C    0.137151
    49  C   -0.373690
    50  C   -0.235982
    51  C   -0.174126
    52  C   -0.169991
    53  C   -0.074572
    54  C   -0.289377
    55  C   -0.164512
    56  C   -0.177936
    57  C   -0.182769
    58  C   -0.034975
    59  C   -0.299533
    60  C   -0.153216
    61  C   -0.164988
    62  C   -0.160716
    63  C   -0.053926
    64  C   -0.295832
    65  C   -0.299735
    66  H    0.078905
    67  H    0.137355
    68  H    0.087570
    69  H    0.124822
    70  H    0.110789
    71  H    0.105758
    72  H    0.118965
    73  H    0.129786
    74  H    0.112523
    75  H    0.130432
    76  H    0.116840
    77  H    0.137700
    78  H    0.118743
    79  H    0.152793
    80  H    0.126185
    81  H    0.067522
    82  H    0.104128
    83  H    0.077043
    84  H    0.084880
    85  H    0.079537
    86  H    0.135386
    87  H    0.137232
    88  H    0.120710
    89  H    0.143363
    90  H    0.149049
    91  H    0.103153
    92  H    0.125220
    93  H    0.072475
    94  H    0.146643
    95  H    0.099918
    96  H    0.113681
    97  H    0.074927
    98  H    0.090328
    99  H    0.114201
   100  H    0.094022
   101  H    0.087131
   102  H    0.105436
   103  H    0.070114
   104  H    0.087070
   105  H    0.103048
   106  H    0.109137
   107  H    0.099572
   108  H    0.082218
   109  H    0.074674
   110  H    0.106308
   111  H    0.083226
   112  H    0.086526
   113  H    0.088260
   114  H    0.099908
   115  H    0.094313
   116  H    0.080289
   117  H    0.041641
   118  H    0.049915
   119  H    0.079719
   120  H    0.090281
   121  H    0.083733
   122  H    0.102452
   123  H    0.078072
   124  H    0.105610
   125  H    0.078374
   126  H    0.110574
   127  H    0.091922
   128  H    0.078832
   129  H    0.100301
   130  H    0.135725
   131  H    0.129951
   132  H    0.122374
   133  O   -0.447856
   134  H    0.081809
 Sum of Mulliken charges =   0.00000

 Dipole moment (field-independent basis, Debye):
    X=              3.1747    Y=             -7.1543    Z=              0.0128  Tot=              7.8270
 Quadrupole moment (field-independent basis, Debye-Ang):
   XX=           -400.3931   YY=           -443.8293   ZZ=           -390.6216
   XY=             17.5515   XZ=             17.2084   YZ=            -34.7142

 Normal termination of Gaussian 09 at Sat Oct  5 08:29:06 2019.
