 Gaussian 09, Revision D.01,
 Gaussian 09:  ES64L-G09RevD.01 24-Apr-2013

 ----------------------------------------------------------------------
 # td=(NStates=1) iop(3/107=0140000000,3/108=0140000000) iop(3/107=0140
 000000,3/108=0140000000) CAM-B3LYP/6-31G(d,p)
 ----------------------------------------------------------------------

 --
 TD
 --
 Symbolic Z-matrix:
 Charge =  0 Multiplicity = 1

                         Standard orientation:
 ---------------------------------------------------------------------
 Center     Atomic      Atomic             Coordinates (Angstroms)
 Number     Number       Type             X           Y           Z
 ---------------------------------------------------------------------
      1         12           0       -5.669710    1.329477    0.216842
      2          6           0       -4.956610   -2.155919   -0.319925
      3          6           0       -3.389684    1.251214    2.653533
      4          6           0       -6.433532    4.534452    0.674919
      5          6           0       -8.021213    1.134734   -2.478291
      6          7           0       -4.404796   -0.291474    1.051411
      7          6           0       -4.222288   -1.626058    0.674264
      8          6           0       -3.246441   -2.329136    1.541326
      9          6           0       -2.945894   -1.199817    2.671656
     10          6           0       -3.616603   -0.000014    2.157512
     11          6           0       -3.522587   -1.594934    4.083868
     12          6           0       -1.995285   -2.770775    0.731776
     13          6           0       -1.027788   -3.636294    1.525046
     14          6           0        0.247406   -3.853496    0.723220
     15          8           0        0.509254   -3.464506   -0.420825
     16          8           0        1.085758   -4.745194    1.370243
     17          7           0       -4.976734    2.659762    1.475644
     18          6           0       -3.995863    2.500003    2.433602
     19          6           0       -3.695235    3.759183    3.162999
     20          6           0       -4.579850    4.626599    2.635067
     21          6           0       -5.284438    4.020071    1.398262
     22          6           0       -2.746486    3.896899    4.283439
     23          6           0       -4.613391    6.148554    2.960476
     24          8           0       -3.841237    6.618690    3.837584
     25          7           0       -6.956024    2.617901   -0.770538
     26          6           0       -7.127526    3.960538   -0.363801
     27          6           0       -8.014286    4.598503   -1.222183
     28          6           0       -8.529975    3.560671   -2.119322
     29          6           0       -7.869666    2.371572   -1.815841
     30          6           0       -8.459680    5.939391   -1.334880
     31          6           0       -9.463203    3.666503   -3.291255
     32          6           0       -8.754367    3.670916   -4.725957
     33          7           0       -6.327772   -0.096579   -1.101782
     34          6           0       -7.287390   -0.038535   -2.044917
     35          6           0       -7.478810   -1.332022   -2.759303
     36          6           0       -6.701799   -2.228565   -2.013440
     37          6           0       -5.983860   -1.418968   -1.038515
     38          6           0       -8.505739   -1.694719   -3.871401
     39          6           0       -6.145415   -3.606863   -1.917281
     40          8           0       -6.585943   -4.586422   -2.445805
     41          6           0       -4.992545   -3.613950   -0.886293
     42          6           0       -5.230421   -4.637315    0.119001
     43          8           0       -5.721315   -4.485149    1.279169
     44          8           0       -4.933328   -5.819455   -0.340562
     45          6           0       -5.256144   -6.992762    0.472663
     46          6           0        2.315483   -4.971351    0.728376
     47          6           0        3.365195   -3.955873    1.041786
     48          6           0        4.011892   -3.163706    0.186251
     49          6           0        3.769407   -3.240915   -1.334513
     50          6           0        5.099409   -2.340288    0.599988
     51          6           0        6.579629   -2.814709    0.072019
     52          6           0        7.675662   -1.935149    0.493617
     53          6           0        9.058704   -2.093694   -0.049740
     54          6           0        9.707532   -3.334220    0.152258
     55          6           0        9.946103   -0.826968    0.305348
     56          6           0       11.357319   -0.847175   -0.253052
     57          6           0       12.197083    0.356455    0.117831
     58          6           0       13.534374    0.393548   -0.612504
     59          6           0       14.442078   -0.768609   -0.261933
     60          6           0       14.304725    1.729634   -0.163480
     61          6           0       15.514442    2.203103   -0.926656
     62          6           0       16.100623    3.587236   -0.645403
     63          6           0       17.381310    3.981663   -1.409348
     64          6           0       17.162416    3.998790   -2.944032
     65          6           0       17.977505    5.352852   -0.913173
     66          1           0       -2.763164    1.202642    3.523762
     67          1           0       -6.647780    5.657727    0.789581
     68          1           0       -8.811744    1.196003   -3.198235
     69          1           0       -3.536105   -3.249940    2.266257
     70          1           0       -1.826154   -0.889331    2.852305
     71          1           0       -2.721784   -2.305961    4.544222
     72          1           0       -3.492054   -0.803180    4.623452
     73          1           0       -4.592958   -1.989771    3.921466
     74          1           0       -2.496032   -3.272378   -0.138830
     75          1           0       -1.312100   -1.932297    0.256286
     76          1           0       -0.560116   -3.226214    2.293466
     77          1           0       -1.383924   -4.611641    1.840178
     78          1           0       -1.693478    3.703743    3.947116
     79          1           0       -2.647580    4.843682    4.676483
     80          1           0       -3.186757    3.214808    5.122196
     81          1           0       -5.323288    6.935374    2.509402
     82          1           0      -10.006073    2.766839   -3.355213
     83          1           0      -10.097311    4.586009   -3.171073
     84          1           0       -9.573951    3.681866   -5.360311
     85          1           0       -8.023664    4.345297   -4.869780
     86          1           0       -8.200403    2.631889   -4.871458
     87          1           0       -8.336445   -0.962616   -4.634947
     88          1           0       -8.094345   -2.621652   -4.017596
     89          1           0       -9.364761   -1.566339   -3.601023
     90          1           0       -4.130995   -3.782824   -1.526343
     91          1           0        2.673334   -5.806003    1.047212
     92          1           0        2.257194   -5.155858   -0.421900
     93          1           0        3.705070   -3.778409    2.106146
     94          1           0        2.803311   -3.604196   -1.801501
     95          1           0        3.969780   -2.246186   -1.809461
     96          1           0        4.558723   -4.114976   -1.666424
     97          1           0        4.936988   -1.345048    0.224162
     98          1           0        5.304986   -2.167107    1.692426
     99          1           0        6.566322   -3.915357    0.368221
    100          1           0        6.612559   -2.736037   -1.049573
    101          1           0        7.479065   -0.853594    0.515187
    102          1           0        7.731872   -1.995639    1.633806
    103          1           0        8.988681   -1.838486   -1.110475
    104          1           0        9.153511   -4.255861   -0.086231
    105          1           0       10.745875   -3.575568   -0.356420
    106          1           0        9.941680   -3.548141    1.077256
    107          1           0        9.437757    0.156332    0.022139
    108          1           0        9.933943   -0.694254    1.405910
    109          1           0       11.871091   -1.903088   -0.061945
    110          1           0       11.361818   -0.920191   -1.453819
    111          1           0       11.387812    1.053363    0.041789
    112          1           0       12.553367    0.314611    1.381327
    113          1           0       13.510512    0.516495   -1.685954
    114          1           0       14.664290   -0.728652    0.800151
    115          1           0       13.888754   -1.766663   -0.501851
    116          1           0       15.287665   -0.632557   -0.793321
    117          1           0       13.513803    2.537137   -0.077466
    118          1           0       14.517302    1.614517    0.910663
    119          1           0       16.293348    1.477424   -0.662521
    120          1           0       15.253203    2.112446   -1.916929
    121          1           0       15.344875    4.252237   -0.826720
    122          1           0       16.304650    3.728170    0.470245
    123          1           0       18.128576    3.292843   -1.269031
    124          1           0       16.509373    4.803958   -3.340589
    125          1           0       18.238542    4.123121   -3.356040
    126          1           0       16.828896    2.942877   -3.128040
    127          1           0       18.083919    5.228459    0.170449
    128          1           0       19.205531    5.217099   -1.399536
    129          1           0       17.385971    6.298343   -0.996281
    130          1           0       -4.490573   -7.742801    0.105732
    131          1           0       -6.342965   -7.357713    0.251628
    132          1           0       -5.235993   -6.696267    1.693062
    133          8           0       -8.284372    6.776885   -0.387353
    134          1           0       -9.103881    6.296007   -2.193687
 ---------------------------------------------------------------------

 SCF Done:  E(RCAM-B3LYP) =  -3043.47886562     A.U. after   16 cycles

 Excitation energies and oscillator strengths:

 Excited State   1:      Singlet-A      2.0366 eV  608.78 nm  f=0.1329  <S**2>=0.000
     243 -> 246        0.30197
     244 -> 245        0.62945
 This state for optimization and/or second-order correction.
 Total Energy, E(TD-HF/TD-KS) =  -3043.40402193
 Copying the excited state density for this state as the 1-particle RhoCI density.

 The electronic state is 1-A.
 Alpha  occ. eigenvalues --  -46.81272 -19.23638 -19.22372 -19.17802 -19.17482
 Alpha  occ. eigenvalues --  -19.17381 -19.16289 -19.15802 -14.38461 -14.37411
 Alpha  occ. eigenvalues --  -14.37325 -14.36225 -10.35349 -10.35249 -10.32157
 Alpha  occ. eigenvalues --  -10.31718 -10.30040 -10.29825 -10.27836 -10.27534
 Alpha  occ. eigenvalues --  -10.27111 -10.26977 -10.26953 -10.26628 -10.26193
 Alpha  occ. eigenvalues --  -10.25869 -10.25605 -10.25555 -10.25304 -10.25300
 Alpha  occ. eigenvalues --  -10.25166 -10.24880 -10.24697 -10.24640 -10.24417
 Alpha  occ. eigenvalues --  -10.24304 -10.24221 -10.24114 -10.23837 -10.23473
 Alpha  occ. eigenvalues --  -10.22732 -10.22645 -10.22560 -10.22453 -10.22441
 Alpha  occ. eigenvalues --  -10.22412 -10.22383 -10.22345 -10.22301 -10.22290
 Alpha  occ. eigenvalues --  -10.22269 -10.21963 -10.21822 -10.21676 -10.21667
 Alpha  occ. eigenvalues --  -10.21355 -10.21162 -10.21088 -10.20799 -10.20787
 Alpha  occ. eigenvalues --  -10.20538 -10.20368 -10.20094 -10.19887 -10.19675
 Alpha  occ. eigenvalues --  -10.19265  -3.09860  -1.84796  -1.84323  -1.84282
 Alpha  occ. eigenvalues --   -1.14613  -1.12940  -1.08915  -1.04715  -1.04063
 Alpha  occ. eigenvalues --   -1.02855  -1.02155  -1.00316  -0.99055  -0.98279
 Alpha  occ. eigenvalues --   -0.97400  -0.88720  -0.86759  -0.85893  -0.85343
 Alpha  occ. eigenvalues --   -0.85300  -0.84819  -0.84415  -0.83905  -0.83285
 Alpha  occ. eigenvalues --   -0.83276  -0.83012  -0.81884  -0.80508  -0.80038
 Alpha  occ. eigenvalues --   -0.79170  -0.78533  -0.77775  -0.77497  -0.76996
 Alpha  occ. eigenvalues --   -0.76167  -0.75264  -0.74620  -0.73491  -0.73038
 Alpha  occ. eigenvalues --   -0.71656  -0.70584  -0.70148  -0.70020  -0.69939
 Alpha  occ. eigenvalues --   -0.69664  -0.69189  -0.67563  -0.66691  -0.66413
 Alpha  occ. eigenvalues --   -0.65438  -0.65131  -0.64150  -0.62698  -0.61811
 Alpha  occ. eigenvalues --   -0.60944  -0.60609  -0.60041  -0.59307  -0.58997
 Alpha  occ. eigenvalues --   -0.58957  -0.58813  -0.58452  -0.57865  -0.56890
 Alpha  occ. eigenvalues --   -0.56225  -0.55736  -0.55608  -0.55127  -0.54751
 Alpha  occ. eigenvalues --   -0.54307  -0.53609  -0.52998  -0.52809  -0.52449
 Alpha  occ. eigenvalues --   -0.52109  -0.51728  -0.51537  -0.51334  -0.50607
 Alpha  occ. eigenvalues --   -0.50591  -0.50234  -0.49653  -0.49528  -0.49351
 Alpha  occ. eigenvalues --   -0.48850  -0.48396  -0.48150  -0.47950  -0.47793
 Alpha  occ. eigenvalues --   -0.47606  -0.47542  -0.47288  -0.46818  -0.46755
 Alpha  occ. eigenvalues --   -0.46429  -0.46375  -0.46307  -0.46034  -0.45859
 Alpha  occ. eigenvalues --   -0.45686  -0.45638  -0.45443  -0.45052  -0.44983
 Alpha  occ. eigenvalues --   -0.44723  -0.44367  -0.44161  -0.43956  -0.43690
 Alpha  occ. eigenvalues --   -0.43679  -0.43520  -0.43133  -0.43034  -0.42848
 Alpha  occ. eigenvalues --   -0.42544  -0.42268  -0.42155  -0.41918  -0.41852
 Alpha  occ. eigenvalues --   -0.41528  -0.41150  -0.41071  -0.40984  -0.40906
 Alpha  occ. eigenvalues --   -0.40752  -0.40395  -0.40284  -0.40162  -0.40054
 Alpha  occ. eigenvalues --   -0.39581  -0.39455  -0.39346  -0.39086  -0.38997
 Alpha  occ. eigenvalues --   -0.38808  -0.38650  -0.38587  -0.38279  -0.38088
 Alpha  occ. eigenvalues --   -0.37941  -0.37821  -0.37677  -0.37559  -0.37306
 Alpha  occ. eigenvalues --   -0.37053  -0.36864  -0.36527  -0.36122  -0.35577
 Alpha  occ. eigenvalues --   -0.35471  -0.35364  -0.34957  -0.34679  -0.34465
 Alpha  occ. eigenvalues --   -0.34145  -0.34115  -0.33783  -0.33041  -0.32880
 Alpha  occ. eigenvalues --   -0.32784  -0.32609  -0.32098  -0.32082  -0.31671
 Alpha  occ. eigenvalues --   -0.30784  -0.30754  -0.30611  -0.30392  -0.30170
 Alpha  occ. eigenvalues --   -0.28995  -0.28743  -0.28435  -0.27626  -0.27151
 Alpha  occ. eigenvalues --   -0.26636  -0.26453  -0.22931  -0.21754
 Alpha virt. eigenvalues --   -0.08450  -0.07030  -0.01640  -0.01453   0.00301
 Alpha virt. eigenvalues --    0.02510   0.03049   0.03819   0.04044   0.04371
 Alpha virt. eigenvalues --    0.04630   0.05349   0.08114   0.08441   0.08960

 Mulliken charges:
               1
     1  Mg   0.833704
     2  C    0.045591
     3  C   -0.195775
     4  C   -0.180357
     5  C   -0.135463
     6  N   -0.643630
     7  C    0.312462
     8  C   -0.151952
     9  C   -0.178472
    10  C    0.381155
    11  C   -0.297334
    12  C   -0.172024
    13  C   -0.243390
    14  C    0.579759
    15  O   -0.470972
    16  O   -0.471277
    17  N   -0.691606
    18  C    0.322550
    19  C    0.089994
    20  C   -0.079749
    21  C    0.250885
    22  C   -0.376044
    23  C    0.237129
    24  O   -0.416363
    25  N   -0.721961
    26  C    0.321951
    27  C    0.025684
    28  C    0.012676
    29  C    0.297326
    30  C    0.190740
    31  C   -0.261006
    32  C   -0.307908
    33  N   -0.680034
    34  C    0.274340
    35  C   -0.053592
    36  C    0.014257
    37  C    0.276496
    38  C   -0.317220
    39  C    0.354545
    40  O   -0.436374
    41  C   -0.309923
    42  C    0.640762
    43  O   -0.523407
    44  O   -0.417512
    45  C   -0.096737
    46  C    0.039281
    47  C   -0.165753
    48  C    0.172894
    49  C   -0.362685
    50  C   -0.247593
    51  C   -0.172428
    52  C   -0.173093
    53  C   -0.031887
    54  C   -0.313235
    55  C   -0.206758
    56  C   -0.170862
    57  C   -0.121480
    58  C   -0.071472
    59  C   -0.289452
    60  C   -0.191680
    61  C   -0.178558
    62  C   -0.167370
    63  C   -0.052349
    64  C   -0.299618
    65  C   -0.296074
    66  H    0.072658
    67  H    0.134093
    68  H    0.087096
    69  H    0.125428
    70  H    0.095769
    71  H    0.097669
    72  H    0.122253
    73  H    0.128614
    74  H    0.108480
    75  H    0.121353
    76  H    0.148157
    77  H    0.146448
    78  H    0.122572
    79  H    0.168464
    80  H    0.116704
    81  H    0.105220
    82  H    0.120129
    83  H    0.108298
    84  H    0.124737
    85  H    0.132713
    86  H    0.084909
    87  H    0.117580
    88  H    0.150347
    89  H    0.139174
    90  H    0.177307
    91  H    0.113567
    92  H    0.105823
    93  H    0.068840
    94  H    0.141314
    95  H    0.105602
    96  H    0.094354
    97  H    0.103070
    98  H    0.094483
    99  H    0.096228
   100  H    0.093371
   101  H    0.094015
   102  H    0.068295
   103  H    0.089927
   104  H    0.096728
   105  H    0.086142
   106  H    0.118608
   107  H    0.081898
   108  H    0.090495
   109  H    0.080936
   110  H    0.069536
   111  H    0.096966
   112  H    0.039401
   113  H    0.087013
   114  H    0.102981
   115  H    0.086289
   116  H    0.112823
   117  H    0.072050
   118  H    0.080772
   119  H    0.089039
   120  H    0.100359
   121  H    0.098020
   122  H    0.072342
   123  H    0.098405
   124  H    0.104175
   125  H    0.084702
   126  H    0.098909
   127  H    0.102651
   128  H    0.055441
   129  H    0.108528
   130  H    0.131371
   131  H    0.138201
   132  H    0.135952
   133  O   -0.454692
   134  H    0.077146
 Sum of Mulliken charges =   0.00000

 Dipole moment (field-independent basis, Debye):
    X=              2.1326    Y=             -5.0828    Z=             -1.2732  Tot=              5.6572
 Quadrupole moment (field-independent basis, Debye-Ang):
   XX=           -399.6189   YY=           -435.6171   ZZ=           -390.5844
   XY=             10.8893   XZ=             28.7365   YZ=            -29.7095

 Normal termination of Gaussian 09 at Sat Oct  5 08:06:07 2019.
