 Gaussian 09, Revision D.01,
 Gaussian 09:  ES64L-G09RevD.01 24-Apr-2013

 ----------------------------------------------------------------------
 # td=(NStates=1) iop(3/107=0140000000,3/108=0140000000) iop(3/107=0140
 000000,3/108=0140000000) CAM-B3LYP/6-31G(d,p)
 ----------------------------------------------------------------------

 --
 TD
 --
 Symbolic Z-matrix:
 Charge =  0 Multiplicity = 1

                         Standard orientation:
 ---------------------------------------------------------------------
 Center     Atomic      Atomic             Coordinates (Angstroms)
 Number     Number       Type             X           Y           Z
 ---------------------------------------------------------------------
      1         12           0       -5.607725    1.190241    0.244572
      2          6           0       -5.040463   -2.158469   -0.270901
      3          6           0       -3.459489    1.205836    2.887293
      4          6           0       -6.247781    4.538565    0.704086
      5          6           0       -7.887016    1.211844   -2.482373
      6          7           0       -4.309010   -0.140030    1.069004
      7          6           0       -4.274494   -1.578350    0.691832
      8          6           0       -3.228852   -2.300210    1.608026
      9          6           0       -2.950065   -1.359745    2.695853
     10          6           0       -3.489102   -0.021176    2.178004
     11          6           0       -3.506763   -1.740840    4.022556
     12          6           0       -1.968000   -2.487677    0.771175
     13          6           0       -1.014335   -3.522258    1.449882
     14          6           0        0.199758   -3.834649    0.606516
     15          8           0        0.282969   -3.541227   -0.619053
     16          8           0        1.038913   -4.657865    1.298287
     17          7           0       -4.955468    2.640854    1.510801
     18          6           0       -4.027815    2.472705    2.453844
     19          6           0       -3.654073    3.692080    3.124142
     20          6           0       -4.483695    4.698083    2.588019
     21          6           0       -5.269923    3.994200    1.490175
     22          6           0       -2.592717    3.890010    4.187820
     23          6           0       -4.537925    6.179307    2.819748
     24          8           0       -3.842595    6.723269    3.735800
     25          7           0       -6.814693    2.616689   -0.679683
     26          6           0       -6.917844    3.924591   -0.402211
     27          6           0       -7.821965    4.647139   -1.313781
     28          6           0       -8.435530    3.670825   -2.071490
     29          6           0       -7.691867    2.485644   -1.732496
     30          6           0       -8.259613    6.002199   -1.221691
     31          6           0       -9.322690    3.810026   -3.276974
     32          6           0       -8.703800    3.898034   -4.609752
     33          7           0       -6.284895   -0.164182   -1.144788
     34          6           0       -7.330083   -0.030372   -2.128794
     35          6           0       -7.576543   -1.330281   -2.699281
     36          6           0       -6.648311   -2.196368   -2.009503
     37          6           0       -5.995477   -1.374970   -1.037439
     38          6           0       -8.569067   -1.584813   -3.779694
     39          6           0       -6.172372   -3.579555   -1.899287
     40          8           0       -6.556696   -4.655578   -2.477976
     41          6           0       -5.086066   -3.583154   -0.778198
     42          6           0       -5.316065   -4.624992    0.297564
     43          8           0       -5.780781   -4.382975    1.398221
     44          8           0       -5.012773   -5.889989   -0.145518
     45          6           0       -5.190160   -6.882192    0.708038
     46          6           0        2.174838   -5.127970    0.581554
     47          6           0        3.397390   -4.239362    0.836738
     48          6           0        3.924875   -3.502460    0.003318
     49          6           0        3.651495   -3.303164   -1.458740
     50          6           0        5.048634   -2.493554    0.563153
     51          6           0        6.455056   -2.884476   -0.215288
     52          6           0        7.551982   -1.906294    0.449280
     53          6           0        8.954264   -2.068482   -0.326205
     54          6           0        9.565013   -3.551944   -0.085629
     55          6           0        9.870733   -1.092841    0.240189
     56          6           0       11.317652   -0.816909   -0.342738
     57          6           0       12.123936    0.450999    0.117662
     58          6           0       13.505445    0.568816   -0.513541
     59          6           0       14.339614   -0.732125   -0.182614
     60          6           0       14.314467    1.735626   -0.026385
     61          6           0       15.485509    2.134247   -0.978886
     62          6           0       16.125804    3.430248   -0.417840
     63          6           0       17.305345    3.980229   -1.288809
     64          6           0       17.077824    4.035473   -2.785077
     65          6           0       17.779880    5.303936   -0.724321
     66          1           0       -2.710466    1.100075    3.800180
     67          1           0       -6.461672    5.622632    0.834676
     68          1           0       -8.698239    1.183007   -3.170276
     69          1           0       -3.676269   -3.215557    1.895394
     70          1           0       -1.967755   -0.971804    2.695243
     71          1           0       -2.850624   -2.446209    4.512817
     72          1           0       -3.606905   -0.774551    4.636522
     73          1           0       -4.583041   -1.927479    3.606568
     74          1           0       -2.244301   -3.027507   -0.284215
     75          1           0       -1.485198   -1.697488    0.578460
     76          1           0       -0.628234   -3.086602    2.470142
     77          1           0       -1.491331   -4.482471    1.626651
     78          1           0       -1.703197    3.454359    3.598523
     79          1           0       -2.269000    4.803142    4.735373
     80          1           0       -2.779683    3.353726    5.161820
     81          1           0       -5.260752    6.553706    2.097869
     82          1           0      -10.069289    2.854105   -3.251589
     83          1           0       -9.770431    4.944040   -3.097346
     84          1           0       -9.503505    4.371578   -5.446049
     85          1           0       -7.955474    4.689626   -4.489711
     86          1           0       -8.264496    2.968716   -4.825713
     87          1           0       -8.452228   -0.929055   -4.620758
     88          1           0       -8.477875   -2.658454   -3.984204
     89          1           0       -9.560030   -1.168592   -3.638588
     90          1           0       -4.311543   -4.089387   -1.285460
     91          1           0        2.212773   -6.230074    1.041221
     92          1           0        1.841066   -5.170741   -0.412687
     93          1           0        3.976106   -4.343978    1.751256
     94          1           0        2.625024   -3.473642   -1.656162
     95          1           0        4.136509   -2.349809   -1.768445
     96          1           0        4.256041   -4.124861   -1.908899
     97          1           0        4.715749   -1.441070    0.221584
     98          1           0        5.308107   -2.718645    1.641231
     99          1           0        6.778979   -3.843819    0.084224
    100          1           0        6.423716   -2.685393   -1.369705
    101          1           0        7.338804   -0.787397    0.448586
    102          1           0        7.734671   -2.192892    1.514688
    103          1           0        8.659280   -1.947780   -1.437019
    104          1           0        8.724374   -4.193207   -0.499951
    105          1           0       10.296205   -3.618059   -0.573415
    106          1           0        9.768159   -3.669993    1.093676
    107          1           0        9.339118   -0.136820    0.016171
    108          1           0       10.005334   -1.008692    1.329609
    109          1           0       12.148371   -1.633529   -0.236409
    110          1           0       11.213073   -0.797673   -1.408636
    111          1           0       11.557007    1.492596    0.016377
    112          1           0       12.122827    0.474841    1.283332
    113          1           0       13.227881    0.650212   -1.671314
    114          1           0       14.594193   -0.863151    0.785405
    115          1           0       13.908730   -1.734192   -0.459733
    116          1           0       15.368656   -0.535429   -0.510183
    117          1           0       13.673033    2.528173   -0.074614
    118          1           0       14.520532    1.568025    1.086479
    119          1           0       16.160793    1.368506   -0.886284
    120          1           0       15.268941    2.165481   -2.022718
    121          1           0       15.419717    4.315995   -0.405378
    122          1           0       16.555571    3.125101    0.574575
    123          1           0       18.065686    3.283125   -0.997081
    124          1           0       16.395769    4.859873   -2.951146
    125          1           0       18.100108    4.176450   -3.177745
    126          1           0       16.671743    3.166893   -3.185254
    127          1           0       18.060838    5.309022    0.450269
    128          1           0       18.706651    5.634456   -1.193848
    129          1           0       17.092117    6.239620   -0.858735
    130          1           0       -4.714619   -7.810780    0.263245
    131          1           0       -6.404344   -7.078935    0.655093
    132          1           0       -4.594964   -6.687388    1.624829
    133          8           0       -7.695207    6.861479   -0.541918
    134          1           0       -9.103566    6.376827   -1.876939
 ---------------------------------------------------------------------

 SCF Done:  E(RCAM-B3LYP) =  -3043.45182104     A.U. after   15 cycles

 Excitation energies and oscillator strengths:

 Excited State   1:      Singlet-A      2.0319 eV  610.17 nm  f=0.1639  <S**2>=0.000
     243 -> 246       -0.24951
     244 -> 245        0.64748
 This state for optimization and/or second-order correction.
 Total Energy, E(TD-HF/TD-KS) =  -3043.37714838
 Copying the excited state density for this state as the 1-particle RhoCI density.

 The electronic state is 1-A.
 Alpha  occ. eigenvalues --  -46.81912 -19.22837 -19.22723 -19.18023 -19.17759
 Alpha  occ. eigenvalues --  -19.17650 -19.16798 -19.16573 -14.39006 -14.38228
 Alpha  occ. eigenvalues --  -14.37620 -14.37193 -10.35792 -10.35648 -10.31829
 Alpha  occ. eigenvalues --  -10.31208 -10.30389 -10.28203 -10.28137 -10.28070
 Alpha  occ. eigenvalues --  -10.28010 -10.27809 -10.27203 -10.26964 -10.26914
 Alpha  occ. eigenvalues --  -10.26880 -10.26486 -10.26289 -10.26213 -10.25898
 Alpha  occ. eigenvalues --  -10.25487 -10.25116 -10.24694 -10.24680 -10.24359
 Alpha  occ. eigenvalues --  -10.23955 -10.23949 -10.23739 -10.23655 -10.23522
 Alpha  occ. eigenvalues --  -10.23405 -10.23341 -10.23337 -10.23179 -10.23154
 Alpha  occ. eigenvalues --  -10.23093 -10.23017 -10.22867 -10.22797 -10.22433
 Alpha  occ. eigenvalues --  -10.22408 -10.22001 -10.21938 -10.21712 -10.21343
 Alpha  occ. eigenvalues --  -10.21217 -10.20983 -10.20928 -10.20885 -10.20701
 Alpha  occ. eigenvalues --  -10.20101 -10.19916 -10.19843 -10.19680 -10.19650
 Alpha  occ. eigenvalues --  -10.19397  -3.10544  -1.85479  -1.85024  -1.84955
 Alpha  occ. eigenvalues --   -1.15564  -1.12937  -1.06358  -1.06069  -1.03931
 Alpha  occ. eigenvalues --   -1.03558  -1.03326  -1.01847  -1.01061  -1.00177
 Alpha  occ. eigenvalues --   -0.97583  -0.88641  -0.87055  -0.86464  -0.86169
 Alpha  occ. eigenvalues --   -0.85211  -0.85043  -0.84066  -0.83969  -0.83284
 Alpha  occ. eigenvalues --   -0.83064  -0.82942  -0.81953  -0.80635  -0.80160
 Alpha  occ. eigenvalues --   -0.78998  -0.78509  -0.77710  -0.77266  -0.76538
 Alpha  occ. eigenvalues --   -0.75292  -0.74621  -0.74034  -0.73258  -0.72788
 Alpha  occ. eigenvalues --   -0.71750  -0.71257  -0.71245  -0.70435  -0.70026
 Alpha  occ. eigenvalues --   -0.69782  -0.68701  -0.67958  -0.67241  -0.66399
 Alpha  occ. eigenvalues --   -0.65971  -0.65067  -0.64147  -0.63057  -0.62681
 Alpha  occ. eigenvalues --   -0.61894  -0.60627  -0.60422  -0.59156  -0.59058
 Alpha  occ. eigenvalues --   -0.58398  -0.58005  -0.57622  -0.57200  -0.57097
 Alpha  occ. eigenvalues --   -0.56481  -0.55845  -0.55790  -0.55317  -0.54835
 Alpha  occ. eigenvalues --   -0.54287  -0.53825  -0.53212  -0.52805  -0.52272
 Alpha  occ. eigenvalues --   -0.52125  -0.52059  -0.51739  -0.51100  -0.50856
 Alpha  occ. eigenvalues --   -0.50808  -0.50345  -0.50096  -0.49370  -0.49245
 Alpha  occ. eigenvalues --   -0.48981  -0.48898  -0.48709  -0.48382  -0.47851
 Alpha  occ. eigenvalues --   -0.47709  -0.47655  -0.47430  -0.47334  -0.47202
 Alpha  occ. eigenvalues --   -0.46864  -0.46493  -0.46443  -0.46038  -0.45701
 Alpha  occ. eigenvalues --   -0.45662  -0.45375  -0.45196  -0.45083  -0.44930
 Alpha  occ. eigenvalues --   -0.44690  -0.44378  -0.44201  -0.43924  -0.43713
 Alpha  occ. eigenvalues --   -0.43430  -0.43309  -0.43197  -0.42906  -0.42845
 Alpha  occ. eigenvalues --   -0.42602  -0.42597  -0.42346  -0.42240  -0.41706
 Alpha  occ. eigenvalues --   -0.41473  -0.41407  -0.41270  -0.41109  -0.40892
 Alpha  occ. eigenvalues --   -0.40835  -0.40712  -0.40549  -0.40449  -0.40233
 Alpha  occ. eigenvalues --   -0.40032  -0.39857  -0.39675  -0.39312  -0.39097
 Alpha  occ. eigenvalues --   -0.38886  -0.38646  -0.38517  -0.38016  -0.37808
 Alpha  occ. eigenvalues --   -0.37767  -0.37613  -0.37462  -0.37223  -0.36839
 Alpha  occ. eigenvalues --   -0.36708  -0.36664  -0.36610  -0.36299  -0.36223
 Alpha  occ. eigenvalues --   -0.36002  -0.35217  -0.35109  -0.34996  -0.34889
 Alpha  occ. eigenvalues --   -0.34696  -0.34314  -0.34197  -0.33246  -0.32851
 Alpha  occ. eigenvalues --   -0.32724  -0.32581  -0.32007  -0.31564  -0.31479
 Alpha  occ. eigenvalues --   -0.31120  -0.31105  -0.30780  -0.30473  -0.29892
 Alpha  occ. eigenvalues --   -0.29404  -0.28334  -0.28308  -0.28119  -0.27834
 Alpha  occ. eigenvalues --   -0.27789  -0.27531  -0.23491  -0.22216
 Alpha virt. eigenvalues --   -0.09011  -0.07216  -0.01886  -0.01423   0.00033
 Alpha virt. eigenvalues --    0.02101   0.02226   0.02896   0.03912   0.04703
 Alpha virt. eigenvalues --    0.04925   0.06101   0.06527   0.07860   0.08478

 Mulliken charges:
               1
     1  Mg   0.821721
     2  C    0.103742
     3  C   -0.213032
     4  C   -0.195155
     5  C   -0.152601
     6  N   -0.621135
     7  C    0.240460
     8  C   -0.141358
     9  C   -0.122869
    10  C    0.294379
    11  C   -0.290156
    12  C   -0.139657
    13  C   -0.264649
    14  C    0.596743
    15  O   -0.489197
    16  O   -0.447733
    17  N   -0.692529
    18  C    0.339649
    19  C    0.038727
    20  C   -0.031653
    21  C    0.289100
    22  C   -0.368257
    23  C    0.271468
    24  O   -0.444344
    25  N   -0.649511
    26  C    0.294454
    27  C   -0.006307
    28  C    0.046960
    29  C    0.248485
    30  C    0.219294
    31  C   -0.229967
    32  C   -0.271486
    33  N   -0.726284
    34  C    0.233962
    35  C    0.047826
    36  C   -0.005870
    37  C    0.367618
    38  C   -0.389489
    39  C    0.344908
    40  O   -0.496949
    41  C   -0.299017
    42  C    0.612426
    43  O   -0.465513
    44  O   -0.402658
    45  C   -0.079824
    46  C   -0.012064
    47  C   -0.136076
    48  C    0.167661
    49  C   -0.370135
    50  C   -0.234942
    51  C   -0.193433
    52  C   -0.175342
    53  C   -0.076434
    54  C   -0.274725
    55  C   -0.162699
    56  C   -0.183985
    57  C   -0.164637
    58  C   -0.039756
    59  C   -0.327130
    60  C   -0.173457
    61  C   -0.188799
    62  C   -0.165765
    63  C   -0.059426
    64  C   -0.305503
    65  C   -0.306840
    66  H    0.083703
    67  H    0.136664
    68  H    0.083805
    69  H    0.118733
    70  H    0.110974
    71  H    0.124647
    72  H    0.106084
    73  H    0.126205
    74  H    0.099342
    75  H    0.118051
    76  H    0.117122
    77  H    0.142395
    78  H    0.114917
    79  H    0.160282
    80  H    0.119438
    81  H    0.105360
    82  H    0.089700
    83  H    0.085635
    84  H    0.093061
    85  H    0.117795
    86  H    0.114023
    87  H    0.133246
    88  H    0.156359
    89  H    0.133528
    90  H    0.167682
    91  H    0.094652
    92  H    0.129683
    93  H    0.074005
    94  H    0.151639
    95  H    0.105473
    96  H    0.122750
    97  H    0.106040
    98  H    0.097242
    99  H    0.120067
   100  H    0.088697
   101  H    0.083448
   102  H    0.088462
   103  H    0.075317
   104  H    0.084211
   105  H    0.112877
   106  H    0.079561
   107  H    0.083828
   108  H    0.092165
   109  H    0.074587
   110  H    0.091610
   111  H    0.061016
   112  H    0.067477
   113  H    0.068849
   114  H    0.115352
   115  H    0.098630
   116  H    0.088846
   117  H    0.099473
   118  H    0.086361
   119  H    0.103733
   120  H    0.097966
   121  H    0.080492
   122  H    0.088694
   123  H    0.088738
   124  H    0.105670
   125  H    0.104547
   126  H    0.109057
   127  H    0.078751
   128  H    0.099911
   129  H    0.084833
   130  H    0.113216
   131  H    0.105596
   132  H    0.112820
   133  O   -0.435308
   134  H    0.068982
 Sum of Mulliken charges =   0.00000

 Dipole moment (field-independent basis, Debye):
    X=              2.4568    Y=             -3.6731    Z=             -0.8442  Tot=              4.4989
 Quadrupole moment (field-independent basis, Debye-Ang):
   XX=           -370.8705   YY=           -449.2860   ZZ=           -393.4695
   XY=             -3.5641   XZ=             23.3697   YZ=            -34.2534

 Normal termination of Gaussian 09 at Tue Oct  8 01:16:30 2019.
