 Gaussian 09, Revision D.01,
 Gaussian 09:  ES64L-G09RevD.01 24-Apr-2013

 ----------------------------------------------------------------------
 # td=(NStates=1) iop(3/107=0140000000,3/108=0140000000) iop(3/107=0140
 000000,3/108=0140000000) CAM-B3LYP/6-31G(d,p)
 ----------------------------------------------------------------------

 --
 TD
 --
 Symbolic Z-matrix:
 Charge =  0 Multiplicity = 1

                         Standard orientation:
 ---------------------------------------------------------------------
 Center     Atomic      Atomic             Coordinates (Angstroms)
 Number     Number       Type             X           Y           Z
 ---------------------------------------------------------------------
      1         12           0       -5.692689    1.223292    0.244475
      2          6           0       -4.880598   -2.085058   -0.332126
      3          6           0       -3.357305    1.139914    2.750466
      4          6           0       -6.247160    4.521825    0.644318
      5          6           0       -7.930907    1.160052   -2.381192
      6          7           0       -4.382167   -0.323990    1.154142
      7          6           0       -4.217962   -1.564591    0.639747
      8          6           0       -3.246105   -2.348122    1.460470
      9          6           0       -2.891824   -1.395825    2.643559
     10          6           0       -3.603739   -0.143117    2.227327
     11          6           0       -3.297141   -1.872224    4.015696
     12          6           0       -1.890153   -2.846672    0.697929
     13          6           0       -0.938607   -3.701583    1.465861
     14          6           0        0.291043   -3.956708    0.662476
     15          8           0        0.511176   -3.477660   -0.459499
     16          8           0        1.042970   -4.677553    1.423433
     17          7           0       -4.945938    2.579511    1.495082
     18          6           0       -3.962679    2.417282    2.486603
     19          6           0       -3.681237    3.604512    3.168336
     20          6           0       -4.512150    4.655324    2.588867
     21          6           0       -5.225036    3.954908    1.599202
     22          6           0       -2.895688    3.746272    4.330301
     23          6           0       -4.669196    6.005940    3.070451
     24          8           0       -4.066140    6.475959    4.010585
     25          7           0       -6.912795    2.514170   -0.708575
     26          6           0       -6.981120    3.854714   -0.320355
     27          6           0       -7.958814    4.562354   -1.188166
     28          6           0       -8.563057    3.613581   -2.034778
     29          6           0       -7.822510    2.385484   -1.649453
     30          6           0       -8.423872    5.986760   -1.078701
     31          6           0       -9.436429    3.901373   -3.284265
     32          6           0       -8.727478    4.141026   -4.567420
     33          7           0       -6.340042   -0.175103   -1.129874
     34          6           0       -7.318619   -0.040166   -2.094244
     35          6           0       -7.481156   -1.360231   -2.820300
     36          6           0       -6.488241   -2.253476   -2.216965
     37          6           0       -5.893603   -1.471983   -1.192770
     38          6           0       -8.389945   -1.496101   -4.027951
     39          6           0       -6.016576   -3.607972   -2.124703
     40          8           0       -6.369539   -4.589734   -2.647249
     41          6           0       -4.851515   -3.491010   -0.923025
     42          6           0       -5.122063   -4.591084   -0.080883
     43          8           0       -5.574401   -4.509495    1.126769
     44          8           0       -4.764791   -5.858989   -0.577313
     45          6           0       -5.241734   -6.911880    0.250731
     46          6           0        2.355666   -5.112945    0.659437
     47          6           0        3.374548   -4.155760    0.968092
     48          6           0        4.038342   -3.283696    0.182334
     49          6           0        3.712131   -3.138544   -1.255584
     50          6           0        5.097941   -2.445846    0.844904
     51          6           0        6.477889   -2.660099    0.149935
     52          6           0        7.584022   -1.809293    0.752188
     53          6           0        8.937607   -1.991233    0.014629
     54          6           0        9.487991   -3.409798    0.346433
     55          6           0        9.923362   -0.820105    0.427359
     56          6           0       11.209358   -0.831230   -0.250004
     57          6           0       12.166524    0.342177    0.135765
     58          6           0       13.505056    0.480272   -0.565273
     59          6           0       14.448106   -0.745983   -0.337143
     60          6           0       14.184827    1.864780   -0.227276
     61          6           0       15.434671    2.181016   -0.987970
     62          6           0       15.900752    3.621445   -0.635071
     63          6           0       17.131098    4.023476   -1.573118
     64          6           0       16.820871    4.299845   -3.017804
     65          6           0       17.753251    5.308920   -0.884176
     66          1           0       -2.743753    1.097067    3.723875
     67          1           0       -6.479391    5.581954    0.818228
     68          1           0       -8.722275    1.270679   -3.179291
     69          1           0       -3.717534   -3.220447    1.910473
     70          1           0       -1.802654   -1.328009    2.674176
     71          1           0       -2.711619   -2.657979    4.506170
     72          1           0       -3.200196   -1.049238    4.670179
     73          1           0       -4.497522   -2.220493    3.946240
     74          1           0       -2.114159   -3.028334   -0.257771
     75          1           0       -1.410013   -1.807729    0.392359
     76          1           0       -0.615948   -3.351409    2.336252
     77          1           0       -1.754300   -4.545874    1.707148
     78          1           0       -1.949204    3.526154    4.214194
     79          1           0       -3.018473    4.761857    4.881197
     80          1           0       -3.273011    2.945102    5.067652
     81          1           0       -5.372955    6.822721    2.496296
     82          1           0      -10.185135    3.132997   -3.324973
     83          1           0      -10.014137    4.775661   -2.974273
     84          1           0       -9.464190    4.330723   -5.270513
     85          1           0       -8.268400    5.062891   -4.517504
     86          1           0       -7.862861    3.539271   -4.842069
     87          1           0       -8.039712   -0.924628   -4.850467
     88          1           0       -7.991277   -2.500128   -4.580191
     89          1           0       -9.409902   -1.449736   -3.555302
     90          1           0       -3.930997   -3.690720   -1.565231
     91          1           0        2.478364   -6.237099    1.030733
     92          1           0        1.805640   -4.935933   -0.373090
     93          1           0        3.750216   -4.117850    1.970249
     94          1           0        2.724897   -3.185655   -1.481598
     95          1           0        4.026701   -2.042739   -1.577802
     96          1           0        4.153135   -3.749889   -1.866957
     97          1           0        4.820926   -1.366759    0.570494
     98          1           0        5.066568   -2.557883    1.813418
     99          1           0        6.967620   -3.724277    0.341642
    100          1           0        6.485346   -2.681971   -0.918924
    101          1           0        7.279638   -0.684087    0.512505
    102          1           0        7.724229   -1.851734    1.857418
    103          1           0        8.960406   -1.905459   -1.084604
    104          1           0        8.850103   -4.239490   -0.005369
    105          1           0       10.548784   -3.698146   -0.151994
    106          1           0        9.820899   -3.399996    1.380595
    107          1           0        9.465311   -0.016214    0.061420
    108          1           0       10.111131   -0.626030    1.595546
    109          1           0       11.665834   -1.935800    0.135646
    110          1           0       11.227027   -0.858631   -1.320457
    111          1           0       11.562888    1.329895    0.213257
    112          1           0       12.407164    0.258599    1.232894
    113          1           0       13.278750    0.542650   -1.500782
    114          1           0       14.871296   -0.734593    0.778800
    115          1           0       13.854576   -1.626691   -0.621346
    116          1           0       15.296962   -0.775597   -0.915496
    117          1           0       13.417490    2.562881   -0.518200
    118          1           0       14.329541    1.793132    0.746114
    119          1           0       16.282276    1.341646   -1.160992
    120          1           0       15.074627    1.957688   -2.178227
    121          1           0       15.090076    4.360190   -0.866455
    122          1           0       16.187105    3.711515    0.404100
    123          1           0       17.768356    3.169204   -1.556747
    124          1           0       16.095883    5.235761   -3.093237
    125          1           0       17.745040    4.435167   -3.534215
    126          1           0       16.206498    3.368636   -3.628966
    127          1           0       18.382207    5.121356    0.201543
    128          1           0       18.664221    5.761750   -1.444468
    129          1           0       17.018159    6.124901   -0.884039
    130          1           0       -4.809193   -7.683397   -0.269582
    131          1           0       -6.244820   -6.992043    0.379527
    132          1           0       -4.739768   -6.829338    1.177668
    133          8           0       -7.955288    6.870641   -0.320864
    134          1           0       -9.360547    6.217522   -1.729080
 ---------------------------------------------------------------------

 SCF Done:  E(RCAM-B3LYP) =  -3043.43728648     A.U. after   16 cycles

 Excitation energies and oscillator strengths:

 Excited State   1:      Singlet-A      1.8803 eV  659.39 nm  f=0.2417  <S**2>=0.000
     243 -> 246       -0.18624
     244 -> 245        0.67038
 This state for optimization and/or second-order correction.
 Total Energy, E(TD-HF/TD-KS) =  -3043.36818675
 Copying the excited state density for this state as the 1-particle RhoCI density.

 The electronic state is 1-A.
 Alpha  occ. eigenvalues --  -46.81792 -19.22382 -19.21410 -19.18727 -19.18115
 Alpha  occ. eigenvalues --  -19.16976 -19.16554 -19.15942 -14.38209 -14.37693
 Alpha  occ. eigenvalues --  -14.36851 -14.36802 -10.34560 -10.34360 -10.32492
 Alpha  occ. eigenvalues --  -10.32036 -10.30665 -10.28996 -10.27167 -10.26998
 Alpha  occ. eigenvalues --  -10.26950 -10.26947 -10.26906 -10.26825 -10.26527
 Alpha  occ. eigenvalues --  -10.26122 -10.25786 -10.25680 -10.25078 -10.24716
 Alpha  occ. eigenvalues --  -10.24554 -10.24439 -10.24389 -10.24138 -10.23963
 Alpha  occ. eigenvalues --  -10.23932 -10.23572 -10.23478 -10.23349 -10.23337
 Alpha  occ. eigenvalues --  -10.23030 -10.23005 -10.22843 -10.22785 -10.22646
 Alpha  occ. eigenvalues --  -10.22539 -10.22526 -10.22386 -10.22359 -10.22305
 Alpha  occ. eigenvalues --  -10.22167 -10.21880 -10.21877 -10.21862 -10.21529
 Alpha  occ. eigenvalues --  -10.21351 -10.21298 -10.21184 -10.21161 -10.20850
 Alpha  occ. eigenvalues --  -10.20466 -10.20273 -10.20161 -10.19849 -10.19531
 Alpha  occ. eigenvalues --  -10.19024  -3.10343  -1.85277  -1.84836  -1.84739
 Alpha  occ. eigenvalues --   -1.13650  -1.11327  -1.10213  -1.06749  -1.05382
 Alpha  occ. eigenvalues --   -1.03886  -1.00996  -1.00743  -1.00454  -0.98769
 Alpha  occ. eigenvalues --   -0.97996  -0.88702  -0.87005  -0.85620  -0.85472
 Alpha  occ. eigenvalues --   -0.84936  -0.84321  -0.84233  -0.83836  -0.83358
 Alpha  occ. eigenvalues --   -0.82609  -0.82450  -0.81829  -0.80625  -0.80199
 Alpha  occ. eigenvalues --   -0.80019  -0.78708  -0.78202  -0.76961  -0.76759
 Alpha  occ. eigenvalues --   -0.75643  -0.75471  -0.74014  -0.72791  -0.72498
 Alpha  occ. eigenvalues --   -0.71931  -0.70490  -0.70018  -0.69666  -0.69358
 Alpha  occ. eigenvalues --   -0.69028  -0.68766  -0.67762  -0.66819  -0.66285
 Alpha  occ. eigenvalues --   -0.65878  -0.64716  -0.64592  -0.62098  -0.61651
 Alpha  occ. eigenvalues --   -0.61314  -0.60687  -0.59941  -0.59422  -0.58922
 Alpha  occ. eigenvalues --   -0.58547  -0.58417  -0.58242  -0.57605  -0.56890
 Alpha  occ. eigenvalues --   -0.56471  -0.55929  -0.55246  -0.55001  -0.54692
 Alpha  occ. eigenvalues --   -0.53908  -0.53540  -0.53020  -0.52608  -0.52358
 Alpha  occ. eigenvalues --   -0.51930  -0.51189  -0.51033  -0.50724  -0.50508
 Alpha  occ. eigenvalues --   -0.50176  -0.49918  -0.49888  -0.49827  -0.49228
 Alpha  occ. eigenvalues --   -0.48969  -0.48647  -0.48413  -0.48123  -0.47647
 Alpha  occ. eigenvalues --   -0.47551  -0.47507  -0.47344  -0.47150  -0.46920
 Alpha  occ. eigenvalues --   -0.46817  -0.46652  -0.46500  -0.46120  -0.45893
 Alpha  occ. eigenvalues --   -0.45776  -0.45741  -0.44979  -0.44902  -0.44654
 Alpha  occ. eigenvalues --   -0.44546  -0.44075  -0.43982  -0.43783  -0.43708
 Alpha  occ. eigenvalues --   -0.43587  -0.43531  -0.43332  -0.43114  -0.43051
 Alpha  occ. eigenvalues --   -0.42640  -0.42328  -0.42169  -0.41985  -0.41901
 Alpha  occ. eigenvalues --   -0.41739  -0.41406  -0.41183  -0.41026  -0.40882
 Alpha  occ. eigenvalues --   -0.40796  -0.40719  -0.40412  -0.40309  -0.40163
 Alpha  occ. eigenvalues --   -0.39739  -0.39497  -0.39254  -0.39138  -0.39000
 Alpha  occ. eigenvalues --   -0.38741  -0.38431  -0.38395  -0.38300  -0.38112
 Alpha  occ. eigenvalues --   -0.37933  -0.37815  -0.37570  -0.37394  -0.36875
 Alpha  occ. eigenvalues --   -0.36655  -0.36271  -0.36189  -0.35633  -0.35512
 Alpha  occ. eigenvalues --   -0.35202  -0.35016  -0.34660  -0.34585  -0.34497
 Alpha  occ. eigenvalues --   -0.34480  -0.34189  -0.33609  -0.33491  -0.32906
 Alpha  occ. eigenvalues --   -0.32261  -0.32217  -0.31902  -0.31725  -0.31279
 Alpha  occ. eigenvalues --   -0.30966  -0.30532  -0.30290  -0.30041  -0.29434
 Alpha  occ. eigenvalues --   -0.29395  -0.28530  -0.28314  -0.28204  -0.27373
 Alpha  occ. eigenvalues --   -0.27121  -0.27067  -0.23382  -0.21078
 Alpha virt. eigenvalues --   -0.09397  -0.06640  -0.01383  -0.01184   0.00724
 Alpha virt. eigenvalues --    0.01858   0.02259   0.03677   0.03803   0.04393
 Alpha virt. eigenvalues --    0.04692   0.05979   0.08460   0.08558   0.09377

 Mulliken charges:
               1
     1  Mg   0.840670
     2  C    0.153615
     3  C   -0.201199
     4  C   -0.186386
     5  C   -0.188878
     6  N   -0.636055
     7  C    0.309954
     8  C   -0.177655
     9  C   -0.140097
    10  C    0.343358
    11  C   -0.307388
    12  C   -0.177968
    13  C   -0.245058
    14  C    0.635850
    15  O   -0.503791
    16  O   -0.461172
    17  N   -0.710276
    18  C    0.320644
    19  C    0.055733
    20  C    0.020694
    21  C    0.256465
    22  C   -0.410063
    23  C    0.221427
    24  O   -0.408018
    25  N   -0.680111
    26  C    0.314519
    27  C   -0.024954
    28  C   -0.001214
    29  C    0.285403
    30  C    0.244990
    31  C   -0.237522
    32  C   -0.309482
    33  N   -0.704501
    34  C    0.319739
    35  C   -0.026863
    36  C    0.062006
    37  C    0.238392
    38  C   -0.366442
    39  C    0.337271
    40  O   -0.398129
    41  C   -0.380112
    42  C    0.648299
    43  O   -0.524015
    44  O   -0.473052
    45  C   -0.064611
    46  C   -0.067698
    47  C   -0.088958
    48  C    0.143755
    49  C   -0.378682
    50  C   -0.208364
    51  C   -0.178836
    52  C   -0.156508
    53  C   -0.062181
    54  C   -0.317727
    55  C   -0.162429
    56  C   -0.163124
    57  C   -0.180470
    58  C   -0.066669
    59  C   -0.308304
    60  C   -0.159624
    61  C   -0.173460
    62  C   -0.160179
    63  C   -0.049296
    64  C   -0.283504
    65  C   -0.307331
    66  H    0.071844
    67  H    0.133169
    68  H    0.088298
    69  H    0.137276
    70  H    0.112719
    71  H    0.113061
    72  H    0.113592
    73  H    0.095538
    74  H    0.117983
    75  H    0.078629
    76  H    0.139550
    77  H    0.125071
    78  H    0.136339
    79  H    0.159974
    80  H    0.109574
    81  H    0.064535
    82  H    0.116520
    83  H    0.113017
    84  H    0.122376
    85  H    0.125988
    86  H    0.122962
    87  H    0.150159
    88  H    0.120805
    89  H    0.145802
    90  H    0.168212
    91  H    0.122911
    92  H    0.147355
    93  H    0.075453
    94  H    0.160596
    95  H    0.081084
    96  H    0.134236
    97  H    0.099115
    98  H    0.101684
    99  H    0.077210
   100  H    0.110838
   101  H    0.065496
   102  H    0.098820
   103  H    0.087352
   104  H    0.108015
   105  H    0.076068
   106  H    0.110823
   107  H    0.104281
   108  H    0.070765
   109  H    0.059094
   110  H    0.092039
   111  H    0.071583
   112  H    0.079337
   113  H    0.089002
   114  H    0.078581
   115  H    0.104012
   116  H    0.109780
   117  H    0.096239
   118  H    0.099522
   119  H    0.079029
   120  H    0.047148
   121  H    0.090293
   122  H    0.106485
   123  H    0.094129
   124  H    0.083608
   125  H    0.116636
   126  H    0.069741
   127  H    0.072572
   128  H    0.083731
   129  H    0.110633
   130  H    0.117432
   131  H    0.134441
   132  H    0.121395
   133  O   -0.426717
   134  H    0.070728
 Sum of Mulliken charges =   0.00000

 Dipole moment (field-independent basis, Debye):
    X=              1.6378    Y=             -3.6132    Z=             -3.3961  Tot=              5.2221
 Quadrupole moment (field-independent basis, Debye-Ang):
   XX=           -362.9463   YY=           -442.0156   ZZ=           -389.0659
   XY=             -1.8247   XZ=             34.4172   YZ=            -33.3575

 Normal termination of Gaussian 09 at Fri Oct  4 02:37:55 2019.
