 Gaussian 09, Revision D.01,
 Gaussian 09:  ES64L-G09RevD.01 24-Apr-2013

 ----------------------------------------------------------------------
 # td=(NStates=1) iop(3/107=0140000000,3/108=0140000000) iop(3/107=0140
 000000,3/108=0140000000) CAM-B3LYP/6-31G(d,p)
 ----------------------------------------------------------------------

 --
 TD
 --
 Symbolic Z-matrix:
 Charge =  0 Multiplicity = 1

                         Standard orientation:
 ---------------------------------------------------------------------
 Center     Atomic      Atomic             Coordinates (Angstroms)
 Number     Number       Type             X           Y           Z
 ---------------------------------------------------------------------
      1         12           0       -5.568295    1.303700    0.188839
      2          6           0       -5.014993   -2.061434   -0.409593
      3          6           0       -3.322720    1.214390    2.729839
      4          6           0       -6.322456    4.469601    0.721428
      5          6           0       -7.983301    1.167433   -2.398387
      6          7           0       -4.329877   -0.259618    0.979093
      7          6           0       -4.199023   -1.609731    0.668391
      8          6           0       -3.227823   -2.291907    1.524223
      9          6           0       -2.948193   -1.345906    2.671374
     10          6           0       -3.550721   -0.010311    2.128812
     11          6           0       -3.411203   -1.895240    4.008748
     12          6           0       -2.028279   -2.748906    0.689859
     13          6           0       -0.973248   -3.502758    1.485952
     14          6           0        0.339694   -3.808512    0.693670
     15          8           0        0.508728   -3.375819   -0.406508
     16          8           0        1.171312   -4.633087    1.334662
     17          7           0       -4.844486    2.655491    1.461518
     18          6           0       -3.951243    2.421839    2.516647
     19          6           0       -3.656398    3.706748    3.063692
     20          6           0       -4.565726    4.521040    2.600070
     21          6           0       -5.247613    3.946422    1.501476
     22          6           0       -2.781494    3.820937    4.255349
     23          6           0       -4.680436    5.998644    2.920389
     24          8           0       -4.026899    6.571213    3.829404
     25          7           0       -6.884820    2.603706   -0.685855
     26          6           0       -7.057548    3.913776   -0.355724
     27          6           0       -7.970155    4.470987   -1.234669
     28          6           0       -8.480206    3.591986   -2.127719
     29          6           0       -7.705126    2.307930   -1.760018
     30          6           0       -8.417132    5.906250   -1.180236
     31          6           0       -9.455295    3.705792   -3.164045
     32          6           0       -8.879326    3.991468   -4.514821
     33          7           0       -6.343552   -0.095410   -1.164566
     34          6           0       -7.364615   -0.062596   -1.986210
     35          6           0       -7.555648   -1.291193   -2.696756
     36          6           0       -6.693178   -2.216378   -2.073888
     37          6           0       -5.941823   -1.369690   -1.128374
     38          6           0       -8.619258   -1.562730   -3.730858
     39          6           0       -6.237295   -3.524057   -1.973248
     40          8           0       -6.693890   -4.557675   -2.407065
     41          6           0       -5.005260   -3.528303   -0.909546
     42          6           0       -5.375918   -4.672668    0.179668
     43          8           0       -5.866876   -4.500429    1.250861
     44          8           0       -5.012489   -5.846782   -0.420282
     45          6           0       -5.567412   -6.969161    0.212732
     46          6           0        2.500408   -4.920241    0.678452
     47          6           0        3.533972   -4.005532    1.019463
     48          6           0        3.969767   -3.097739    0.095382
     49          6           0        3.600960   -2.901430   -1.262440
     50          6           0        5.163415   -2.283593    0.616052
     51          6           0        6.531885   -2.607051    0.021623
     52          6           0        7.657851   -1.838851    0.618374
     53          6           0        8.981719   -1.912327   -0.136166
     54          6           0        9.561539   -3.266055    0.014628
     55          6           0        9.967374   -0.885545    0.416885
     56          6           0       11.367386   -0.839480   -0.401727
     57          6           0       12.364496    0.251889    0.078461
     58          6           0       13.669730    0.245998   -0.586723
     59          6           0       14.643649   -0.870190   -0.227946
     60          6           0       14.268993    1.672790   -0.274927
     61          6           0       15.531605    2.052418   -1.074279
     62          6           0       16.124807    3.392012   -0.628653
     63          6           0       17.337617    3.914678   -1.311197
     64          6           0       17.214735    4.147700   -2.893293
     65          6           0       17.863440    5.201162   -0.675638
     66          1           0       -2.694351    0.950544    3.565714
     67          1           0       -6.427586    5.508422    0.853763
     68          1           0       -8.737583    1.242985   -3.115841
     69          1           0       -3.820943   -3.239979    1.940545
     70          1           0       -1.866219   -1.093195    2.820904
     71          1           0       -2.740480   -2.744273    4.338207
     72          1           0       -3.072102   -1.193786    4.745083
     73          1           0       -4.474572   -1.871066    4.073891
     74          1           0       -2.420425   -3.468654    0.063402
     75          1           0       -1.607769   -1.748024    0.188887
     76          1           0       -0.511259   -2.957848    2.217679
     77          1           0       -1.224479   -4.551674    1.914130
     78          1           0       -1.732209    3.529003    4.023146
     79          1           0       -2.870672    4.691815    4.700933
     80          1           0       -3.052779    3.139884    5.037491
     81          1           0       -5.546295    6.428890    2.366763
     82          1           0      -10.101999    2.748609   -3.121988
     83          1           0      -10.325541    4.428575   -3.050104
     84          1           0       -9.911804    4.078462   -5.168177
     85          1           0       -8.219257    4.774387   -4.441086
     86          1           0       -8.504109    3.078580   -4.948933
     87          1           0       -8.169110   -0.970312   -4.610452
     88          1           0       -8.732535   -2.568064   -4.069579
     89          1           0       -9.719380   -1.150455   -3.475716
     90          1           0       -4.001690   -3.636614   -1.193042
     91          1           0        2.744923   -5.889204    1.058545
     92          1           0        2.251165   -4.958144   -0.337269
     93          1           0        3.572734   -3.918201    2.074117
     94          1           0        2.606689   -3.306630   -1.359974
     95          1           0        3.686798   -1.792813   -1.573998
     96          1           0        4.135518   -3.591242   -2.020992
     97          1           0        4.964387   -1.256145    0.421232
     98          1           0        5.277246   -2.369666    1.768687
     99          1           0        6.646206   -3.792304    0.175672
    100          1           0        6.538082   -2.588553   -0.972286
    101          1           0        7.302482   -0.792405    0.622006
    102          1           0        7.839795   -2.142917    1.771857
    103          1           0        8.894863   -1.694216   -1.135433
    104          1           0        8.881115   -4.178688   -0.208153
    105          1           0       10.542566   -3.487734   -0.306872
    106          1           0        9.750669   -3.381908    1.141032
    107          1           0        9.747287    0.148573    0.249884
    108          1           0       10.157360   -1.162497    1.521812
    109          1           0       11.820091   -1.923590   -0.334909
    110          1           0       10.995266   -0.705692   -1.398411
    111          1           0       11.700451    1.243588   -0.015827
    112          1           0       12.479794    0.148879    1.250193
    113          1           0       13.502764    0.433990   -1.750650
    114          1           0       14.807910   -0.705204    0.798392
    115          1           0       14.396356   -2.034768   -0.323383
    116          1           0       15.358602   -0.738033   -0.787666
    117          1           0       13.612614    2.419009   -0.540580
    118          1           0       14.654129    1.851887    0.747345
    119          1           0       16.201748    1.235636   -0.847184
    120          1           0       15.345647    2.065516   -2.176017
    121          1           0       15.172310    3.980832   -0.985838
    122          1           0       16.072140    3.441873    0.459506
    123          1           0       18.095961    3.082540   -1.131238
    124          1           0       16.705050    4.971609   -3.201610
    125          1           0       18.069451    4.334554   -3.512309
    126          1           0       16.603068    3.256919   -3.334198
    127          1           0       17.959782    5.104955    0.405748
    128          1           0       18.873238    5.487003   -1.029445
    129          1           0       17.030543    6.103172   -0.797171
    130          1           0       -5.162664   -8.149185   -0.357612
    131          1           0       -6.563473   -7.034776    0.604755
    132          1           0       -5.007229   -7.103323    1.165047
    133          8           0       -7.917490    6.715795   -0.432909
    134          1           0       -9.468653    6.215508   -1.922477
 ---------------------------------------------------------------------

 SCF Done:  E(RCAM-B3LYP) =  -3043.47999900     A.U. after   16 cycles

 Excitation energies and oscillator strengths:

 Excited State   1:      Singlet-A      1.9649 eV  630.99 nm  f=0.2433  <S**2>=0.000
     243 -> 246       -0.23818
     244 -> 245        0.66129
 This state for optimization and/or second-order correction.
 Total Energy, E(TD-HF/TD-KS) =  -3043.40778931
 Copying the excited state density for this state as the 1-particle RhoCI density.

 The electronic state is 1-A.
 Alpha  occ. eigenvalues --  -46.81328 -19.23638 -19.21605 -19.18837 -19.18484
 Alpha  occ. eigenvalues --  -19.17247 -19.16376 -19.16238 -14.39233 -14.36849
 Alpha  occ. eigenvalues --  -14.36532 -14.36188 -10.36084 -10.34248 -10.32449
 Alpha  occ. eigenvalues --  -10.30624 -10.30572 -10.28932 -10.27467 -10.27450
 Alpha  occ. eigenvalues --  -10.26377 -10.26105 -10.26102 -10.26013 -10.26008
 Alpha  occ. eigenvalues --  -10.25794 -10.25361 -10.25104 -10.24598 -10.24493
 Alpha  occ. eigenvalues --  -10.24315 -10.24298 -10.24199 -10.23954 -10.23899
 Alpha  occ. eigenvalues --  -10.23698 -10.23670 -10.23626 -10.23291 -10.23153
 Alpha  occ. eigenvalues --  -10.23017 -10.22880 -10.22822 -10.22796 -10.22762
 Alpha  occ. eigenvalues --  -10.22739 -10.22287 -10.22247 -10.22045 -10.21837
 Alpha  occ. eigenvalues --  -10.21812 -10.21730 -10.21458 -10.21308 -10.21158
 Alpha  occ. eigenvalues --  -10.21053 -10.20915 -10.20849 -10.20794 -10.20767
 Alpha  occ. eigenvalues --  -10.20145 -10.20117 -10.20052 -10.20034 -10.19881
 Alpha  occ. eigenvalues --  -10.19491  -3.09913  -1.84858  -1.84380  -1.84320
 Alpha  occ. eigenvalues --   -1.14551  -1.12875  -1.08201  -1.07211  -1.06674
 Alpha  occ. eigenvalues --   -1.04541  -1.04323  -1.01932  -1.00273  -0.99517
 Alpha  occ. eigenvalues --   -0.98529  -0.88355  -0.87203  -0.86702  -0.86201
 Alpha  occ. eigenvalues --   -0.85907  -0.85296  -0.84830  -0.84153  -0.83833
 Alpha  occ. eigenvalues --   -0.83388  -0.83097  -0.81931  -0.80894  -0.79781
 Alpha  occ. eigenvalues --   -0.79396  -0.78733  -0.78060  -0.77477  -0.76718
 Alpha  occ. eigenvalues --   -0.75913  -0.75391  -0.75040  -0.72811  -0.71978
 Alpha  occ. eigenvalues --   -0.71802  -0.71491  -0.71041  -0.69891  -0.69704
 Alpha  occ. eigenvalues --   -0.69471  -0.69149  -0.67852  -0.66899  -0.66082
 Alpha  occ. eigenvalues --   -0.65719  -0.64966  -0.64215  -0.63003  -0.62285
 Alpha  occ. eigenvalues --   -0.61354  -0.61171  -0.60242  -0.59640  -0.59161
 Alpha  occ. eigenvalues --   -0.58860  -0.58820  -0.58216  -0.57442  -0.57176
 Alpha  occ. eigenvalues --   -0.56609  -0.56098  -0.55785  -0.55231  -0.54132
 Alpha  occ. eigenvalues --   -0.53763  -0.53484  -0.53362  -0.52941  -0.52296
 Alpha  occ. eigenvalues --   -0.51816  -0.51614  -0.51523  -0.51233  -0.51059
 Alpha  occ. eigenvalues --   -0.50830  -0.50291  -0.50264  -0.49964  -0.49471
 Alpha  occ. eigenvalues --   -0.49361  -0.48935  -0.48402  -0.48088  -0.47968
 Alpha  occ. eigenvalues --   -0.47719  -0.47622  -0.47549  -0.47136  -0.46771
 Alpha  occ. eigenvalues --   -0.46681  -0.46503  -0.46328  -0.46207  -0.45997
 Alpha  occ. eigenvalues --   -0.45887  -0.45610  -0.45468  -0.45403  -0.44988
 Alpha  occ. eigenvalues --   -0.44921  -0.44527  -0.44061  -0.43865  -0.43794
 Alpha  occ. eigenvalues --   -0.43658  -0.43470  -0.43162  -0.43058  -0.42979
 Alpha  occ. eigenvalues --   -0.42632  -0.42339  -0.42282  -0.42183  -0.42046
 Alpha  occ. eigenvalues --   -0.41733  -0.41699  -0.41484  -0.41286  -0.41218
 Alpha  occ. eigenvalues --   -0.40898  -0.40670  -0.40502  -0.40280  -0.40114
 Alpha  occ. eigenvalues --   -0.40004  -0.39570  -0.39423  -0.39362  -0.39172
 Alpha  occ. eigenvalues --   -0.39025  -0.38887  -0.38627  -0.38576  -0.38298
 Alpha  occ. eigenvalues --   -0.38073  -0.38021  -0.37472  -0.37380  -0.37085
 Alpha  occ. eigenvalues --   -0.36864  -0.36776  -0.36678  -0.36401  -0.36292
 Alpha  occ. eigenvalues --   -0.35568  -0.35481  -0.35376  -0.34899  -0.34722
 Alpha  occ. eigenvalues --   -0.34631  -0.34258  -0.33833  -0.33341  -0.33142
 Alpha  occ. eigenvalues --   -0.32877  -0.32742  -0.32255  -0.32175  -0.31770
 Alpha  occ. eigenvalues --   -0.31617  -0.31539  -0.30899  -0.29791  -0.29621
 Alpha  occ. eigenvalues --   -0.29141  -0.28265  -0.28187  -0.28092  -0.27461
 Alpha  occ. eigenvalues --   -0.27223  -0.27105  -0.22978  -0.21123
 Alpha virt. eigenvalues --   -0.08609  -0.05910  -0.02014  -0.00671   0.00429
 Alpha virt. eigenvalues --    0.01563   0.03184   0.03669   0.04036   0.04480
 Alpha virt. eigenvalues --    0.05530   0.05950   0.07885   0.08048   0.08901

 Mulliken charges:
               1
     1  Mg   0.825144
     2  C    0.025199
     3  C   -0.162671
     4  C   -0.172255
     5  C   -0.142339
     6  N   -0.622605
     7  C    0.331014
     8  C   -0.173248
     9  C   -0.146480
    10  C    0.295050
    11  C   -0.310932
    12  C   -0.144337
    13  C   -0.266067
    14  C    0.574607
    15  O   -0.457980
    16  O   -0.484247
    17  N   -0.727906
    18  C    0.300005
    19  C    0.045085
    20  C   -0.057779
    21  C    0.337202
    22  C   -0.370525
    23  C    0.257632
    24  O   -0.434306
    25  N   -0.727035
    26  C    0.341018
    27  C   -0.039161
    28  C    0.074284
    29  C    0.304011
    30  C    0.252680
    31  C   -0.295858
    32  C   -0.284174
    33  N   -0.686340
    34  C    0.271200
    35  C    0.001152
    36  C    0.095925
    37  C    0.287786
    38  C   -0.365735
    39  C    0.304538
    40  O   -0.456125
    41  C   -0.317789
    42  C    0.601088
    43  O   -0.439356
    44  O   -0.406814
    45  C   -0.087975
    46  C   -0.005780
    47  C   -0.118664
    48  C    0.148154
    49  C   -0.390662
    50  C   -0.226952
    51  C   -0.155154
    52  C   -0.150580
    53  C   -0.051893
    54  C   -0.306160
    55  C   -0.172901
    56  C   -0.194544
    57  C   -0.146699
    58  C   -0.057694
    59  C   -0.284257
    60  C   -0.180727
    61  C   -0.198878
    62  C   -0.160922
    63  C   -0.029974
    64  C   -0.329090
    65  C   -0.299995
    66  H    0.082145
    67  H    0.112432
    68  H    0.081259
    69  H    0.123367
    70  H    0.102717
    71  H    0.120671
    72  H    0.106761
    73  H    0.135162
    74  H    0.121955
    75  H    0.117151
    76  H    0.135720
    77  H    0.126964
    78  H    0.112877
    79  H    0.151459
    80  H    0.121735
    81  H    0.089398
    82  H    0.103819
    83  H    0.120972
    84  H    0.087123
    85  H    0.131584
    86  H    0.121747
    87  H    0.120508
    88  H    0.151055
    89  H    0.112584
    90  H    0.154637
    91  H    0.117083
    92  H    0.118671
    93  H    0.096053
    94  H    0.159693
    95  H    0.115591
    96  H    0.117680
    97  H    0.090477
    98  H    0.082655
    99  H    0.068112
   100  H    0.105669
   101  H    0.087501
   102  H    0.071755
   103  H    0.088773
   104  H    0.090359
   105  H    0.110103
   106  H    0.081402
   107  H    0.090272
   108  H    0.075444
   109  H    0.075035
   110  H    0.095594
   111  H    0.070153
   112  H    0.074750
   113  H    0.067823
   114  H    0.109809
   115  H    0.083195
   116  H    0.121927
   117  H    0.101145
   118  H    0.083398
   119  H    0.085926
   120  H    0.085439
   121  H    0.068647
   122  H    0.092206
   123  H    0.081404
   124  H    0.115525
   125  H    0.106459
   126  H    0.083633
   127  H    0.099784
   128  H    0.102866
   129  H    0.075585
   130  H    0.078053
   131  H    0.150368
   132  H    0.112898
   133  O   -0.392694
   134  H    0.026770
 Sum of Mulliken charges =   0.00000

 Dipole moment (field-independent basis, Debye):
    X=              2.2571    Y=             -4.0003    Z=             -1.4017  Tot=              4.8022
 Quadrupole moment (field-independent basis, Debye-Ang):
   XX=           -366.0136   YY=           -445.8757   ZZ=           -391.3900
   XY=              3.5452   XZ=             21.1576   YZ=            -36.5010

 Normal termination of Gaussian 09 at Mon Oct  7 19:23:32 2019.
