 Gaussian 09, Revision D.01,
 Gaussian 09:  ES64L-G09RevD.01 24-Apr-2013

 ----------------------------------------------------------------------
 # td=(NStates=1) iop(3/107=0140000000,3/108=0140000000) iop(3/107=0140
 000000,3/108=0140000000) CAM-B3LYP/6-31G(d,p)
 ----------------------------------------------------------------------

 --
 TD
 --
 Symbolic Z-matrix:
 Charge =  0 Multiplicity = 1

                         Standard orientation:
 ---------------------------------------------------------------------
 Center     Atomic      Atomic             Coordinates (Angstroms)
 Number     Number       Type             X           Y           Z
 ---------------------------------------------------------------------
      1         12           0       -5.622132    1.310318    0.241094
      2          6           0       -5.032352   -2.143277   -0.300333
      3          6           0       -3.271522    1.231774    2.707815
      4          6           0       -5.995467    4.603875    0.521282
      5          6           0       -7.943985    1.187507   -2.320082
      6          7           0       -4.363636   -0.308040    1.024325
      7          6           0       -4.206810   -1.619322    0.658655
      8          6           0       -3.176520   -2.273177    1.441191
      9          6           0       -2.830882   -1.327306    2.607114
     10          6           0       -3.485162   -0.020530    2.118038
     11          6           0       -3.451982   -1.963240    3.987654
     12          6           0       -2.006588   -2.678326    0.643390
     13          6           0       -0.939501   -3.545935    1.372408
     14          6           0        0.285551   -3.937471    0.608039
     15          8           0        0.580134   -3.596165   -0.534173
     16          8           0        1.074621   -4.846397    1.217952
     17          7           0       -4.823111    2.623047    1.519674
     18          6           0       -3.940385    2.469344    2.505228
     19          6           0       -3.623087    3.713630    3.150115
     20          6           0       -4.384645    4.665198    2.492043
     21          6           0       -5.116203    3.953494    1.502051
     22          6           0       -2.824332    3.794613    4.430116
     23          6           0       -4.541719    6.083579    2.820238
     24          8           0       -3.935932    6.685148    3.705545
     25          7           0       -6.779295    2.640342   -0.660573
     26          6           0       -6.921796    3.992394   -0.303317
     27          6           0       -7.844955    4.616064   -1.155558
     28          6           0       -8.377558    3.748150   -1.914891
     29          6           0       -7.658020    2.488195   -1.718320
     30          6           0       -8.147641    6.066752   -1.111986
     31          6           0       -9.425186    3.887539   -3.034156
     32          6           0       -8.880842    4.029131   -4.494780
     33          7           0       -6.357552   -0.084373   -1.041892
     34          6           0       -7.345918    0.013452   -2.034004
     35          6           0       -7.494105   -1.288196   -2.688704
     36          6           0       -6.624627   -2.151653   -2.121475
     37          6           0       -5.929830   -1.454109   -1.087809
     38          6           0       -8.456416   -1.607569   -3.746311
     39          6           0       -6.204078   -3.510697   -2.011890
     40          8           0       -6.534237   -4.468572   -2.764789
     41          6           0       -5.158555   -3.619397   -0.878050
     42          6           0       -5.347280   -4.629603    0.123087
     43          8           0       -5.708414   -4.419967    1.303268
     44          8           0       -5.117306   -5.857778   -0.403682
     45          6           0       -5.402744   -6.914855    0.511791
     46          6           0        2.342510   -5.173096    0.669927
     47          6           0        3.275107   -4.232872    0.955228
     48          6           0        4.014278   -3.453098    0.098820
     49          6           0        3.703294   -3.393425   -1.400280
     50          6           0        5.130209   -2.498517    0.547259
     51          6           0        6.486345   -2.791748   -0.070313
     52          6           0        7.621599   -1.937339    0.475809
     53          6           0        9.034526   -2.225800   -0.030659
     54          6           0        9.642264   -3.512247    0.256380
     55          6           0        9.966488   -1.032250    0.404403
     56          6           0       11.359834   -0.902016   -0.233419
     57          6           0       12.132934    0.266647    0.256713
     58          6           0       13.377039    0.481186   -0.510854
     59          6           0       14.477976   -0.634257   -0.124498
     60          6           0       14.025833    1.888360   -0.256268
     61          6           0       15.293908    2.176902   -1.025094
     62          6           0       15.788052    3.554335   -0.682995
     63          6           0       17.194674    4.000515   -1.416947
     64          6           0       16.978287    4.351922   -2.953318
     65          6           0       17.596755    5.303640   -0.735272
     66          1           0       -2.557073    1.134467    3.477331
     67          1           0       -6.303403    5.523357    0.625670
     68          1           0       -8.583056    1.119835   -3.042135
     69          1           0       -3.682414   -3.238656    1.765081
     70          1           0       -1.549606   -1.157164    2.733238
     71          1           0       -2.905053   -2.830397    4.222334
     72          1           0       -3.080366   -1.118091    4.791347
     73          1           0       -4.563084   -2.219154    3.901301
     74          1           0       -2.426167   -3.216292   -0.365819
     75          1           0       -1.428779   -1.562845    0.230284
     76          1           0       -0.849286   -3.113242    2.254868
     77          1           0       -1.289821   -4.580531    1.689504
     78          1           0       -1.634277    3.466128    4.296124
     79          1           0       -2.749922    4.887958    4.714881
     80          1           0       -3.167400    3.106172    5.267056
     81          1           0       -5.345080    6.639510    2.330630
     82          1           0      -10.089003    3.010175   -3.063505
     83          1           0      -10.068907    4.581003   -2.863258
     84          1           0       -9.690537    4.078694   -5.290324
     85          1           0       -8.325430    4.965327   -4.827847
     86          1           0       -8.186131    3.229567   -4.799995
     87          1           0       -8.290455   -1.057128   -4.817107
     88          1           0       -8.539745   -2.626326   -4.006510
     89          1           0       -9.577705   -1.356337   -3.241385
     90          1           0       -4.300786   -3.868495   -1.676707
     91          1           0        2.635380   -6.322709    1.144471
     92          1           0        2.076659   -5.334032   -0.372885
     93          1           0        3.508904   -4.156977    2.077820
     94          1           0        2.653332   -3.553088   -1.578717
     95          1           0        4.135519   -2.342171   -1.766553
     96          1           0        4.378970   -4.073554   -1.973506
     97          1           0        4.856413   -1.658280    0.127696
     98          1           0        4.902952   -2.681136    1.509940
     99          1           0        6.853461   -3.877696   -0.151486
    100          1           0        6.488621   -2.414347   -1.098101
    101          1           0        7.391085   -0.880940    0.243318
    102          1           0        7.671073   -2.049496    1.542865
    103          1           0        9.138818   -2.015960   -1.044187
    104          1           0        8.878587   -4.459900   -0.074455
    105          1           0       10.640330   -3.763384   -0.218277
    106          1           0        9.899711   -3.410734    1.291509
    107          1           0        9.326484   -0.057213    0.349276
    108          1           0       10.005573   -1.174993    1.712742
    109          1           0       11.903190   -1.735780   -0.010808
    110          1           0       11.227848   -1.014903   -1.337994
    111          1           0       11.616487    1.229697    0.156692
    112          1           0       12.299911    0.227104    1.388075
    113          1           0       13.128748    0.391161   -1.615205
    114          1           0       14.765528   -0.489202    0.892106
    115          1           0       14.002999   -1.616628   -0.337202
    116          1           0       15.380660   -0.538419   -0.796753
    117          1           0       13.330925    2.720640   -0.249699
    118          1           0       14.236182    1.905956    0.820610
    119          1           0       16.132423    1.478829   -0.840596
    120          1           0       14.901654    2.317291   -2.036570
    121          1           0       14.949344    4.426065   -0.886861
    122          1           0       16.082936    3.494805    0.420915
    123          1           0       17.887291    3.216870   -1.115297
    124          1           0       16.366602    5.269540   -3.044296
    125          1           0       17.901964    4.493192   -3.399909
    126          1           0       16.427265    3.564884   -3.659763
    127          1           0       18.154897    5.186345    0.299938
    128          1           0       18.490547    5.891403   -1.333756
    129          1           0       16.825978    6.203479   -0.849464
    130          1           0       -5.158783   -7.783327   -0.136789
    131          1           0       -6.392480   -6.961292    0.802106
    132          1           0       -4.921950   -6.992485    1.373384
    133          8           0       -7.805910    6.829364   -0.336418
    134          1           0       -8.912059    6.536918   -1.834129
 ---------------------------------------------------------------------

 SCF Done:  E(RCAM-B3LYP) =  -3043.43985033     A.U. after   16 cycles

 Excitation energies and oscillator strengths:

 Excited State   1:      Singlet-A      1.9746 eV  627.91 nm  f=0.2132  <S**2>=0.000
     243 -> 245       -0.10960
     243 -> 246        0.23605
     244 -> 245        0.64696
 This state for optimization and/or second-order correction.
 Total Energy, E(TD-HF/TD-KS) =  -3043.36728654
 Copying the excited state density for this state as the 1-particle RhoCI density.

 The electronic state is 1-A.
 Alpha  occ. eigenvalues --  -46.80752 -19.23951 -19.21156 -19.18414 -19.18230
 Alpha  occ. eigenvalues --  -19.17320 -19.16488 -19.16405 -14.38942 -14.37176
 Alpha  occ. eigenvalues --  -14.36944 -14.36346 -10.36129 -10.35202 -10.32339
 Alpha  occ. eigenvalues --  -10.31066 -10.29675 -10.27690 -10.27653 -10.27623
 Alpha  occ. eigenvalues --  -10.27140 -10.26882 -10.26694 -10.26524 -10.26292
 Alpha  occ. eigenvalues --  -10.26281 -10.26241 -10.25966 -10.25859 -10.25852
 Alpha  occ. eigenvalues --  -10.25570 -10.24812 -10.24357 -10.24285 -10.24117
 Alpha  occ. eigenvalues --  -10.24043 -10.23804 -10.23789 -10.23414 -10.23311
 Alpha  occ. eigenvalues --  -10.23108 -10.23091 -10.23016 -10.22989 -10.22888
 Alpha  occ. eigenvalues --  -10.22881 -10.22787 -10.22775 -10.22726 -10.22557
 Alpha  occ. eigenvalues --  -10.22355 -10.22032 -10.21698 -10.21696 -10.21506
 Alpha  occ. eigenvalues --  -10.21088 -10.21031 -10.20905 -10.20660 -10.20631
 Alpha  occ. eigenvalues --  -10.20580 -10.20471 -10.20415 -10.20337 -10.20009
 Alpha  occ. eigenvalues --  -10.19881  -3.09484  -1.84411  -1.83964  -1.83900
 Alpha  occ. eigenvalues --   -1.14192  -1.13398  -1.12818  -1.05499  -1.05171
 Alpha  occ. eigenvalues --   -1.04613  -1.03513  -1.01127  -0.99892  -0.99200
 Alpha  occ. eigenvalues --   -0.97828  -0.89308  -0.86789  -0.86277  -0.85811
 Alpha  occ. eigenvalues --   -0.85679  -0.84664  -0.84573  -0.84347  -0.83275
 Alpha  occ. eigenvalues --   -0.82925  -0.82738  -0.81972  -0.81569  -0.80108
 Alpha  occ. eigenvalues --   -0.79838  -0.79211  -0.78647  -0.78124  -0.76582
 Alpha  occ. eigenvalues --   -0.75303  -0.74948  -0.74390  -0.73948  -0.71651
 Alpha  occ. eigenvalues --   -0.71535  -0.70046  -0.69972  -0.69733  -0.69495
 Alpha  occ. eigenvalues --   -0.69094  -0.68563  -0.67639  -0.67388  -0.66400
 Alpha  occ. eigenvalues --   -0.66128  -0.65461  -0.65032  -0.62676  -0.62227
 Alpha  occ. eigenvalues --   -0.62025  -0.60982  -0.60419  -0.59768  -0.58967
 Alpha  occ. eigenvalues --   -0.58922  -0.58593  -0.57933  -0.57655  -0.57267
 Alpha  occ. eigenvalues --   -0.56876  -0.56451  -0.56177  -0.55829  -0.55413
 Alpha  occ. eigenvalues --   -0.54600  -0.54375  -0.53454  -0.52873  -0.52532
 Alpha  occ. eigenvalues --   -0.52191  -0.51985  -0.51393  -0.51276  -0.50810
 Alpha  occ. eigenvalues --   -0.50486  -0.50252  -0.49697  -0.49023  -0.48780
 Alpha  occ. eigenvalues --   -0.48727  -0.48630  -0.48253  -0.48174  -0.47815
 Alpha  occ. eigenvalues --   -0.47645  -0.47449  -0.47222  -0.47193  -0.46823
 Alpha  occ. eigenvalues --   -0.46596  -0.46274  -0.46222  -0.46087  -0.45747
 Alpha  occ. eigenvalues --   -0.45614  -0.45570  -0.45355  -0.45130  -0.44856
 Alpha  occ. eigenvalues --   -0.44789  -0.44552  -0.44341  -0.44088  -0.43688
 Alpha  occ. eigenvalues --   -0.43363  -0.43055  -0.42781  -0.42725  -0.42645
 Alpha  occ. eigenvalues --   -0.42377  -0.42258  -0.42209  -0.41864  -0.41707
 Alpha  occ. eigenvalues --   -0.41666  -0.41500  -0.41360  -0.41287  -0.40943
 Alpha  occ. eigenvalues --   -0.40783  -0.40719  -0.40491  -0.40171  -0.40012
 Alpha  occ. eigenvalues --   -0.39922  -0.39845  -0.39828  -0.39623  -0.39279
 Alpha  occ. eigenvalues --   -0.39156  -0.38890  -0.38605  -0.38341  -0.38235
 Alpha  occ. eigenvalues --   -0.37684  -0.37643  -0.37545  -0.37311  -0.36729
 Alpha  occ. eigenvalues --   -0.36226  -0.36145  -0.35957  -0.35661  -0.35465
 Alpha  occ. eigenvalues --   -0.35302  -0.35279  -0.35180  -0.34868  -0.34679
 Alpha  occ. eigenvalues --   -0.34450  -0.34241  -0.34003  -0.33970  -0.33327
 Alpha  occ. eigenvalues --   -0.32661  -0.32581  -0.32261  -0.32251  -0.31858
 Alpha  occ. eigenvalues --   -0.31771  -0.31228  -0.30244  -0.30225  -0.30115
 Alpha  occ. eigenvalues --   -0.29973  -0.28594  -0.28515  -0.28340  -0.27877
 Alpha  occ. eigenvalues --   -0.27326  -0.26624  -0.23159  -0.21506
 Alpha virt. eigenvalues --   -0.08867  -0.06335  -0.02279  -0.00448   0.00340
 Alpha virt. eigenvalues --    0.01068   0.02840   0.03656   0.03913   0.04098
 Alpha virt. eigenvalues --    0.04427   0.05494   0.07449   0.07925   0.09298

 Mulliken charges:
               1
     1  Mg   0.831161
     2  C    0.079513
     3  C   -0.173333
     4  C   -0.114149
     5  C   -0.143642
     6  N   -0.627142
     7  C    0.340065
     8  C   -0.153622
     9  C   -0.151102
    10  C    0.314415
    11  C   -0.300618
    12  C   -0.148252
    13  C   -0.249320
    14  C    0.600944
    15  O   -0.477844
    16  O   -0.463858
    17  N   -0.689959
    18  C    0.301674
    19  C    0.055747
    20  C   -0.013480
    21  C    0.267639
    22  C   -0.390013
    23  C    0.237226
    24  O   -0.424574
    25  N   -0.673417
    26  C    0.237267
    27  C    0.020040
    28  C   -0.000921
    29  C    0.262532
    30  C    0.245600
    31  C   -0.212486
    32  C   -0.328167
    33  N   -0.727636
    34  C    0.331071
    35  C    0.021461
    36  C    0.125381
    37  C    0.231811
    38  C   -0.384543
    39  C    0.323825
    40  O   -0.476084
    41  C   -0.319395
    42  C    0.659310
    43  O   -0.502191
    44  O   -0.436878
    45  C   -0.092905
    46  C   -0.003187
    47  C   -0.096328
    48  C    0.091658
    49  C   -0.370334
    50  C   -0.176912
    51  C   -0.189782
    52  C   -0.162929
    53  C   -0.052053
    54  C   -0.290322
    55  C   -0.169001
    56  C   -0.173629
    57  C   -0.155464
    58  C   -0.058527
    59  C   -0.320025
    60  C   -0.181596
    61  C   -0.156231
    62  C   -0.163364
    63  C   -0.048383
    64  C   -0.310805
    65  C   -0.291827
    66  H    0.076357
    67  H    0.099673
    68  H    0.057684
    69  H    0.130152
    70  H    0.079932
    71  H    0.127489
    72  H    0.089281
    73  H    0.137535
    74  H    0.090805
    75  H    0.077239
    76  H    0.140852
    77  H    0.132882
    78  H    0.089188
    79  H    0.156583
    80  H    0.126191
    81  H    0.086614
    82  H    0.111786
    83  H    0.115602
    84  H    0.104426
    85  H    0.107519
    86  H    0.114806
    87  H    0.115913
    88  H    0.160260
    89  H    0.099890
    90  H    0.176222
    91  H    0.084943
    92  H    0.119923
    93  H    0.072645
    94  H    0.159644
    95  H    0.079898
    96  H    0.116640
    97  H    0.116111
    98  H    0.098283
    99  H    0.087832
   100  H    0.096167
   101  H    0.087795
   102  H    0.092727
   103  H    0.088126
   104  H    0.069734
   105  H    0.101176
   106  H    0.107032
   107  H    0.079172
   108  H    0.020614
   109  H    0.112713
   110  H    0.089370
   111  H    0.087614
   112  H    0.085634
   113  H    0.072810
   114  H    0.110368
   115  H    0.095671
   116  H    0.097052
   117  H    0.086366
   118  H    0.078104
   119  H    0.094403
   120  H    0.099295
   121  H    0.062275
   122  H    0.077039
   123  H    0.091443
   124  H    0.105838
   125  H    0.119436
   126  H    0.080627
   127  H    0.093651
   128  H    0.062250
   129  H    0.096370
   130  H    0.120495
   131  H    0.136572
   132  H    0.136576
   133  O   -0.348075
   134  H    0.040653
 Sum of Mulliken charges =   0.00000

 Dipole moment (field-independent basis, Debye):
    X=              0.3448    Y=             -4.1595    Z=             -1.6270  Tot=              4.4796
 Quadrupole moment (field-independent basis, Debye-Ang):
   XX=           -355.7051   YY=           -435.2118   ZZ=           -396.8559
   XY=              3.7160   XZ=             18.3671   YZ=            -40.0630

 Normal termination of Gaussian 09 at Thu Oct  3 18:14:02 2019.
