 Gaussian 09, Revision D.01,
 Gaussian 09:  ES64L-G09RevD.01 24-Apr-2013

 ----------------------------------------------------------------------
 # td=(NStates=1) iop(3/107=0140000000,3/108=0140000000) iop(3/107=0140
 000000,3/108=0140000000) CAM-B3LYP/6-31G(d,p)
 ----------------------------------------------------------------------

 --
 TD
 --
 Symbolic Z-matrix:
 Charge =  0 Multiplicity = 1

                         Standard orientation:
 ---------------------------------------------------------------------
 Center     Atomic      Atomic             Coordinates (Angstroms)
 Number     Number       Type             X           Y           Z
 ---------------------------------------------------------------------
      1         12           0       -5.642827    1.221457    0.187634
      2          6           0       -5.017305   -2.000577   -0.408534
      3          6           0       -3.358207    1.104048    2.703704
      4          6           0       -6.210220    4.509362    0.618689
      5          6           0       -7.831487    1.247976   -2.467289
      6          7           0       -4.313360   -0.283185    1.083698
      7          6           0       -4.175765   -1.542986    0.649346
      8          6           0       -3.200454   -2.353432    1.443841
      9          6           0       -2.916687   -1.324069    2.574500
     10          6           0       -3.560314   -0.052392    2.140106
     11          6           0       -3.535254   -1.836468    3.916327
     12          6           0       -1.932800   -2.680305    0.567905
     13          6           0       -0.868971   -3.581664    1.345396
     14          6           0        0.358165   -3.932333    0.605060
     15          8           0        0.543915   -3.550586   -0.494528
     16          8           0        1.105529   -4.791103    1.300866
     17          7           0       -5.001501    2.509982    1.488964
     18          6           0       -4.063138    2.383946    2.486492
     19          6           0       -3.808823    3.548804    3.312893
     20          6           0       -4.614713    4.499547    2.665701
     21          6           0       -5.257614    3.886063    1.550914
     22          6           0       -2.905064    3.785114    4.415205
     23          6           0       -4.792932    5.929956    3.134285
     24          8           0       -4.167861    6.510058    3.892891
     25          7           0       -6.814958    2.559057   -0.725426
     26          6           0       -6.921914    3.918972   -0.322025
     27          6           0       -7.863927    4.593535   -1.145669
     28          6           0       -8.394800    3.667757   -2.131830
     29          6           0       -7.689929    2.446077   -1.813431
     30          6           0       -8.403753    6.054821   -1.038102
     31          6           0       -9.328747    3.898467   -3.248780
     32          6           0       -8.763033    3.943085   -4.683034
     33          7           0       -6.332832   -0.046731   -1.165632
     34          6           0       -7.316175   -0.069464   -2.187154
     35          6           0       -7.449332   -1.352450   -2.894585
     36          6           0       -6.579710   -2.129870   -2.073977
     37          6           0       -5.966047   -1.324046   -1.103459
     38          6           0       -8.616547   -1.717237   -3.851080
     39          6           0       -6.106463   -3.562987   -2.016143
     40          8           0       -6.501433   -4.525020   -2.616611
     41          6           0       -5.016283   -3.573488   -0.925447
     42          6           0       -5.206940   -4.527410    0.071684
     43          8           0       -5.583784   -4.423629    1.260818
     44          8           0       -4.975208   -5.832548   -0.398008
     45          6           0       -5.201115   -6.773326    0.525862
     46          6           0        2.349721   -5.165590    0.748220
     47          6           0        3.346991   -4.071240    0.969896
     48          6           0        4.028629   -3.297730    0.091479
     49          6           0        3.653764   -3.219572   -1.364798
     50          6           0        5.125273   -2.385744    0.635862
     51          6           0        6.595169   -2.755078    0.163917
     52          6           0        7.715673   -1.781843    0.684952
     53          6           0        9.107062   -2.084918    0.112740
     54          6           0        9.645060   -3.469379    0.422101
     55          6           0       10.102761   -0.908322    0.506830
     56          6           0       11.282231   -0.872823   -0.368050
     57          6           0       12.228758    0.250059    0.165715
     58          6           0       13.504802    0.524507   -0.650233
     59          6           0       14.413750   -0.685589   -0.542319
     60          6           0       14.068066    1.900360   -0.254646
     61          6           0       15.323480    2.221829   -1.023053
     62          6           0       15.962495    3.633999   -0.615835
     63          6           0       17.272782    4.061842   -1.351083
     64          6           0       17.063654    4.116184   -2.882464
     65          6           0       17.666616    5.482461   -0.786284
     66          1           0       -2.733051    0.934096    3.625010
     67          1           0       -6.246526    5.652627    0.923630
     68          1           0       -8.698277    1.283974   -3.274571
     69          1           0       -3.472214   -3.233768    1.859255
     70          1           0       -1.808268   -1.248809    2.590781
     71          1           0       -2.985761   -2.744355    4.267775
     72          1           0       -3.505644   -1.080326    4.801735
     73          1           0       -4.770574   -2.215152    3.762069
     74          1           0       -2.131329   -3.392517   -0.133976
     75          1           0       -1.379116   -1.809605    0.240589
     76          1           0       -0.784609   -2.884000    2.191628
     77          1           0       -1.315749   -4.576294    1.741256
     78          1           0       -1.805388    3.686255    4.178199
     79          1           0       -3.039138    4.775484    4.884154
     80          1           0       -3.150059    3.116017    5.070150
     81          1           0       -5.637114    6.539686    2.591595
     82          1           0      -10.081847    3.018947   -3.138338
     83          1           0       -9.829105    4.865036   -3.026953
     84          1           0       -9.663633    3.923359   -5.303873
     85          1           0       -8.313219    4.955339   -4.864843
     86          1           0       -8.238539    2.929246   -5.054372
     87          1           0       -8.798467   -1.024730   -4.738362
     88          1           0       -8.342388   -2.724222   -4.283081
     89          1           0       -9.536283   -1.829536   -3.194887
     90          1           0       -4.103114   -3.784987   -1.411411
     91          1           0        2.918587   -5.978095    1.063634
     92          1           0        2.239776   -5.206564   -0.436295
     93          1           0        3.910669   -4.078551    1.894983
     94          1           0        2.639229   -3.331239   -1.572137
     95          1           0        3.935110   -2.269167   -1.734339
     96          1           0        4.405739   -3.800576   -2.060897
     97          1           0        4.787292   -1.361086    0.306695
     98          1           0        5.038355   -2.341453    1.726550
     99          1           0        6.925844   -3.814235    0.502434
    100          1           0        6.594575   -2.798389   -1.005911
    101          1           0        7.311566   -0.770556    0.734579
    102          1           0        7.761131   -2.152411    1.810029
    103          1           0        8.860726   -1.865218   -1.043360
    104          1           0        8.845568   -4.235906   -0.044982
    105          1           0       10.502131   -3.852399   -0.084130
    106          1           0        9.779440   -3.588701    1.643295
    107          1           0        9.590685   -0.094533    0.501774
    108          1           0       10.344315   -1.173543    1.630311
    109          1           0       12.091753   -1.820078   -0.350344
    110          1           0       10.905277   -0.687162   -1.359974
    111          1           0       11.638469    1.303840    0.153060
    112          1           0       12.322174    0.171906    1.204608
    113          1           0       13.117897    0.636366   -1.728701
    114          1           0       14.551060   -0.819415    0.546774
    115          1           0       14.134529   -1.670145   -0.961388
    116          1           0       15.412131   -0.488167   -1.125651
    117          1           0       13.360600    2.665066   -0.380737
    118          1           0       14.401495    1.744813    0.726985
    119          1           0       16.135907    1.431312   -1.012503
    120          1           0       15.169650    2.436552   -2.088743
    121          1           0       15.363777    4.384682   -0.723675
    122          1           0       16.143548    3.474764    0.396153
    123          1           0       18.082080    3.347472   -1.002813
    124          1           0       16.165967    4.617121   -3.365765
    125          1           0       17.940967    4.662356   -3.264211
    126          1           0       16.923979    3.023834   -3.195112
    127          1           0       17.748514    5.422724    0.299949
    128          1           0       18.584057    5.702387   -1.043730
    129          1           0       16.629383    6.155793   -1.134911
    130          1           0       -5.022841   -7.784109    0.095482
    131          1           0       -6.329124   -6.777113    0.935430
    132          1           0       -4.866471   -6.707169    1.495354
    133          8           0       -7.929395    6.801196   -0.330692
    134          1           0       -9.250369    6.356297   -1.673583
 ---------------------------------------------------------------------

 SCF Done:  E(RCAM-B3LYP) =  -3043.45356197     A.U. after   15 cycles

 Excitation energies and oscillator strengths:

 Excited State   1:      Singlet-A      2.0410 eV  607.48 nm  f=0.2129  <S**2>=0.000
     243 -> 246        0.27007
     244 -> 245        0.64818
 This state for optimization and/or second-order correction.
 Total Energy, E(TD-HF/TD-KS) =  -3043.37855753
 Copying the excited state density for this state as the 1-particle RhoCI density.

 The electronic state is 1-A.
 Alpha  occ. eigenvalues --  -46.80235 -19.22799 -19.22433 -19.18223 -19.17995
 Alpha  occ. eigenvalues --  -19.17707 -19.17627 -19.17454 -14.38258 -14.36860
 Alpha  occ. eigenvalues --  -14.36343 -14.36171 -10.35376 -10.34949 -10.32369
 Alpha  occ. eigenvalues --  -10.30819 -10.30456 -10.27750 -10.27656 -10.27096
 Alpha  occ. eigenvalues --  -10.26720 -10.26489 -10.26198 -10.25872 -10.25750
 Alpha  occ. eigenvalues --  -10.25375 -10.25295 -10.25214 -10.25030 -10.24819
 Alpha  occ. eigenvalues --  -10.24767 -10.24595 -10.24504 -10.24482 -10.24353
 Alpha  occ. eigenvalues --  -10.24056 -10.23856 -10.23747 -10.23695 -10.23629
 Alpha  occ. eigenvalues --  -10.23381 -10.23354 -10.23284 -10.22992 -10.22924
 Alpha  occ. eigenvalues --  -10.22731 -10.22676 -10.22627 -10.22602 -10.22256
 Alpha  occ. eigenvalues --  -10.22129 -10.21984 -10.21906 -10.21640 -10.21584
 Alpha  occ. eigenvalues --  -10.21024 -10.20987 -10.20582 -10.20545 -10.20436
 Alpha  occ. eigenvalues --  -10.20351 -10.20099 -10.20024 -10.19957 -10.19816
 Alpha  occ. eigenvalues --  -10.18169  -3.09141  -1.84040  -1.83669  -1.83541
 Alpha  occ. eigenvalues --   -1.15254  -1.13936  -1.12662  -1.11549  -1.08766
 Alpha  occ. eigenvalues --   -1.07143  -1.03970  -1.01913  -1.00064  -0.98909
 Alpha  occ. eigenvalues --   -0.97231  -0.88754  -0.85980  -0.85566  -0.85155
 Alpha  occ. eigenvalues --   -0.84977  -0.84286  -0.84083  -0.83796  -0.83238
 Alpha  occ. eigenvalues --   -0.82689  -0.82570  -0.81492  -0.81115  -0.79735
 Alpha  occ. eigenvalues --   -0.78619  -0.77821  -0.77322  -0.76687  -0.76423
 Alpha  occ. eigenvalues --   -0.75222  -0.74821  -0.73734  -0.72495  -0.72129
 Alpha  occ. eigenvalues --   -0.71237  -0.70798  -0.70663  -0.70083  -0.69665
 Alpha  occ. eigenvalues --   -0.69099  -0.68834  -0.66672  -0.66452  -0.65934
 Alpha  occ. eigenvalues --   -0.65124  -0.64567  -0.64150  -0.62729  -0.62033
 Alpha  occ. eigenvalues --   -0.61561  -0.60770  -0.60216  -0.59275  -0.58569
 Alpha  occ. eigenvalues --   -0.58555  -0.58121  -0.57900  -0.57677  -0.57270
 Alpha  occ. eigenvalues --   -0.56660  -0.55935  -0.55654  -0.55333  -0.55000
 Alpha  occ. eigenvalues --   -0.54624  -0.53967  -0.53155  -0.52703  -0.52335
 Alpha  occ. eigenvalues --   -0.52122  -0.51643  -0.51279  -0.51120  -0.50838
 Alpha  occ. eigenvalues --   -0.50790  -0.50420  -0.49588  -0.49391  -0.49235
 Alpha  occ. eigenvalues --   -0.49033  -0.48498  -0.48332  -0.48031  -0.47923
 Alpha  occ. eigenvalues --   -0.47820  -0.47262  -0.47121  -0.46873  -0.46850
 Alpha  occ. eigenvalues --   -0.46819  -0.46563  -0.46134  -0.45971  -0.45947
 Alpha  occ. eigenvalues --   -0.45747  -0.45525  -0.45307  -0.45055  -0.44727
 Alpha  occ. eigenvalues --   -0.44584  -0.44294  -0.44058  -0.43858  -0.43813
 Alpha  occ. eigenvalues --   -0.43588  -0.43550  -0.43272  -0.43152  -0.43099
 Alpha  occ. eigenvalues --   -0.42960  -0.42427  -0.42374  -0.42202  -0.41709
 Alpha  occ. eigenvalues --   -0.41599  -0.41412  -0.41266  -0.40954  -0.40740
 Alpha  occ. eigenvalues --   -0.40656  -0.40249  -0.40210  -0.40057  -0.39950
 Alpha  occ. eigenvalues --   -0.39765  -0.39634  -0.39601  -0.39277  -0.39075
 Alpha  occ. eigenvalues --   -0.38886  -0.38834  -0.38705  -0.38583  -0.38499
 Alpha  occ. eigenvalues --   -0.38134  -0.38006  -0.37917  -0.37138  -0.36950
 Alpha  occ. eigenvalues --   -0.36810  -0.36795  -0.36608  -0.36219  -0.36033
 Alpha  occ. eigenvalues --   -0.35812  -0.35278  -0.35252  -0.34557  -0.34550
 Alpha  occ. eigenvalues --   -0.34314  -0.33897  -0.33518  -0.32914  -0.32610
 Alpha  occ. eigenvalues --   -0.32553  -0.32200  -0.32060  -0.31289  -0.31265
 Alpha  occ. eigenvalues --   -0.31188  -0.31162  -0.30594  -0.30500  -0.29467
 Alpha  occ. eigenvalues --   -0.28864  -0.28605  -0.28101  -0.28028  -0.27274
 Alpha  occ. eigenvalues --   -0.27033  -0.26628  -0.22414  -0.21602
 Alpha virt. eigenvalues --   -0.08694  -0.05621  -0.01473   0.00782   0.01047
 Alpha virt. eigenvalues --    0.02128   0.03927   0.04145   0.04215   0.04612
 Alpha virt. eigenvalues --    0.05080   0.06133   0.07614   0.08509   0.09242

 Mulliken charges:
               1
     1  Mg   0.821986
     2  C   -0.019945
     3  C   -0.187745
     4  C   -0.189536
     5  C   -0.222388
     6  N   -0.623241
     7  C    0.323915
     8  C   -0.133470
     9  C   -0.174520
    10  C    0.387445
    11  C   -0.302654
    12  C   -0.191384
    13  C   -0.306314
    14  C    0.631736
    15  O   -0.444506
    16  O   -0.446281
    17  N   -0.693367
    18  C    0.250180
    19  C    0.079169
    20  C   -0.064705
    21  C    0.271175
    22  C   -0.385153
    23  C    0.251225
    24  O   -0.355406
    25  N   -0.710833
    26  C    0.340613
    27  C   -0.083622
    28  C    0.063936
    29  C    0.326094
    30  C    0.263206
    31  C   -0.255457
    32  C   -0.303203
    33  N   -0.720038
    34  C    0.241612
    35  C    0.030043
    36  C   -0.054639
    37  C    0.437832
    38  C   -0.370710
    39  C    0.378251
    40  O   -0.427927
    41  C   -0.307523
    42  C    0.645752
    43  O   -0.495476
    44  O   -0.424399
    45  C   -0.079559
    46  C   -0.003639
    47  C   -0.159114
    48  C    0.143801
    49  C   -0.384210
    50  C   -0.236369
    51  C   -0.169777
    52  C   -0.171822
    53  C   -0.048683
    54  C   -0.297304
    55  C   -0.142519
    56  C   -0.152637
    57  C   -0.176153
    58  C   -0.050203
    59  C   -0.311910
    60  C   -0.150651
    61  C   -0.206421
    62  C   -0.155005
    63  C   -0.077294
    64  C   -0.304959
    65  C   -0.285425
    66  H    0.073092
    67  H    0.132169
    68  H    0.062035
    69  H    0.127963
    70  H    0.105922
    71  H    0.114093
    72  H    0.104908
    73  H    0.101129
    74  H    0.125035
    75  H    0.126311
    76  H    0.130726
    77  H    0.123697
    78  H    0.124313
    79  H    0.152195
    80  H    0.132768
    81  H    0.040262
    82  H    0.107171
    83  H    0.107735
    84  H    0.117877
    85  H    0.121066
    86  H    0.107222
    87  H    0.123124
    88  H    0.147437
    89  H    0.144875
    90  H    0.181095
    91  H    0.136155
    92  H    0.110752
    93  H    0.072101
    94  H    0.157549
    95  H    0.108611
    96  H    0.097594
    97  H    0.097811
    98  H    0.099586
    99  H    0.095316
   100  H    0.074769
   101  H    0.098591
   102  H    0.067870
   103  H    0.058278
   104  H    0.084484
   105  H    0.122153
   106  H    0.083937
   107  H    0.100882
   108  H    0.067060
   109  H    0.067985
   110  H    0.097193
   111  H    0.045003
   112  H    0.096690
   113  H    0.069268
   114  H    0.099238
   115  H    0.110778
   116  H    0.085914
   117  H    0.103304
   118  H    0.095724
   119  H    0.085389
   120  H    0.086231
   121  H    0.090181
   122  H    0.086215
   123  H    0.078519
   124  H    0.097753
   125  H    0.100066
   126  H    0.100056
   127  H    0.099029
   128  H    0.109076
   129  H    0.069019
   130  H    0.109034
   131  H    0.079910
   132  H    0.128470
   133  O   -0.346598
   134  H    0.058958
 Sum of Mulliken charges =   0.00000

 Dipole moment (field-independent basis, Debye):
    X=              1.5042    Y=             -2.1843    Z=             -1.1733  Tot=              2.9000
 Quadrupole moment (field-independent basis, Debye-Ang):
   XX=           -362.1392   YY=           -435.4952   ZZ=           -391.4205
   XY=            -11.9756   XZ=             28.3023   YZ=            -30.1532

 Normal termination of Gaussian 09 at Mon Oct  7 13:06:41 2019.
