 Gaussian 09, Revision D.01,
 Gaussian 09:  ES64L-G09RevD.01 24-Apr-2013

 ----------------------------------------------------------------------
 # td=(NStates=1) iop(3/107=0140000000,3/108=0140000000) iop(3/107=0140
 000000,3/108=0140000000) CAM-B3LYP/6-31G(d,p)
 ----------------------------------------------------------------------

 --
 TD
 --
 Symbolic Z-matrix:
 Charge =  0 Multiplicity = 1

                         Standard orientation:
 ---------------------------------------------------------------------
 Center     Atomic      Atomic             Coordinates (Angstroms)
 Number     Number       Type             X           Y           Z
 ---------------------------------------------------------------------
      1         12           0       -5.686898    1.125586    0.222362
      2          6           0       -4.947846   -2.118359   -0.401422
      3          6           0       -3.358437    1.160274    2.739150
      4          6           0       -6.263438    4.533974    0.747931
      5          6           0       -8.046174    1.204397   -2.353829
      6          7           0       -4.375810   -0.319357    0.970561
      7          6           0       -4.186272   -1.662108    0.624247
      8          6           0       -3.285326   -2.371492    1.367210
      9          6           0       -2.829166   -1.341630    2.567087
     10          6           0       -3.525345   -0.086728    2.006166
     11          6           0       -3.357000   -1.759491    3.937565
     12          6           0       -1.996763   -2.844269    0.598801
     13          6           0       -0.972714   -3.699113    1.384738
     14          6           0        0.335243   -3.949621    0.656284
     15          8           0        0.613824   -3.348667   -0.429568
     16          8           0        1.067190   -4.902163    1.232124
     17          7           0       -4.916440    2.597646    1.438233
     18          6           0       -4.066314    2.347151    2.509794
     19          6           0       -3.816433    3.586580    3.240007
     20          6           0       -4.538699    4.608735    2.593264
     21          6           0       -5.301551    3.921766    1.521067
     22          6           0       -2.860506    3.695413    4.404401
     23          6           0       -4.585193    6.035487    3.020412
     24          8           0       -3.894757    6.564951    3.919069
     25          7           0       -6.861587    2.669381   -0.715389
     26          6           0       -6.985887    3.940940   -0.277539
     27          6           0       -7.984033    4.674822   -1.134629
     28          6           0       -8.469146    3.736412   -2.045170
     29          6           0       -7.854186    2.494313   -1.671086
     30          6           0       -8.384592    6.045222   -1.107120
     31          6           0       -9.389682    3.853408   -3.124559
     32          6           0       -8.861293    3.952770   -4.585406
     33          7           0       -6.290053   -0.080618   -1.157093
     34          6           0       -7.352046   -0.042413   -2.087750
     35          6           0       -7.663514   -1.323901   -2.711168
     36          6           0       -6.642187   -2.126504   -2.149135
     37          6           0       -5.863587   -1.413964   -1.207750
     38          6           0       -8.592360   -1.592597   -3.895661
     39          6           0       -6.160112   -3.488600   -2.073644
     40          8           0       -6.490914   -4.441145   -2.749540
     41          6           0       -5.188383   -3.560191   -1.032033
     42          6           0       -5.366682   -4.582705    0.011634
     43          8           0       -5.758581   -4.341108    1.216884
     44          8           0       -5.138994   -5.783248   -0.463882
     45          6           0       -5.466536   -6.838258    0.466364
     46          6           0        2.352442   -5.122385    0.649564
     47          6           0        3.412005   -4.136535    1.114007
     48          6           0        4.042333   -3.257541    0.285524
     49          6           0        3.865766   -3.263063   -1.229226
     50          6           0        5.142003   -2.459072    0.797095
     51          6           0        6.573179   -2.798559    0.187803
     52          6           0        7.610706   -1.780079    0.708468
     53          6           0        8.958785   -1.963842    0.010630
     54          6           0        9.617145   -3.391382    0.218651
     55          6           0        9.993158   -0.820380    0.515196
     56          6           0       11.401649   -0.722238   -0.208593
     57          6           0       12.321164    0.416167    0.070621
     58          6           0       13.652166    0.476307   -0.639080
     59          6           0       14.433607   -0.880588   -0.300305
     60          6           0       14.346545    1.727962   -0.238115
     61          6           0       15.559044    2.187632   -1.083433
     62          6           0       16.054896    3.483584   -0.787230
     63          6           0       17.354921    3.950840   -1.481454
     64          6           0       17.196443    4.249445   -3.010191
     65          6           0       17.796359    5.266800   -0.745541
     66          1           0       -2.697932    0.950252    3.656792
     67          1           0       -6.774788    5.498812    0.918621
     68          1           0       -8.938695    1.093533   -3.064291
     69          1           0       -3.866726   -3.158444    1.912539
     70          1           0       -1.677323   -1.183482    2.614112
     71          1           0       -2.705784   -2.480538    4.161721
     72          1           0       -3.332326   -1.085673    4.732339
     73          1           0       -4.519101   -2.104296    3.828574
     74          1           0       -2.325341   -3.439383   -0.258905
     75          1           0       -1.319188   -2.009783    0.219945
     76          1           0       -1.026042   -3.031718    2.308533
     77          1           0       -1.257597   -4.640573    1.811935
     78          1           0       -1.804240    3.420562    3.912803
     79          1           0       -2.863787    4.726363    4.832331
     80          1           0       -2.973163    2.902849    5.194020
     81          1           0       -5.201203    6.659719    2.394120
     82          1           0      -10.085560    3.043982   -3.079235
     83          1           0      -10.105940    4.453237   -2.978619
     84          1           0       -9.802576    4.225644   -5.234234
     85          1           0       -8.237017    4.843698   -4.550247
     86          1           0       -8.296698    3.006851   -4.943587
     87          1           0       -8.501123   -0.902056   -4.811514
     88          1           0       -8.523849   -2.674397   -4.085572
     89          1           0       -9.627688   -1.312610   -3.556336
     90          1           0       -4.198576   -3.885995   -1.308652
     91          1           0        2.524869   -6.339189    0.989011
     92          1           0        2.210182   -4.917912   -0.659991
     93          1           0        3.635090   -4.183142    2.175807
     94          1           0        2.943271   -3.801027   -1.642538
     95          1           0        3.874949   -2.268984   -1.553380
     96          1           0        4.496957   -3.774583   -1.988624
     97          1           0        4.841308   -1.352747    0.783975
     98          1           0        5.088410   -2.493132    1.955433
     99          1           0        6.686013   -3.792343    0.533672
    100          1           0        6.572441   -2.767290   -0.968283
    101          1           0        7.270204   -0.640537    0.518419
    102          1           0        7.804654   -1.955312    1.961684
    103          1           0        8.811451   -1.499080   -1.081931
    104          1           0        8.869449   -4.124107    0.226985
    105          1           0       10.552133   -3.655191   -0.374644
    106          1           0       10.290776   -3.459641    1.183277
    107          1           0        9.398693    0.253343    0.575222
    108          1           0       10.141521   -0.989129    1.445487
    109          1           0       11.841389   -1.574503   -0.127635
    110          1           0       11.336830   -0.676983   -1.362379
    111          1           0       11.727959    1.309983   -0.130827
    112          1           0       12.605272    0.322811    1.126931
    113          1           0       13.597484    0.596444   -1.756859
    114          1           0       14.664958   -0.862669    0.946107
    115          1           0       14.063270   -1.805139   -0.608592
    116          1           0       15.443498   -0.894687   -0.897268
    117          1           0       13.517645    2.517300   -0.278820
    118          1           0       14.407203    1.751567    0.892460
    119          1           0       16.281425    1.263957   -1.136423
    120          1           0       15.105509    2.163828   -1.990751
    121          1           0       15.303845    4.178297   -1.103472
    122          1           0       16.232370    3.541886    0.338246
    123          1           0       18.093498    3.128593   -1.144918
    124          1           0       16.164105    4.903614   -3.118651
    125          1           0       18.127401    4.557062   -3.589507
    126          1           0       16.973923    3.343050   -3.728928
    127          1           0       17.845303    5.051579    0.289767
    128          1           0       18.730156    5.777084   -1.127210
    129          1           0       16.985241    6.012870   -0.699126
    130          1           0       -5.191712   -7.741238    0.070751
    131          1           0       -6.591846   -6.964620    0.791004
    132          1           0       -4.840688   -6.649219    1.500613
    133          8           0       -7.942238    6.856672   -0.318397
    134          1           0       -9.217311    6.257113   -1.773006
 ---------------------------------------------------------------------

 SCF Done:  E(RCAM-B3LYP) =  -3043.45045051     A.U. after   16 cycles

 Excitation energies and oscillator strengths:

 Excited State   1:      Singlet-A      2.0000 eV  619.92 nm  f=0.1606  <S**2>=0.000
     243 -> 246        0.27992
     244 -> 245        0.64115
 This state for optimization and/or second-order correction.
 Total Energy, E(TD-HF/TD-KS) =  -3043.37695200
 Copying the excited state density for this state as the 1-particle RhoCI density.

 The electronic state is 1-A.
 Alpha  occ. eigenvalues --  -46.81055 -19.25214 -19.23953 -19.17148 -19.17116
 Alpha  occ. eigenvalues --  -19.16921 -19.16553 -19.15986 -14.39387 -14.37078
 Alpha  occ. eigenvalues --  -14.36659 -14.36426 -10.36083 -10.35911 -10.30652
 Alpha  occ. eigenvalues --  -10.30163 -10.30083 -10.29408 -10.29171 -10.28203
 Alpha  occ. eigenvalues --  -10.27016 -10.26787 -10.26680 -10.26552 -10.26200
 Alpha  occ. eigenvalues --  -10.25965 -10.25915 -10.25841 -10.25610 -10.25489
 Alpha  occ. eigenvalues --  -10.24875 -10.24488 -10.24329 -10.24260 -10.24235
 Alpha  occ. eigenvalues --  -10.24202 -10.24072 -10.24017 -10.23946 -10.23894
 Alpha  occ. eigenvalues --  -10.23852 -10.23849 -10.23581 -10.23420 -10.23040
 Alpha  occ. eigenvalues --  -10.23009 -10.22966 -10.22928 -10.22856 -10.22484
 Alpha  occ. eigenvalues --  -10.22382 -10.22323 -10.22323 -10.22322 -10.22099
 Alpha  occ. eigenvalues --  -10.22035 -10.22017 -10.21306 -10.21207 -10.21070
 Alpha  occ. eigenvalues --  -10.20838 -10.20317 -10.20056 -10.20032 -10.19975
 Alpha  occ. eigenvalues --  -10.19712  -3.09733  -1.84651  -1.84198  -1.84167
 Alpha  occ. eigenvalues --   -1.15610  -1.14268  -1.06820  -1.06633  -1.04549
 Alpha  occ. eigenvalues --   -1.02968  -1.02339  -1.00522  -0.99229  -0.98375
 Alpha  occ. eigenvalues --   -0.97723  -0.89297  -0.86455  -0.86306  -0.86140
 Alpha  occ. eigenvalues --   -0.85872  -0.84446  -0.84154  -0.83147  -0.83006
 Alpha  occ. eigenvalues --   -0.82292  -0.82268  -0.81629  -0.81006  -0.79750
 Alpha  occ. eigenvalues --   -0.79396  -0.78388  -0.77919  -0.77069  -0.76523
 Alpha  occ. eigenvalues --   -0.75334  -0.74536  -0.74294  -0.73556  -0.72190
 Alpha  occ. eigenvalues --   -0.71871  -0.70605  -0.70301  -0.70062  -0.69941
 Alpha  occ. eigenvalues --   -0.69775  -0.69031  -0.67543  -0.67256  -0.66539
 Alpha  occ. eigenvalues --   -0.66293  -0.65180  -0.64264  -0.63441  -0.62047
 Alpha  occ. eigenvalues --   -0.61696  -0.60815  -0.60652  -0.58852  -0.58787
 Alpha  occ. eigenvalues --   -0.58375  -0.58298  -0.57766  -0.57333  -0.57041
 Alpha  occ. eigenvalues --   -0.56858  -0.55825  -0.55462  -0.54927  -0.54588
 Alpha  occ. eigenvalues --   -0.54280  -0.53637  -0.53183  -0.52948  -0.52576
 Alpha  occ. eigenvalues --   -0.52226  -0.51703  -0.51675  -0.51549  -0.51044
 Alpha  occ. eigenvalues --   -0.50824  -0.50586  -0.49671  -0.49340  -0.49131
 Alpha  occ. eigenvalues --   -0.48593  -0.48261  -0.48026  -0.47645  -0.47371
 Alpha  occ. eigenvalues --   -0.47110  -0.47020  -0.46729  -0.46592  -0.46503
 Alpha  occ. eigenvalues --   -0.46202  -0.45950  -0.45847  -0.45664  -0.45586
 Alpha  occ. eigenvalues --   -0.45468  -0.45162  -0.44877  -0.44835  -0.44619
 Alpha  occ. eigenvalues --   -0.44417  -0.44380  -0.44271  -0.43982  -0.43384
 Alpha  occ. eigenvalues --   -0.43250  -0.42923  -0.42759  -0.42501  -0.42112
 Alpha  occ. eigenvalues --   -0.42074  -0.41809  -0.41773  -0.41605  -0.41528
 Alpha  occ. eigenvalues --   -0.41134  -0.41080  -0.40965  -0.40614  -0.40561
 Alpha  occ. eigenvalues --   -0.40489  -0.40344  -0.40164  -0.40072  -0.39889
 Alpha  occ. eigenvalues --   -0.39867  -0.39458  -0.39362  -0.39329  -0.39253
 Alpha  occ. eigenvalues --   -0.38914  -0.38784  -0.38624  -0.38494  -0.38055
 Alpha  occ. eigenvalues --   -0.37978  -0.37952  -0.37629  -0.37332  -0.37102
 Alpha  occ. eigenvalues --   -0.37056  -0.36674  -0.35936  -0.35562  -0.35476
 Alpha  occ. eigenvalues --   -0.35298  -0.35082  -0.34827  -0.34672  -0.34647
 Alpha  occ. eigenvalues --   -0.34453  -0.34263  -0.33915  -0.33805  -0.33495
 Alpha  occ. eigenvalues --   -0.33306  -0.32990  -0.32392  -0.32158  -0.31856
 Alpha  occ. eigenvalues --   -0.31332  -0.30936  -0.30380  -0.30294  -0.29595
 Alpha  occ. eigenvalues --   -0.28379  -0.27808  -0.27693  -0.27593  -0.27521
 Alpha  occ. eigenvalues --   -0.27505  -0.27440  -0.22771  -0.21326
 Alpha virt. eigenvalues --   -0.08334  -0.06617  -0.01894  -0.00839   0.00675
 Alpha virt. eigenvalues --    0.01725   0.01811   0.02355   0.03081   0.04228
 Alpha virt. eigenvalues --    0.05592   0.05922   0.07517   0.08580   0.09647

 Mulliken charges:
               1
     1  Mg   0.839374
     2  C    0.065639
     3  C   -0.199578
     4  C   -0.164541
     5  C   -0.170460
     6  N   -0.640289
     7  C    0.370104
     8  C   -0.207364
     9  C   -0.182091
    10  C    0.339294
    11  C   -0.294299
    12  C   -0.182800
    13  C   -0.270067
    14  C    0.620157
    15  O   -0.496434
    16  O   -0.430771
    17  N   -0.703173
    18  C    0.326754
    19  C    0.046735
    20  C   -0.033973
    21  C    0.310249
    22  C   -0.382533
    23  C    0.252418
    24  O   -0.433742
    25  N   -0.657962
    26  C    0.302231
    27  C   -0.042435
    28  C    0.077421
    29  C    0.244831
    30  C    0.238345
    31  C   -0.255434
    32  C   -0.301557
    33  N   -0.739180
    34  C    0.241185
    35  C    0.053170
    36  C   -0.005279
    37  C    0.265779
    38  C   -0.375216
    39  C    0.368830
    40  O   -0.472179
    41  C   -0.307228
    42  C    0.618273
    43  O   -0.518426
    44  O   -0.401497
    45  C   -0.085186
    46  C   -0.000721
    47  C   -0.116922
    48  C    0.162844
    49  C   -0.374318
    50  C   -0.253956
    51  C   -0.166888
    52  C   -0.145538
    53  C   -0.044826
    54  C   -0.325222
    55  C   -0.175170
    56  C   -0.172228
    57  C   -0.160311
    58  C   -0.051175
    59  C   -0.301555
    60  C   -0.174725
    61  C   -0.160659
    62  C   -0.159975
    63  C   -0.047484
    64  C   -0.300498
    65  C   -0.308165
    66  H    0.086993
    67  H    0.135852
    68  H    0.090314
    69  H    0.153784
    70  H    0.110721
    71  H    0.123386
    72  H    0.122283
    73  H    0.112477
    74  H    0.108354
    75  H    0.139327
    76  H    0.119600
    77  H    0.130487
    78  H    0.112414
    79  H    0.162947
    80  H    0.117691
    81  H    0.095381
    82  H    0.107784
    83  H    0.111589
    84  H    0.099658
    85  H    0.124342
    86  H    0.112740
    87  H    0.130694
    88  H    0.154924
    89  H    0.121692
    90  H    0.173127
    91  H    0.089320
    92  H    0.096588
    93  H    0.088609
    94  H    0.121631
    95  H    0.124812
    96  H    0.117708
    97  H    0.097165
    98  H    0.088221
    99  H    0.121118
   100  H    0.102249
   101  H    0.087513
   102  H    0.055799
   103  H    0.080731
   104  H    0.114786
   105  H    0.107965
   106  H    0.090930
   107  H    0.047082
   108  H    0.106994
   109  H    0.097032
   110  H    0.064022
   111  H    0.089575
   112  H    0.083534
   113  H    0.073648
   114  H    0.069794
   115  H    0.118859
   116  H    0.082238
   117  H    0.075811
   118  H    0.074053
   119  H    0.076558
   120  H    0.104716
   121  H    0.091922
   122  H    0.083340
   123  H    0.080811
   124  H    0.084892
   125  H    0.108160
   126  H    0.084736
   127  H    0.103468
   128  H    0.094884
   129  H    0.096157
   130  H    0.136297
   131  H    0.132258
   132  H    0.114046
   133  O   -0.433885
   134  H    0.065692
 Sum of Mulliken charges =   0.00000

 Dipole moment (field-independent basis, Debye):
    X=              1.7590    Y=             -6.4609    Z=             -0.2571  Tot=              6.7010
 Quadrupole moment (field-independent basis, Debye-Ang):
   XX=           -366.6355   YY=           -437.6041   ZZ=           -394.4616
   XY=              4.8014   XZ=             16.4599   YZ=            -38.6321

 Normal termination of Gaussian 09 at Wed Oct  9 12:10:59 2019.
