 Gaussian 09, Revision D.01,
 Gaussian 09:  ES64L-G09RevD.01 24-Apr-2013

 ----------------------------------------------------------------------
 # td=(NStates=1) iop(3/107=0140000000,3/108=0140000000) iop(3/107=0140
 000000,3/108=0140000000) CAM-B3LYP/6-31G(d,p)
 ----------------------------------------------------------------------

 --
 TD
 --
 Symbolic Z-matrix:
 Charge =  0 Multiplicity = 1

                         Standard orientation:
 ---------------------------------------------------------------------
 Center     Atomic      Atomic             Coordinates (Angstroms)
 Number     Number       Type             X           Y           Z
 ---------------------------------------------------------------------
      1         12           0       -5.616942    1.253102    0.181294
      2          6           0       -4.973817   -2.058847   -0.391865
      3          6           0       -3.466372    1.115160    2.767917
      4          6           0       -6.220843    4.550929    0.792853
      5          6           0       -7.964807    1.237587   -2.348410
      6          7           0       -4.247227   -0.241829    1.031563
      7          6           0       -4.200943   -1.567549    0.704228
      8          6           0       -3.269664   -2.361871    1.494679
      9          6           0       -2.881323   -1.414928    2.604743
     10          6           0       -3.505260   -0.044274    2.154516
     11          6           0       -3.417602   -1.811264    3.907362
     12          6           0       -2.068142   -2.755320    0.584171
     13          6           0       -0.987528   -3.660675    1.377856
     14          6           0        0.208854   -3.889824    0.603511
     15          8           0        0.502698   -3.466350   -0.477100
     16          8           0        1.036979   -4.706436    1.309252
     17          7           0       -4.874449    2.643227    1.539889
     18          6           0       -4.012134    2.477722    2.524631
     19          6           0       -3.620818    3.597614    3.192725
     20          6           0       -4.478642    4.594148    2.527684
     21          6           0       -5.252187    3.931969    1.506846
     22          6           0       -2.625119    3.795499    4.261987
     23          6           0       -4.574226    5.984518    2.913787
     24          8           0       -3.955460    6.547389    3.803388
     25          7           0       -6.881830    2.590988   -0.686573
     26          6           0       -6.982224    3.924641   -0.211475
     27          6           0       -7.946778    4.566641   -1.006782
     28          6           0       -8.466699    3.617241   -1.998982
     29          6           0       -7.783578    2.407927   -1.697527
     30          6           0       -8.388954    6.010292   -1.038531
     31          6           0       -9.314929    3.907413   -3.259648
     32          6           0       -8.579499    4.189870   -4.663838
     33          7           0       -6.392050   -0.067585   -1.070077
     34          6           0       -7.361012   -0.000251   -2.174526
     35          6           0       -7.512103   -1.260801   -2.701551
     36          6           0       -6.651145   -2.144868   -2.050263
     37          6           0       -5.935896   -1.346125   -1.149548
     38          6           0       -8.552440   -1.695064   -3.774083
     39          6           0       -6.244547   -3.568545   -1.978832
     40          8           0       -6.613638   -4.662712   -2.525205
     41          6           0       -5.049984   -3.528809   -0.968801
     42          6           0       -5.359763   -4.627647    0.127456
     43          8           0       -5.914147   -4.454714    1.180701
     44          8           0       -4.911730   -5.791563   -0.306026
     45          6           0       -5.278239   -7.091798    0.414177
     46          6           0        2.300143   -5.071711    0.655467
     47          6           0        3.397960   -4.066271    0.900981
     48          6           0        3.984500   -3.320972    0.075310
     49          6           0        3.590141   -3.162059   -1.327459
     50          6           0        5.087212   -2.335034    0.499875
     51          6           0        6.472427   -2.774723    0.011439
     52          6           0        7.608240   -1.783479    0.602872
     53          6           0        9.048027   -2.035354   -0.003791
     54          6           0        9.600556   -3.379000    0.262329
     55          6           0        9.892936   -0.911036    0.491579
     56          6           0       11.139913   -0.780247   -0.282944
     57          6           0       12.219788    0.304565    0.244881
     58          6           0       13.549926    0.412242   -0.498903
     59          6           0       14.414600   -0.724124   -0.238875
     60          6           0       14.153710    1.865348   -0.255267
     61          6           0       15.541146    2.097305   -0.959224
     62          6           0       16.083168    3.558747   -0.652503
     63          6           0       17.243144    3.947071   -1.415581
     64          6           0       17.080923    3.935271   -2.891427
     65          6           0       17.927629    5.193568   -0.861483
     66          1           0       -2.709842    1.177202    3.701310
     67          1           0       -6.436258    5.551521    0.890418
     68          1           0       -8.653194    1.214024   -3.211900
     69          1           0       -3.742494   -3.315419    2.124858
     70          1           0       -1.895786   -1.325918    2.614161
     71          1           0       -2.709164   -2.521757    4.345857
     72          1           0       -3.406238   -0.888558    4.440476
     73          1           0       -4.421835   -2.102720    3.755805
     74          1           0       -2.236844   -3.334777   -0.331040
     75          1           0       -1.577764   -1.924610    0.289573
     76          1           0       -0.653998   -3.224038    2.305160
     77          1           0       -1.401555   -4.607121    1.408937
     78          1           0       -1.605812    3.598817    3.873001
     79          1           0       -2.460406    4.842603    4.715923
     80          1           0       -2.814345    2.917775    4.998920
     81          1           0       -5.074279    6.687939    2.296971
     82          1           0      -10.020405    3.030027   -3.544413
     83          1           0      -10.051905    4.633227   -2.826898
     84          1           0       -9.337799    4.174004   -5.497889
     85          1           0       -8.198896    5.308887   -4.582266
     86          1           0       -7.742983    3.573256   -4.888688
     87          1           0       -8.275499   -1.143590   -4.840060
     88          1           0       -8.456449   -2.672982   -4.057606
     89          1           0       -9.625293   -1.629348   -3.585347
     90          1           0       -4.279835   -3.773855   -1.533811
     91          1           0        2.406059   -6.166086    1.062857
     92          1           0        1.860622   -5.122173   -0.349683
     93          1           0        3.639239   -4.056384    2.014657
     94          1           0        2.629191   -3.556162   -1.504777
     95          1           0        3.552112   -2.154204   -1.624388
     96          1           0        4.376776   -3.614727   -1.972586
     97          1           0        5.035070   -1.123434    0.078606
     98          1           0        5.020536   -2.314928    1.685434
     99          1           0        6.520072   -3.759641    0.397439
    100          1           0        6.749365   -2.696912   -1.059878
    101          1           0        7.314845   -0.754771    0.364025
    102          1           0        7.486898   -1.996616    1.756881
    103          1           0        9.046837   -1.834044   -1.049858
    104          1           0        9.022343   -4.228991   -0.221478
    105          1           0       10.532453   -3.576437   -0.243581
    106          1           0        9.904979   -3.482277    1.372413
    107          1           0        9.399287    0.038314    0.245523
    108          1           0       10.259724   -0.997427    1.598230
    109          1           0       11.686972   -1.635068   -0.160887
    110          1           0       11.122040   -0.687485   -1.405318
    111          1           0       11.756618    1.422735    0.215916
    112          1           0       12.487493    0.001237    1.205825
    113          1           0       13.273401    0.139365   -1.534544
    114          1           0       14.866540   -1.091533    0.841524
    115          1           0       13.993628   -1.698494   -0.569044
    116          1           0       15.447621   -0.412531   -0.686622
    117          1           0       13.242998    2.614284   -0.582731
    118          1           0       14.215977    2.188658    0.875571
    119          1           0       16.185941    1.252965   -0.692690
    120          1           0       15.282538    2.046860   -2.202038
    121          1           0       15.285783    4.271087   -0.768821
    122          1           0       16.154181    3.533011    0.399723
    123          1           0       17.864022    3.047784   -1.156474
    124          1           0       16.317403    4.742208   -3.035483
    125          1           0       18.123344    4.293982   -3.394283
    126          1           0       16.711474    2.828420   -3.194211
    127          1           0       18.460333    4.902798    0.098760
    128          1           0       18.783747    5.535603   -1.529725
    129          1           0       17.230238    6.272052   -1.061064
    130          1           0       -5.202976   -8.068046   -0.136232
    131          1           0       -6.358412   -6.928244    0.634803
    132          1           0       -4.647129   -6.963330    1.375335
    133          8           0       -7.832635    6.972821   -0.416777
    134          1           0       -9.281980    6.220766   -1.796030
 ---------------------------------------------------------------------

 SCF Done:  E(RCAM-B3LYP) =  -3043.46727698     A.U. after   16 cycles

 Excitation energies and oscillator strengths:

 Excited State   1:      Singlet-A      2.0274 eV  611.55 nm  f=0.1808  <S**2>=0.000
     243 -> 246        0.23077
     244 -> 245        0.64707
 This state for optimization and/or second-order correction.
 Total Energy, E(TD-HF/TD-KS) =  -3043.39277184
 Copying the excited state density for this state as the 1-particle RhoCI density.

 The electronic state is 1-A.
 Alpha  occ. eigenvalues --  -46.81451 -19.22198 -19.20963 -19.17775 -19.17537
 Alpha  occ. eigenvalues --  -19.17226 -19.16679 -19.15654 -14.38739 -14.36973
 Alpha  occ. eigenvalues --  -14.36723 -14.36214 -10.35010 -10.34218 -10.32322
 Alpha  occ. eigenvalues --  -10.32039 -10.29621 -10.28470 -10.27970 -10.27866
 Alpha  occ. eigenvalues --  -10.26734 -10.26694 -10.26514 -10.26376 -10.25977
 Alpha  occ. eigenvalues --  -10.25926 -10.25899 -10.25854 -10.25564 -10.25450
 Alpha  occ. eigenvalues --  -10.24791 -10.24540 -10.24445 -10.24266 -10.24235
 Alpha  occ. eigenvalues --  -10.24192 -10.24023 -10.23966 -10.23929 -10.23467
 Alpha  occ. eigenvalues --  -10.23437 -10.23389 -10.23234 -10.23174 -10.23133
 Alpha  occ. eigenvalues --  -10.23125 -10.23108 -10.23087 -10.22748 -10.22542
 Alpha  occ. eigenvalues --  -10.22055 -10.22017 -10.21999 -10.21684 -10.21637
 Alpha  occ. eigenvalues --  -10.21399 -10.21302 -10.21159 -10.20975 -10.20916
 Alpha  occ. eigenvalues --  -10.20854 -10.20846 -10.20743 -10.19941 -10.19928
 Alpha  occ. eigenvalues --  -10.19115  -3.10011  -1.84951  -1.84510  -1.84393
 Alpha  occ. eigenvalues --   -1.13341  -1.12958  -1.05474  -1.04750  -1.04264
 Alpha  occ. eigenvalues --   -1.04031  -1.03951  -1.02024  -1.00488  -0.99448
 Alpha  occ. eigenvalues --   -0.98389  -0.88059  -0.87095  -0.86644  -0.86108
 Alpha  occ. eigenvalues --   -0.85945  -0.85606  -0.84525  -0.83927  -0.83576
 Alpha  occ. eigenvalues --   -0.83183  -0.83065  -0.82873  -0.81120  -0.79752
 Alpha  occ. eigenvalues --   -0.78807  -0.77693  -0.77156  -0.77077  -0.76427
 Alpha  occ. eigenvalues --   -0.75748  -0.74860  -0.74426  -0.73577  -0.72703
 Alpha  occ. eigenvalues --   -0.71397  -0.70735  -0.70569  -0.70039  -0.69798
 Alpha  occ. eigenvalues --   -0.69706  -0.69124  -0.67547  -0.66977  -0.66685
 Alpha  occ. eigenvalues --   -0.66625  -0.64708  -0.64432  -0.63091  -0.61998
 Alpha  occ. eigenvalues --   -0.61573  -0.60520  -0.59732  -0.58962  -0.58935
 Alpha  occ. eigenvalues --   -0.58207  -0.57984  -0.57800  -0.57340  -0.57177
 Alpha  occ. eigenvalues --   -0.56761  -0.56244  -0.55940  -0.55857  -0.54369
 Alpha  occ. eigenvalues --   -0.54052  -0.53737  -0.53484  -0.52794  -0.52437
 Alpha  occ. eigenvalues --   -0.51791  -0.51497  -0.51096  -0.50735  -0.50153
 Alpha  occ. eigenvalues --   -0.50020  -0.49836  -0.49724  -0.49460  -0.49265
 Alpha  occ. eigenvalues --   -0.48947  -0.48558  -0.48198  -0.48176  -0.47702
 Alpha  occ. eigenvalues --   -0.47423  -0.47417  -0.47236  -0.47080  -0.46975
 Alpha  occ. eigenvalues --   -0.46675  -0.46467  -0.46441  -0.45992  -0.45515
 Alpha  occ. eigenvalues --   -0.45466  -0.45264  -0.45158  -0.45000  -0.44803
 Alpha  occ. eigenvalues --   -0.44489  -0.44280  -0.44082  -0.44028  -0.43827
 Alpha  occ. eigenvalues --   -0.43566  -0.43390  -0.43234  -0.43143  -0.42868
 Alpha  occ. eigenvalues --   -0.42552  -0.42251  -0.42179  -0.42071  -0.41978
 Alpha  occ. eigenvalues --   -0.41625  -0.41582  -0.41176  -0.40911  -0.40648
 Alpha  occ. eigenvalues --   -0.40580  -0.40472  -0.40394  -0.40178  -0.40009
 Alpha  occ. eigenvalues --   -0.39818  -0.39695  -0.39397  -0.39320  -0.38892
 Alpha  occ. eigenvalues --   -0.38812  -0.38524  -0.38422  -0.38203  -0.38175
 Alpha  occ. eigenvalues --   -0.37556  -0.37361  -0.37262  -0.36884  -0.36755
 Alpha  occ. eigenvalues --   -0.36732  -0.36484  -0.36264  -0.36014  -0.35965
 Alpha  occ. eigenvalues --   -0.35870  -0.35417  -0.35231  -0.34964  -0.34609
 Alpha  occ. eigenvalues --   -0.34264  -0.34022  -0.33586  -0.33273  -0.33217
 Alpha  occ. eigenvalues --   -0.32669  -0.32318  -0.32193  -0.31859  -0.31660
 Alpha  occ. eigenvalues --   -0.31208  -0.30929  -0.30817  -0.30423  -0.30331
 Alpha  occ. eigenvalues --   -0.28731  -0.28501  -0.28278  -0.28050  -0.27630
 Alpha  occ. eigenvalues --   -0.27146  -0.26470  -0.23637  -0.22352
 Alpha virt. eigenvalues --   -0.09651  -0.07131  -0.01954  -0.01215   0.00976
 Alpha virt. eigenvalues --    0.03206   0.04085   0.04173   0.04619   0.04913
 Alpha virt. eigenvalues --    0.05232   0.05832   0.07674   0.08484   0.08865

 Mulliken charges:
               1
     1  Mg   0.822244
     2  C    0.029471
     3  C   -0.232273
     4  C   -0.115711
     5  C   -0.195255
     6  N   -0.623824
     7  C    0.336579
     8  C   -0.167313
     9  C   -0.118364
    10  C    0.352408
    11  C   -0.298634
    12  C   -0.188742
    13  C   -0.262492
    14  C    0.591019
    15  O   -0.470115
    16  O   -0.490330
    17  N   -0.723636
    18  C    0.316155
    19  C    0.102296
    20  C   -0.096499
    21  C    0.369939
    22  C   -0.398270
    23  C    0.226096
    24  O   -0.431729
    25  N   -0.735959
    26  C    0.310423
    27  C   -0.051271
    28  C    0.014376
    29  C    0.351851
    30  C    0.237802
    31  C   -0.243578
    32  C   -0.306054
    33  N   -0.745264
    34  C    0.283222
    35  C    0.011077
    36  C    0.052197
    37  C    0.317249
    38  C   -0.378298
    39  C    0.360719
    40  O   -0.491852
    41  C   -0.275257
    42  C    0.608140
    43  O   -0.477211
    44  O   -0.454322
    45  C   -0.095199
    46  C   -0.008216
    47  C   -0.137294
    48  C    0.181530
    49  C   -0.371903
    50  C   -0.219524
    51  C   -0.175598
    52  C   -0.169105
    53  C   -0.044355
    54  C   -0.313162
    55  C   -0.154015
    56  C   -0.207435
    57  C   -0.168554
    58  C   -0.037342
    59  C   -0.306590
    60  C   -0.172407
    61  C   -0.185117
    62  C   -0.149556
    63  C   -0.042156
    64  C   -0.282271
    65  C   -0.299256
    66  H    0.059665
    67  H    0.129584
    68  H    0.091703
    69  H    0.116149
    70  H    0.105912
    71  H    0.109105
    72  H    0.111025
    73  H    0.131489
    74  H    0.122622
    75  H    0.132690
    76  H    0.141154
    77  H    0.151712
    78  H    0.130175
    79  H    0.167070
    80  H    0.113908
    81  H    0.077144
    82  H    0.101926
    83  H    0.115415
    84  H    0.116998
    85  H    0.105184
    86  H    0.132500
    87  H    0.094574
    88  H    0.156921
    89  H    0.135449
    90  H    0.154929
    91  H    0.108311
    92  H    0.122997
    93  H    0.076485
    94  H    0.141885
    95  H    0.120897
    96  H    0.106609
    97  H    0.062884
    98  H    0.082073
    99  H    0.106377
   100  H    0.095812
   101  H    0.090872
   102  H    0.077572
   103  H    0.088668
   104  H    0.099192
   105  H    0.106498
   106  H    0.094931
   107  H    0.093539
   108  H    0.079879
   109  H    0.101586
   110  H    0.078406
   111  H    0.053961
   112  H    0.097946
   113  H    0.094745
   114  H    0.063860
   115  H    0.106301
   116  H    0.084848
   117  H    0.075162
   118  H    0.083546
   119  H    0.105859
   120  H    0.063620
   121  H    0.087388
   122  H    0.098508
   123  H    0.076971
   124  H    0.095954
   125  H    0.085026
   126  H    0.092827
   127  H    0.108942
   128  H    0.094055
   129  H    0.065713
   130  H    0.147378
   131  H    0.150046
   132  H    0.132433
   133  O   -0.439370
   134  H    0.070322
 Sum of Mulliken charges =   0.00000

 Dipole moment (field-independent basis, Debye):
    X=              2.0654    Y=             -5.9975    Z=             -1.8361  Tot=              6.6035
 Quadrupole moment (field-independent basis, Debye-Ang):
   XX=           -373.3945   YY=           -436.5821   ZZ=           -396.4842
   XY=             10.0338   XZ=             28.6052   YZ=            -33.8731

 Normal termination of Gaussian 09 at Tue Oct  8 20:27:50 2019.
