 Gaussian 09, Revision D.01,
 Gaussian 09:  ES64L-G09RevD.01 24-Apr-2013

 ----------------------------------------------------------------------
 # td=(NStates=1) iop(3/107=0140000000,3/108=0140000000) iop(3/107=0140
 000000,3/108=0140000000) CAM-B3LYP/6-31G(d,p)
 ----------------------------------------------------------------------

 --
 TD
 --
 Symbolic Z-matrix:
 Charge =  0 Multiplicity = 1

                         Standard orientation:
 ---------------------------------------------------------------------
 Center     Atomic      Atomic             Coordinates (Angstroms)
 Number     Number       Type             X           Y           Z
 ---------------------------------------------------------------------
      1         12           0       -5.699700    1.122140    0.215475
      2          6           0       -5.152664   -2.077128   -0.258689
      3          6           0       -3.328227    1.219712    2.716007
      4          6           0       -6.328561    4.594461    0.698588
      5          6           0       -7.819350    1.219655   -2.590614
      6          7           0       -4.420370   -0.198882    1.059748
      7          6           0       -4.313447   -1.563081    0.711328
      8          6           0       -3.285187   -2.252446    1.582975
      9          6           0       -2.921007   -1.300130    2.608169
     10          6           0       -3.512270    0.002986    2.091458
     11          6           0       -3.433789   -1.679982    4.058145
     12          6           0       -1.961177   -2.694229    0.619816
     13          6           0       -1.070910   -3.605423    1.436569
     14          6           0        0.160945   -3.955546    0.603551
     15          8           0        0.309373   -3.548268   -0.540370
     16          8           0        1.038956   -4.695868    1.265585
     17          7           0       -5.038788    2.604940    1.570627
     18          6           0       -3.963828    2.488466    2.543604
     19          6           0       -3.789665    3.673945    3.263213
     20          6           0       -4.566453    4.606758    2.536176
     21          6           0       -5.358527    3.932864    1.572925
     22          6           0       -2.798599    3.825535    4.364486
     23          6           0       -4.720473    6.064573    2.940223
     24          8           0       -4.097505    6.635535    3.835436
     25          7           0       -6.846986    2.636579   -0.769710
     26          6           0       -7.041407    3.925273   -0.331494
     27          6           0       -8.036998    4.580512   -1.279881
     28          6           0       -8.387625    3.658220   -2.151786
     29          6           0       -7.701607    2.429365   -1.794678
     30          6           0       -8.350408    5.994112   -1.308880
     31          6           0       -9.432078    3.674152   -3.189392
     32          6           0       -8.919405    3.794752   -4.640154
     33          7           0       -6.477852   -0.145889   -1.184402
     34          6           0       -7.272666    0.010303   -2.238626
     35          6           0       -7.528176   -1.320172   -2.710147
     36          6           0       -6.666837   -2.188236   -2.069439
     37          6           0       -6.020743   -1.420013   -1.093980
     38          6           0       -8.637316   -1.693173   -3.837945
     39          6           0       -6.316863   -3.632204   -1.848993
     40          8           0       -6.639108   -4.602980   -2.525656
     41          6           0       -5.136832   -3.572026   -0.834362
     42          6           0       -5.279396   -4.593902    0.228064
     43          8           0       -5.790843   -4.419441    1.242005
     44          8           0       -4.928723   -5.817144   -0.301687
     45          6           0       -5.181519   -6.913210    0.604157
     46          6           0        2.255383   -5.039236    0.590483
     47          6           0        3.438593   -4.157721    0.962898
     48          6           0        4.019709   -3.308536    0.131367
     49          6           0        3.731625   -3.057961   -1.392922
     50          6           0        5.229322   -2.451488    0.539225
     51          6           0        6.581675   -2.644026   -0.047161
     52          6           0        7.710153   -1.809373    0.670482
     53          6           0        9.088065   -1.946331   -0.196316
     54          6           0        9.759616   -3.341945    0.229004
     55          6           0        9.966697   -0.780388    0.315761
     56          6           0       11.336928   -0.782830   -0.420916
     57          6           0       12.231523    0.380030    0.109662
     58          6           0       13.669515    0.401912   -0.404960
     59          6           0       14.536629   -0.808274   -0.159549
     60          6           0       14.464792    1.733378   -0.083842
     61          6           0       15.675426    2.100047   -0.954085
     62          6           0       16.245070    3.489560   -0.620685
     63          6           0       17.454406    3.932127   -1.457210
     64          6           0       17.018734    3.989538   -2.953441
     65          6           0       17.934567    5.276189   -0.784657
     66          1           0       -2.555601    1.170979    3.319206
     67          1           0       -6.504183    5.572182    0.839928
     68          1           0       -8.469344    1.233631   -3.445886
     69          1           0       -3.585862   -3.106279    2.175205
     70          1           0       -1.884702   -1.074718    2.636081
     71          1           0       -2.994400   -2.660042    4.539052
     72          1           0       -3.207857   -0.618286    4.521261
     73          1           0       -4.616022   -1.713057    4.195836
     74          1           0       -2.457354   -3.179670   -0.181751
     75          1           0       -1.489318   -1.762961    0.306233
     76          1           0       -0.630498   -2.817352    2.216609
     77          1           0       -1.291054   -4.487985    1.932340
     78          1           0       -1.637904    3.686611    3.954294
     79          1           0       -3.006906    4.846102    4.698297
     80          1           0       -3.016418    3.077929    5.262688
     81          1           0       -5.446280    6.574348    2.203641
     82          1           0      -10.137136    2.775354   -2.950303
     83          1           0       -9.899445    4.621963   -2.943297
     84          1           0       -9.785725    4.119137   -5.216449
     85          1           0       -8.132639    4.727276   -4.642124
     86          1           0       -8.199123    2.916113   -4.664598
     87          1           0       -8.524439   -1.148076   -4.576080
     88          1           0       -8.633248   -2.785524   -3.902851
     89          1           0       -9.607816   -1.412988   -3.526552
     90          1           0       -4.114606   -3.574964   -1.380362
     91          1           0        2.284086   -6.164820    1.091550
     92          1           0        2.343040   -5.192110   -0.602190
     93          1           0        3.723037   -4.049534    2.083909
     94          1           0        2.699090   -3.282072   -1.720587
     95          1           0        3.741144   -2.038979   -1.652834
     96          1           0        4.383167   -3.706784   -1.930336
     97          1           0        4.973072   -1.427776    0.392377
     98          1           0        5.331502   -2.583536    1.721221
     99          1           0        6.807743   -3.765414   -0.002085
    100          1           0        6.359382   -2.572073   -1.096097
    101          1           0        7.356625   -0.786677    0.704073
    102          1           0        8.039436   -2.002010    1.584117
    103          1           0        8.908959   -1.860497   -1.232811
    104          1           0        9.027440   -4.273222   -0.068053
    105          1           0       10.687850   -3.402218   -0.117122
    106          1           0        9.853581   -3.519440    1.304098
    107          1           0        9.311027    0.257624    0.286858
    108          1           0       10.241704   -1.107872    1.431625
    109          1           0       11.918641   -1.765930   -0.326119
    110          1           0       11.149838   -0.607215   -1.500092
    111          1           0       11.634656    1.224709   -0.220188
    112          1           0       12.257523    0.426064    1.389484
    113          1           0       13.655988    0.488743   -1.473918
    114          1           0       14.671412   -1.067192    0.971284
    115          1           0       14.083285   -1.700119   -0.649372
    116          1           0       15.627091   -0.799612   -0.589098
    117          1           0       13.636102    2.543698   -0.325221
    118          1           0       14.693311    1.847851    1.063004
    119          1           0       16.418848    1.308295   -0.944000
    120          1           0       15.127665    2.040326   -2.014710
    121          1           0       15.431005    4.053212   -1.086805
    122          1           0       16.320159    3.802442    0.354662
    123          1           0       18.295312    3.119145   -1.250906
    124          1           0       16.234818    4.647911   -2.991305
    125          1           0       17.877899    4.502266   -3.470876
    126          1           0       16.941170    2.884300   -3.303047
    127          1           0       18.142813    4.905720    0.308415
    128          1           0       18.857696    5.548010   -1.273429
    129          1           0       17.179290    5.975959   -0.809315
    130          1           0       -4.574182   -7.791795    0.357811
    131          1           0       -6.271541   -7.146521    0.700911
    132          1           0       -4.782526   -6.545220    1.736616
    133          8           0       -7.786282    6.709335   -0.467975
    134          1           0       -9.385032    6.313899   -2.021349
 ---------------------------------------------------------------------

 SCF Done:  E(RCAM-B3LYP) =  -3043.45560003     A.U. after   16 cycles

 Excitation energies and oscillator strengths:

 Excited State   1:      Singlet-A      1.9239 eV  644.44 nm  f=0.2178  <S**2>=0.000
     243 -> 246       -0.23197
     244 -> 245        0.65829
 This state for optimization and/or second-order correction.
 Total Energy, E(TD-HF/TD-KS) =  -3043.38489752
 Copying the excited state density for this state as the 1-particle RhoCI density.

 The electronic state is 1-A.
 Alpha  occ. eigenvalues --  -46.81664 -19.23479 -19.22370 -19.18452 -19.18281
 Alpha  occ. eigenvalues --  -19.17978 -19.17143 -19.16647 -14.39300 -14.37594
 Alpha  occ. eigenvalues --  -14.36156 -14.35887 -10.34964 -10.34798 -10.32560
 Alpha  occ. eigenvalues --  -10.32501 -10.30534 -10.30058 -10.28662 -10.28100
 Alpha  occ. eigenvalues --  -10.27093 -10.26921 -10.26558 -10.26031 -10.25905
 Alpha  occ. eigenvalues --  -10.25801 -10.25789 -10.25428 -10.25313 -10.25018
 Alpha  occ. eigenvalues --  -10.24714 -10.24502 -10.24327 -10.24167 -10.24109
 Alpha  occ. eigenvalues --  -10.23924 -10.23884 -10.23816 -10.23723 -10.23588
 Alpha  occ. eigenvalues --  -10.23504 -10.23408 -10.23252 -10.23223 -10.22951
 Alpha  occ. eigenvalues --  -10.22538 -10.22460 -10.22419 -10.22335 -10.22250
 Alpha  occ. eigenvalues --  -10.22068 -10.21993 -10.21810 -10.21791 -10.21660
 Alpha  occ. eigenvalues --  -10.21623 -10.21561 -10.21545 -10.21469 -10.21020
 Alpha  occ. eigenvalues --  -10.20937 -10.20857 -10.20844 -10.20515 -10.20281
 Alpha  occ. eigenvalues --  -10.19410  -3.10134  -1.85084  -1.84640  -1.84501
 Alpha  occ. eigenvalues --   -1.15375  -1.14550  -1.07191  -1.06877  -1.06810
 Alpha  occ. eigenvalues --   -1.05573  -1.04666  -1.01574  -0.99875  -0.99253
 Alpha  occ. eigenvalues --   -0.97341  -0.89052  -0.86432  -0.86191  -0.85654
 Alpha  occ. eigenvalues --   -0.84784  -0.84257  -0.83878  -0.83427  -0.82741
 Alpha  occ. eigenvalues --   -0.82507  -0.82025  -0.81725  -0.80117  -0.79742
 Alpha  occ. eigenvalues --   -0.79148  -0.77870  -0.77395  -0.77241  -0.76252
 Alpha  occ. eigenvalues --   -0.75109  -0.74848  -0.73526  -0.72471  -0.72171
 Alpha  occ. eigenvalues --   -0.71482  -0.71391  -0.70660  -0.69860  -0.69523
 Alpha  occ. eigenvalues --   -0.69335  -0.68955  -0.67208  -0.66579  -0.66348
 Alpha  occ. eigenvalues --   -0.65187  -0.64515  -0.64387  -0.62772  -0.62227
 Alpha  occ. eigenvalues --   -0.62126  -0.61014  -0.60320  -0.58921  -0.58528
 Alpha  occ. eigenvalues --   -0.58285  -0.57884  -0.57413  -0.56929  -0.56651
 Alpha  occ. eigenvalues --   -0.56268  -0.56096  -0.55352  -0.55181  -0.54757
 Alpha  occ. eigenvalues --   -0.54387  -0.53532  -0.52928  -0.52428  -0.52087
 Alpha  occ. eigenvalues --   -0.52020  -0.51716  -0.51121  -0.50756  -0.50569
 Alpha  occ. eigenvalues --   -0.50194  -0.50067  -0.49685  -0.49466  -0.49276
 Alpha  occ. eigenvalues --   -0.48833  -0.48244  -0.48139  -0.48057  -0.47825
 Alpha  occ. eigenvalues --   -0.47478  -0.47306  -0.47126  -0.46777  -0.46730
 Alpha  occ. eigenvalues --   -0.46335  -0.46177  -0.46061  -0.45875  -0.45785
 Alpha  occ. eigenvalues --   -0.45677  -0.45541  -0.45390  -0.45214  -0.45057
 Alpha  occ. eigenvalues --   -0.44895  -0.44845  -0.44637  -0.44372  -0.43914
 Alpha  occ. eigenvalues --   -0.43798  -0.43411  -0.43122  -0.42965  -0.42834
 Alpha  occ. eigenvalues --   -0.42590  -0.42486  -0.42253  -0.42114  -0.41827
 Alpha  occ. eigenvalues --   -0.41616  -0.41458  -0.41337  -0.41288  -0.40938
 Alpha  occ. eigenvalues --   -0.40887  -0.40655  -0.40477  -0.40412  -0.39944
 Alpha  occ. eigenvalues --   -0.39558  -0.39510  -0.39488  -0.39289  -0.39085
 Alpha  occ. eigenvalues --   -0.38968  -0.38703  -0.38561  -0.38434  -0.38076
 Alpha  occ. eigenvalues --   -0.37967  -0.37860  -0.37413  -0.37274  -0.36859
 Alpha  occ. eigenvalues --   -0.36767  -0.36589  -0.36157  -0.35864  -0.35473
 Alpha  occ. eigenvalues --   -0.35310  -0.35240  -0.34600  -0.34449  -0.34080
 Alpha  occ. eigenvalues --   -0.34041  -0.33754  -0.33724  -0.33649  -0.33536
 Alpha  occ. eigenvalues --   -0.33265  -0.32819  -0.32538  -0.32279  -0.31897
 Alpha  occ. eigenvalues --   -0.31705  -0.31188  -0.30464  -0.30140  -0.29857
 Alpha  occ. eigenvalues --   -0.29248  -0.28697  -0.28491  -0.28275  -0.28084
 Alpha  occ. eigenvalues --   -0.27281  -0.26823  -0.22986  -0.21468
 Alpha virt. eigenvalues --   -0.09076  -0.06489  -0.02093  -0.00949   0.00185
 Alpha virt. eigenvalues --    0.02929   0.03203   0.03739   0.03925   0.04215
 Alpha virt. eigenvalues --    0.04682   0.05097   0.07559   0.08447   0.08976

 Mulliken charges:
               1
     1  Mg   0.819987
     2  C    0.040425
     3  C   -0.177619
     4  C   -0.125761
     5  C   -0.187276
     6  N   -0.640450
     7  C    0.313801
     8  C   -0.162946
     9  C   -0.125856
    10  C    0.306989
    11  C   -0.302846
    12  C   -0.167129
    13  C   -0.260277
    14  C    0.593186
    15  O   -0.476666
    16  O   -0.439614
    17  N   -0.702277
    18  C    0.276738
    19  C    0.080064
    20  C   -0.091482
    21  C    0.341987
    22  C   -0.376274
    23  C    0.262287
    24  O   -0.427450
    25  N   -0.656468
    26  C    0.275756
    27  C   -0.016714
    28  C    0.062447
    29  C    0.293272
    30  C    0.228407
    31  C   -0.246788
    32  C   -0.303819
    33  N   -0.754186
    34  C    0.329864
    35  C   -0.068254
    36  C    0.021961
    37  C    0.304298
    38  C   -0.351690
    39  C    0.390951
    40  O   -0.441659
    41  C   -0.320243
    42  C    0.627381
    43  O   -0.416344
    44  O   -0.461109
    45  C   -0.085776
    46  C    0.004564
    47  C   -0.134091
    48  C    0.137400
    49  C   -0.394032
    50  C   -0.225389
    51  C   -0.173095
    52  C   -0.157819
    53  C   -0.066677
    54  C   -0.315350
    55  C   -0.154042
    56  C   -0.192566
    57  C   -0.147823
    58  C   -0.041836
    59  C   -0.308204
    60  C   -0.170468
    61  C   -0.182115
    62  C   -0.146488
    63  C   -0.070667
    64  C   -0.302115
    65  C   -0.309464
    66  H    0.063211
    67  H    0.117838
    68  H    0.090670
    69  H    0.123833
    70  H    0.113412
    71  H    0.112033
    72  H    0.099373
    73  H    0.118643
    74  H    0.118258
    75  H    0.132367
    76  H    0.122429
    77  H    0.139683
    78  H    0.105539
    79  H    0.162124
    80  H    0.107323
    81  H    0.073465
    82  H    0.112387
    83  H    0.097465
    84  H    0.132272
    85  H    0.092182
    86  H    0.120158
    87  H    0.129873
    88  H    0.145868
    89  H    0.122975
    90  H    0.170834
    91  H    0.088735
    92  H    0.124673
    93  H    0.081829
    94  H    0.137964
    95  H    0.123745
    96  H    0.131010
    97  H    0.104172
    98  H    0.063035
    99  H    0.084143
   100  H    0.101114
   101  H    0.085130
   102  H    0.108215
   103  H    0.092790
   104  H    0.079685
   105  H    0.116080
   106  H    0.104369
   107  H    0.073756
   108  H    0.076978
   109  H    0.095028
   110  H    0.094002
   111  H    0.098772
   112  H    0.049942
   113  H    0.084718
   114  H    0.087805
   115  H    0.095547
   116  H    0.094335
   117  H    0.065376
   118  H    0.068645
   119  H    0.091684
   120  H    0.075810
   121  H    0.089554
   122  H    0.092803
   123  H    0.060860
   124  H    0.113218
   125  H    0.091037
   126  H    0.109086
   127  H    0.091136
   128  H    0.103575
   129  H    0.113499
   130  H    0.130445
   131  H    0.136248
   132  H    0.090076
   133  O   -0.411805
   134  H    0.054417
 Sum of Mulliken charges =   0.00000

 Dipole moment (field-independent basis, Debye):
    X=              1.7225    Y=             -4.6150    Z=             -1.7028  Tot=              5.2120
 Quadrupole moment (field-independent basis, Debye-Ang):
   XX=           -372.3614   YY=           -440.6646   ZZ=           -399.5575
   XY=              4.7395   XZ=             18.2244   YZ=            -41.7847

 Normal termination of Gaussian 09 at Fri Oct  4 11:00:26 2019.
