 Gaussian 09, Revision D.01,
 Gaussian 09:  ES64L-G09RevD.01 24-Apr-2013

 ----------------------------------------------------------------------
 # td=(NStates=1) iop(3/107=0140000000,3/108=0140000000) iop(3/107=0140
 000000,3/108=0140000000) CAM-B3LYP/6-31G(d,p)
 ----------------------------------------------------------------------

 --
 TD
 --
 Symbolic Z-matrix:
 Charge =  0 Multiplicity = 1

                         Standard orientation:
 ---------------------------------------------------------------------
 Center     Atomic      Atomic             Coordinates (Angstroms)
 Number     Number       Type             X           Y           Z
 ---------------------------------------------------------------------
      1         12           0       -5.593733    1.238835    0.166830
      2          6           0       -5.073380   -2.172615   -0.363113
      3          6           0       -3.356698    1.132216    2.703707
      4          6           0       -6.241417    4.532077    0.665847
      5          6           0       -8.104189    1.136650   -2.412812
      6          7           0       -4.405807   -0.322742    1.039963
      7          6           0       -4.263381   -1.552782    0.708563
      8          6           0       -3.226180   -2.309477    1.493503
      9          6           0       -2.907378   -1.277415    2.619221
     10          6           0       -3.619133   -0.072371    2.103810
     11          6           0       -3.263975   -1.746146    4.013089
     12          6           0       -1.978619   -2.643182    0.685439
     13          6           0       -0.959859   -3.523548    1.348031
     14          6           0        0.180271   -3.903339    0.462415
     15          8           0        0.436059   -3.498555   -0.590670
     16          8           0        0.959018   -4.806025    1.189777
     17          7           0       -4.925055    2.609997    1.476057
     18          6           0       -3.955920    2.460407    2.479374
     19          6           0       -3.766715    3.619238    3.129730
     20          6           0       -4.593727    4.603269    2.590955
     21          6           0       -5.364922    3.893215    1.556725
     22          6           0       -2.774632    3.860545    4.228878
     23          6           0       -4.742376    5.996613    2.900402
     24          8           0       -4.101389    6.597846    3.829952
     25          7           0       -6.970231    2.558985   -0.671022
     26          6           0       -7.008607    3.928575   -0.344190
     27          6           0       -7.942190    4.613193   -1.161357
     28          6           0       -8.436430    3.661545   -2.098148
     29          6           0       -7.880169    2.377369   -1.762584
     30          6           0       -8.250692    6.048494   -1.123672
     31          6           0       -9.464825    3.864190   -3.170460
     32          6           0       -8.793284    3.975296   -4.573019
     33          7           0       -6.319794   -0.166204   -1.168599
     34          6           0       -7.383020   -0.034892   -2.102283
     35          6           0       -7.623807   -1.300673   -2.717191
     36          6           0       -6.738129   -2.240578   -2.082901
     37          6           0       -6.009020   -1.393634   -1.132079
     38          6           0       -8.588316   -1.658248   -3.719930
     39          6           0       -6.244493   -3.590446   -1.906478
     40          8           0       -6.727708   -4.582082   -2.571289
     41          6           0       -5.032161   -3.518105   -0.895910
     42          6           0       -5.306232   -4.615604    0.064005
     43          8           0       -5.690490   -4.447557    1.231474
     44          8           0       -5.027800   -5.868859   -0.418371
     45          6           0       -5.150824   -6.889162    0.673541
     46          6           0        2.261152   -5.038583    0.542030
     47          6           0        3.288009   -4.076532    1.071375
     48          6           0        4.014524   -3.146461    0.356228
     49          6           0        3.710828   -3.009671   -1.202526
     50          6           0        5.209581   -2.373401    0.755378
     51          6           0        6.608227   -2.831442    0.197454
     52          6           0        7.712172   -1.870844    0.612292
     53          6           0        8.956041   -2.023250   -0.158681
     54          6           0        9.632012   -3.425217   -0.022279
     55          6           0       10.038332   -0.949063    0.387602
     56          6           0       11.388254   -0.889049   -0.264508
     57          6           0       12.320281    0.241837    0.161272
     58          6           0       13.626135    0.568438   -0.571654
     59          6           0       14.476282   -0.721637   -0.401631
     60          6           0       14.186434    1.898379   -0.230771
     61          6           0       15.480590    2.188808   -1.011389
     62          6           0       16.051448    3.626560   -0.725330
     63          6           0       17.424368    3.966685   -1.349224
     64          6           0       17.363571    3.916231   -2.776378
     65          6           0       17.930723    5.174839   -0.726027
     66          1           0       -2.569384    1.208187    3.534076
     67          1           0       -6.347794    5.608764    0.725644
     68          1           0       -8.983038    1.241592   -3.264841
     69          1           0       -3.595409   -3.253071    1.989421
     70          1           0       -1.728692   -1.069279    2.545940
     71          1           0       -2.731821   -2.684121    4.319323
     72          1           0       -3.160645   -1.112060    4.896451
     73          1           0       -4.225853   -2.069186    4.033378
     74          1           0       -2.413875   -3.218311   -0.076890
     75          1           0       -1.640840   -1.877611    0.070992
     76          1           0       -0.583561   -3.006673    2.279950
     77          1           0       -1.380837   -4.544213    1.611967
     78          1           0       -1.772501    3.672355    4.007697
     79          1           0       -2.744521    4.848594    4.565256
     80          1           0       -2.941339    2.983409    4.965350
     81          1           0       -5.490487    6.467864    2.228355
     82          1           0      -10.017091    2.947212   -3.285477
     83          1           0      -10.012420    4.668830   -2.940762
     84          1           0       -9.545906    4.209551   -5.305283
     85          1           0       -8.243016    5.122521   -4.657918
     86          1           0       -8.187341    3.173829   -4.738614
     87          1           0       -8.153542   -1.375958   -4.892597
     88          1           0       -8.827240   -2.744105   -3.562840
     89          1           0       -9.691014   -1.133292   -3.608653
     90          1           0       -4.225320   -3.733952   -1.366388
     91          1           0        2.635870   -6.040012    0.899937
     92          1           0        2.263642   -5.026873   -0.633225
     93          1           0        3.616902   -4.020666    2.133134
     94          1           0        2.704922   -3.063772   -1.511908
     95          1           0        4.039224   -2.059312   -1.616117
     96          1           0        4.365442   -3.631543   -1.552807
     97          1           0        4.879353   -1.349811    0.583348
     98          1           0        5.161977   -2.514173    1.783625
     99          1           0        6.927646   -3.903456    0.401768
    100          1           0        6.610177   -2.696892   -0.923867
    101          1           0        7.359371   -0.805055    0.378394
    102          1           0        7.908912   -2.018500    1.730101
    103          1           0        8.671800   -1.868315   -1.251289
    104          1           0        8.786643   -4.084950   -0.227453
    105          1           0       10.560419   -3.530093   -0.684984
    106          1           0        9.736995   -3.488558    1.175653
    107          1           0        9.554245    0.004244    0.343830
    108          1           0       10.188680   -1.281810    1.523892
    109          1           0       11.951793   -1.867926   -0.027613
    110          1           0       11.161390   -0.769991   -1.352887
    111          1           0       11.700051    1.196030    0.090848
    112          1           0       12.465594    0.238854    1.377375
    113          1           0       13.423462    0.679241   -1.480676
    114          1           0       14.537229   -0.923095    0.722979
    115          1           0       13.947845   -1.572353   -0.791615
    116          1           0       15.345725   -0.763515   -1.105497
    117          1           0       13.433747    2.665406   -0.471937
    118          1           0       14.569823    1.901096    0.885944
    119          1           0       16.044916    1.443974   -0.542876
    120          1           0       15.321619    2.020044   -2.184146
    121          1           0       15.354505    4.415240   -0.949970
    122          1           0       16.042619    3.519719    0.302559
    123          1           0       18.044200    3.132949   -0.968777
    124          1           0       16.823088    4.846691   -3.225057
    125          1           0       18.443591    4.196465   -3.105717
    126          1           0       17.006856    3.044200   -3.101789
    127          1           0       17.957554    5.308984    0.432666
    128          1           0       18.892517    5.055312   -1.225015
    129          1           0       17.289982    6.007666   -1.124945
    130          1           0       -4.672129   -7.713521    0.258669
    131          1           0       -6.228476   -7.222099    0.965036
    132          1           0       -4.511185   -6.620730    1.568395
    133          8           0       -7.803745    6.827719   -0.357774
    134          1           0       -8.872823    6.500032   -1.839116
 ---------------------------------------------------------------------

 SCF Done:  E(RCAM-B3LYP) =  -3043.50369289     A.U. after   16 cycles

 Excitation energies and oscillator strengths:

 Excited State   1:      Singlet-A      2.0002 eV  619.84 nm  f=0.1756  <S**2>=0.000
     243 -> 245       -0.23696
     243 -> 246       -0.27338
     244 -> 245        0.58202
     244 -> 246       -0.14134
 This state for optimization and/or second-order correction.
 Total Energy, E(TD-HF/TD-KS) =  -3043.43018512
 Copying the excited state density for this state as the 1-particle RhoCI density.

 The electronic state is 1-A.
 Alpha  occ. eigenvalues --  -46.82307 -19.23151 -19.21695 -19.18614 -19.17290
 Alpha  occ. eigenvalues --  -19.17104 -19.17042 -19.16423 -14.39691 -14.37310
 Alpha  occ. eigenvalues --  -14.37137 -14.37070 -10.35232 -10.34961 -10.32166
 Alpha  occ. eigenvalues --  -10.29978 -10.29899 -10.28593 -10.28581 -10.27985
 Alpha  occ. eigenvalues --  -10.27501 -10.27329 -10.26925 -10.26826 -10.26458
 Alpha  occ. eigenvalues --  -10.26420 -10.26309 -10.25995 -10.25948 -10.25330
 Alpha  occ. eigenvalues --  -10.24998 -10.24771 -10.24628 -10.24581 -10.24372
 Alpha  occ. eigenvalues --  -10.24271 -10.24086 -10.24059 -10.23422 -10.23247
 Alpha  occ. eigenvalues --  -10.23184 -10.23138 -10.23121 -10.22965 -10.22928
 Alpha  occ. eigenvalues --  -10.22666 -10.22315 -10.22230 -10.21920 -10.21817
 Alpha  occ. eigenvalues --  -10.21732 -10.21666 -10.21628 -10.21584 -10.21576
 Alpha  occ. eigenvalues --  -10.21505 -10.21096 -10.20757 -10.20757 -10.20543
 Alpha  occ. eigenvalues --  -10.20356 -10.20212 -10.20097 -10.19709 -10.19007
 Alpha  occ. eigenvalues --  -10.18542  -3.10790  -1.85736  -1.85261  -1.85190
 Alpha  occ. eigenvalues --   -1.14474  -1.12218  -1.09561  -1.05985  -1.03805
 Alpha  occ. eigenvalues --   -1.03327  -1.03202  -1.02746  -1.01348  -0.99809
 Alpha  occ. eigenvalues --   -0.97545  -0.89665  -0.87163  -0.86505  -0.86174
 Alpha  occ. eigenvalues --   -0.85902  -0.85276  -0.84928  -0.84498  -0.84168
 Alpha  occ. eigenvalues --   -0.83857  -0.83240  -0.82114  -0.80715  -0.80292
 Alpha  occ. eigenvalues --   -0.79223  -0.78433  -0.77748  -0.77099  -0.76755
 Alpha  occ. eigenvalues --   -0.75570  -0.74944  -0.74229  -0.73488  -0.72837
 Alpha  occ. eigenvalues --   -0.72038  -0.72013  -0.70787  -0.70501  -0.69981
 Alpha  occ. eigenvalues --   -0.69692  -0.69404  -0.67817  -0.67072  -0.66845
 Alpha  occ. eigenvalues --   -0.66562  -0.65286  -0.64318  -0.62934  -0.62689
 Alpha  occ. eigenvalues --   -0.62353  -0.60847  -0.59086  -0.58989  -0.58689
 Alpha  occ. eigenvalues --   -0.58604  -0.58511  -0.57905  -0.57550  -0.57379
 Alpha  occ. eigenvalues --   -0.56566  -0.55921  -0.55690  -0.55435  -0.55049
 Alpha  occ. eigenvalues --   -0.54512  -0.53919  -0.53691  -0.53424  -0.52597
 Alpha  occ. eigenvalues --   -0.51997  -0.51719  -0.51434  -0.51365  -0.51118
 Alpha  occ. eigenvalues --   -0.50793  -0.50430  -0.50314  -0.49916  -0.49807
 Alpha  occ. eigenvalues --   -0.49548  -0.48895  -0.48751  -0.48360  -0.48182
 Alpha  occ. eigenvalues --   -0.48038  -0.47870  -0.47824  -0.47255  -0.47105
 Alpha  occ. eigenvalues --   -0.46999  -0.46729  -0.46355  -0.46092  -0.45913
 Alpha  occ. eigenvalues --   -0.45709  -0.45577  -0.45572  -0.45364  -0.44990
 Alpha  occ. eigenvalues --   -0.44925  -0.44585  -0.44130  -0.44100  -0.43952
 Alpha  occ. eigenvalues --   -0.43668  -0.43586  -0.43532  -0.43233  -0.43212
 Alpha  occ. eigenvalues --   -0.42912  -0.42876  -0.42506  -0.42458  -0.42114
 Alpha  occ. eigenvalues --   -0.41997  -0.41725  -0.41617  -0.41331  -0.41053
 Alpha  occ. eigenvalues --   -0.40908  -0.40750  -0.40606  -0.40356  -0.40099
 Alpha  occ. eigenvalues --   -0.39941  -0.39729  -0.39675  -0.39515  -0.39312
 Alpha  occ. eigenvalues --   -0.39073  -0.39041  -0.39021  -0.38931  -0.38749
 Alpha  occ. eigenvalues --   -0.38553  -0.38443  -0.38365  -0.37902  -0.37684
 Alpha  occ. eigenvalues --   -0.36820  -0.36510  -0.36457  -0.36264  -0.35848
 Alpha  occ. eigenvalues --   -0.35612  -0.35279  -0.35043  -0.34660  -0.34588
 Alpha  occ. eigenvalues --   -0.34484  -0.34194  -0.33810  -0.33529  -0.33436
 Alpha  occ. eigenvalues --   -0.33024  -0.32643  -0.32481  -0.32345  -0.31896
 Alpha  occ. eigenvalues --   -0.31716  -0.31630  -0.30662  -0.30262  -0.29899
 Alpha  occ. eigenvalues --   -0.28545  -0.28280  -0.27808  -0.27654  -0.27458
 Alpha  occ. eigenvalues --   -0.27335  -0.26549  -0.23006  -0.22381
 Alpha virt. eigenvalues --   -0.09610  -0.07149  -0.02144  -0.00877   0.00415
 Alpha virt. eigenvalues --    0.02633   0.02821   0.03477   0.03934   0.04323
 Alpha virt. eigenvalues --    0.05128   0.05290   0.07107   0.07921   0.08581

 Mulliken charges:
               1
     1  Mg   0.830582
     2  C    0.074847
     3  C   -0.194678
     4  C   -0.164675
     5  C   -0.174045
     6  N   -0.619081
     7  C    0.343449
     8  C   -0.175452
     9  C   -0.137324
    10  C    0.355522
    11  C   -0.323667
    12  C   -0.179728
    13  C   -0.267116
    14  C    0.613871
    15  O   -0.419976
    16  O   -0.489352
    17  N   -0.727246
    18  C    0.304377
    19  C    0.042503
    20  C   -0.005255
    21  C    0.305530
    22  C   -0.381047
    23  C    0.233409
    24  O   -0.459643
    25  N   -0.709984
    26  C    0.305296
    27  C   -0.027409
    28  C    0.013525
    29  C    0.290023
    30  C    0.255782
    31  C   -0.237932
    32  C   -0.301232
    33  N   -0.731826
    34  C    0.278760
    35  C    0.038186
    36  C    0.071409
    37  C    0.318761
    38  C   -0.384985
    39  C    0.326157
    40  O   -0.489250
    41  C   -0.303920
    42  C    0.624616
    43  O   -0.487003
    44  O   -0.460783
    45  C   -0.086783
    46  C   -0.015548
    47  C   -0.116667
    48  C    0.069863
    49  C   -0.380939
    50  C   -0.212970
    51  C   -0.182793
    52  C   -0.145582
    53  C   -0.076111
    54  C   -0.295023
    55  C   -0.152075
    56  C   -0.165566
    57  C   -0.176068
    58  C   -0.010495
    59  C   -0.329255
    60  C   -0.180510
    61  C   -0.192528
    62  C   -0.158545
    63  C   -0.059274
    64  C   -0.280289
    65  C   -0.283473
    66  H    0.084626
    67  H    0.140429
    68  H    0.103440
    69  H    0.128346
    70  H    0.094474
    71  H    0.104427
    72  H    0.115289
    73  H    0.136683
    74  H    0.108606
    75  H    0.128168
    76  H    0.140529
    77  H    0.135711
    78  H    0.129492
    79  H    0.161286
    80  H    0.102640
    81  H    0.090209
    82  H    0.114771
    83  H    0.115387
    84  H    0.121441
    85  H    0.071950
    86  H    0.125891
    87  H    0.109375
    88  H    0.157290
    89  H    0.099247
    90  H    0.165930
    91  H    0.117517
    92  H    0.131891
    93  H    0.069515
    94  H    0.141557
    95  H    0.090393
    96  H    0.133802
    97  H    0.114435
    98  H    0.099503
    99  H    0.104837
   100  H    0.091921
   101  H    0.089086
   102  H    0.082769
   103  H    0.071743
   104  H    0.097382
   105  H    0.112434
   106  H    0.079636
   107  H    0.087432
   108  H    0.066672
   109  H    0.087868
   110  H    0.086270
   111  H    0.067681
   112  H    0.056476
   113  H    0.090142
   114  H    0.098320
   115  H    0.109539
   116  H    0.095689
   117  H    0.090786
   118  H    0.068818
   119  H    0.111391
   120  H    0.059107
   121  H    0.079436
   122  H    0.087361
   123  H    0.080648
   124  H    0.084637
   125  H    0.079367
   126  H    0.119401
   127  H    0.097706
   128  H    0.095227
   129  H    0.090047
   130  H    0.131218
   131  H    0.134022
   132  H    0.125907
   133  O   -0.400047
   134  H    0.061459
 Sum of Mulliken charges =   0.00000

 Dipole moment (field-independent basis, Debye):
    X=              1.8578    Y=             -4.0635    Z=             -2.3495  Tot=              5.0481
 Quadrupole moment (field-independent basis, Debye-Ang):
   XX=           -381.3735   YY=           -446.1369   ZZ=           -398.5895
   XY=             -4.7008   XZ=             23.1142   YZ=            -43.3865

 Normal termination of Gaussian 09 at Thu Oct  3 20:21:48 2019.
