 Gaussian 09, Revision D.01,
 Gaussian 09:  ES64L-G09RevD.01 24-Apr-2013

 ----------------------------------------------------------------------
 # td=(NStates=1) iop(3/107=0140000000,3/108=0140000000) iop(3/107=0140
 000000,3/108=0140000000) CAM-B3LYP/6-31G(d,p)
 ----------------------------------------------------------------------

 --
 TD
 --
 Symbolic Z-matrix:
 Charge =  0 Multiplicity = 1

                         Standard orientation:
 ---------------------------------------------------------------------
 Center     Atomic      Atomic             Coordinates (Angstroms)
 Number     Number       Type             X           Y           Z
 ---------------------------------------------------------------------
      1         12           0       -5.744125    1.230170    0.179809
      2          6           0       -5.112995   -2.148115   -0.348871
      3          6           0       -3.495637    1.092751    2.769970
      4          6           0       -6.193656    4.509857    0.611220
      5          6           0       -8.169355    1.192542   -2.191134
      6          7           0       -4.430658   -0.298210    1.021479
      7          6           0       -4.240877   -1.618790    0.665300
      8          6           0       -3.258111   -2.330041    1.426427
      9          6           0       -2.978758   -1.367887    2.526023
     10          6           0       -3.573545   -0.028679    2.077198
     11          6           0       -3.429569   -1.816731    3.971240
     12          6           0       -2.031650   -2.758979    0.518870
     13          6           0       -0.991359   -3.474867    1.372368
     14          6           0        0.258467   -3.830267    0.603744
     15          8           0        0.542687   -3.474313   -0.632122
     16          8           0        1.092197   -4.606543    1.258783
     17          7           0       -4.957333    2.575822    1.523080
     18          6           0       -4.055443    2.395086    2.493502
     19          6           0       -3.724332    3.608022    3.247117
     20          6           0       -4.505579    4.576401    2.599626
     21          6           0       -5.304663    3.881661    1.538444
     22          6           0       -2.819425    3.583544    4.351618
     23          6           0       -4.544496    6.033513    2.876147
     24          8           0       -3.904134    6.485472    3.773203
     25          7           0       -6.973930    2.576208   -0.621770
     26          6           0       -6.996990    3.957080   -0.325625
     27          6           0       -7.956807    4.520574   -1.165090
     28          6           0       -8.586966    3.616939   -2.062787
     29          6           0       -7.915498    2.436840   -1.616612
     30          6           0       -8.283976    6.072847   -1.239624
     31          6           0       -9.531919    3.761287   -3.111182
     32          6           0       -8.771903    4.101904   -4.339883
     33          7           0       -6.452337   -0.140261   -1.087387
     34          6           0       -7.433117    0.011982   -2.072772
     35          6           0       -7.760422   -1.295833   -2.669714
     36          6           0       -6.788019   -2.162269   -2.090131
     37          6           0       -6.043042   -1.378812   -1.060658
     38          6           0       -8.685181   -1.560916   -3.858961
     39          6           0       -6.265952   -3.556141   -2.123285
     40          8           0       -6.718684   -4.538699   -2.702034
     41          6           0       -5.063156   -3.554860   -0.991550
     42          6           0       -5.387120   -4.640194    0.113447
     43          8           0       -5.773922   -4.488656    1.270145
     44          8           0       -5.061867   -5.867077   -0.423067
     45          6           0       -5.526609   -6.938981    0.384551
     46          6           0        2.349953   -4.891644    0.736877
     47          6           0        3.426079   -3.856401    1.003823
     48          6           0        4.101053   -3.075825    0.181429
     49          6           0        3.705194   -3.078115   -1.326717
     50          6           0        5.284495   -2.199444    0.627134
     51          6           0        6.619795   -2.672848    0.069936
     52          6           0        7.728271   -1.687580    0.649190
     53          6           0        9.087539   -1.895247   -0.029383
     54          6           0        9.604945   -3.335611    0.078150
     55          6           0       10.018416   -0.940345    0.693823
     56          6           0       11.433368   -0.808976   -0.050490
     57          6           0       12.453792    0.246508    0.329433
     58          6           0       13.709551    0.330400   -0.521017
     59          6           0       14.700004   -0.878191   -0.381068
     60          6           0       14.439466    1.701761   -0.194603
     61          6           0       15.564686    1.960288   -1.006009
     62          6           0       16.154927    3.427329   -0.765132
     63          6           0       17.396530    3.908754   -1.435281
     64          6           0       17.155218    4.034836   -2.965222
     65          6           0       17.842864    5.228491   -0.926652
     66          1           0       -2.644610    1.086302    3.500172
     67          1           0       -6.071464    5.655639    0.838678
     68          1           0       -8.948926    0.944165   -3.081652
     69          1           0       -3.906127   -3.130862    1.843155
     70          1           0       -1.789747   -1.207966    2.552618
     71          1           0       -2.927052   -2.732291    4.262141
     72          1           0       -3.127296   -1.092765    4.711678
     73          1           0       -4.545231   -2.061173    4.064954
     74          1           0       -2.391800   -3.598866   -0.197370
     75          1           0       -1.522922   -1.759908    0.314830
     76          1           0       -0.723426   -2.992609    2.227708
     77          1           0       -1.479636   -4.418920    1.839224
     78          1           0       -1.640471    3.300643    4.172814
     79          1           0       -2.872975    4.658027    4.969831
     80          1           0       -3.343570    2.889025    5.211051
     81          1           0       -5.061139    6.706663    2.062971
     82          1           0       -9.982989    2.842362   -2.978015
     83          1           0      -10.095463    4.697057   -2.690287
     84          1           0       -9.363976    4.316693   -5.253363
     85          1           0       -8.042569    5.134717   -4.571451
     86          1           0       -8.280259    3.137781   -4.575250
     87          1           0       -8.355794   -1.015066   -4.716526
     88          1           0       -8.602150   -2.557817   -4.184454
     89          1           0       -9.625438   -1.393170   -3.499430
     90          1           0       -4.206546   -3.822509   -1.451229
     91          1           0        2.807705   -5.792677    1.243537
     92          1           0        2.260211   -4.832945   -0.344245
     93          1           0        3.684049   -3.922498    2.085901
     94          1           0        2.585168   -3.093054   -1.405573
     95          1           0        4.410441   -2.087920   -1.994346
     96          1           0        4.221729   -4.013472   -1.880103
     97          1           0        5.155384   -1.209844    0.394550
     98          1           0        5.249549   -2.045464    1.815711
     99          1           0        6.840760   -3.703553    0.211591
    100          1           0        6.622229   -2.449343   -1.049190
    101          1           0        7.672512   -0.566530    0.421835
    102          1           0        7.853479   -1.842094    1.751939
    103          1           0        8.862728   -1.628774   -0.893254
    104          1           0        8.875916   -4.026014   -0.382771
    105          1           0       10.472943   -3.725515   -0.407381
    106          1           0        9.767043   -3.542421    1.219796
    107          1           0        9.680314    0.027554    0.603470
    108          1           0       10.070647   -1.398374    1.826503
    109          1           0       12.140651   -1.731589   -0.116196
    110          1           0       11.257809   -0.811377   -1.173707
    111          1           0       11.974891    1.145569    0.340144
    112          1           0       12.883579    0.269599    1.373452
    113          1           0       13.427683    0.329948   -1.643461
    114          1           0       15.250462   -0.727960    0.580212
    115          1           0       14.103373   -1.738345   -0.427056
    116          1           0       15.616334   -0.942874   -0.883568
    117          1           0       13.818524    2.377382   -0.625612
    118          1           0       14.497685    1.659466    0.883023
    119          1           0       16.603213    1.336112   -0.694635
    120          1           0       15.345464    1.739600   -1.938009
    121          1           0       15.279618    4.057815   -1.013833
    122          1           0       16.373548    3.421688    0.424033
    123          1           0       18.206306    3.217744   -1.431116
    124          1           0       16.359007    4.759533   -3.363995
    125          1           0       18.065637    4.256589   -3.634015
    126          1           0       16.803668    3.087400   -3.125317
    127          1           0       17.966399    5.266519    0.239188
    128          1           0       18.905360    5.398227   -1.370429
    129          1           0       17.092089    5.988453   -1.216052
    130          1           0       -5.513630   -7.850899   -0.159806
    131          1           0       -6.602928   -6.725703    0.559426
    132          1           0       -5.151629   -6.830311    1.346509
    133          8           0       -7.687654    6.830803   -0.484018
    134          1           0       -9.174951    6.378699   -1.895505
 ---------------------------------------------------------------------

 SCF Done:  E(RCAM-B3LYP) =  -3043.40989769     A.U. after   16 cycles

 Excitation energies and oscillator strengths:

 Excited State   1:      Singlet-A      2.0595 eV  602.01 nm  f=0.2006  <S**2>=0.000
     243 -> 246        0.26392
     244 -> 245        0.64776
 This state for optimization and/or second-order correction.
 Total Energy, E(TD-HF/TD-KS) =  -3043.33421226
 Copying the excited state density for this state as the 1-particle RhoCI density.

 The electronic state is 1-A.
 Alpha  occ. eigenvalues --  -46.80886 -19.23981 -19.22645 -19.18592 -19.17941
 Alpha  occ. eigenvalues --  -19.17855 -19.17146 -19.16875 -14.38267 -14.36808
 Alpha  occ. eigenvalues --  -14.36575 -14.36205 -10.36443 -10.36007 -10.32336
 Alpha  occ. eigenvalues --  -10.31719 -10.30567 -10.27682 -10.27567 -10.26422
 Alpha  occ. eigenvalues --  -10.26257 -10.26223 -10.26159 -10.26026 -10.26018
 Alpha  occ. eigenvalues --  -10.25985 -10.25932 -10.25624 -10.25595 -10.25260
 Alpha  occ. eigenvalues --  -10.25171 -10.24964 -10.24864 -10.24602 -10.24220
 Alpha  occ. eigenvalues --  -10.24209 -10.24190 -10.24108 -10.24035 -10.23743
 Alpha  occ. eigenvalues --  -10.23731 -10.23551 -10.23355 -10.23196 -10.23137
 Alpha  occ. eigenvalues --  -10.23088 -10.22806 -10.22052 -10.22009 -10.21996
 Alpha  occ. eigenvalues --  -10.21977 -10.21956 -10.21894 -10.21779 -10.21705
 Alpha  occ. eigenvalues --  -10.21626 -10.20866 -10.20841 -10.20809 -10.20534
 Alpha  occ. eigenvalues --  -10.20532 -10.19989 -10.19925 -10.19793 -10.19142
 Alpha  occ. eigenvalues --  -10.19060  -3.09576  -1.84509  -1.84052  -1.83988
 Alpha  occ. eigenvalues --   -1.15430  -1.13301  -1.08246  -1.06825  -1.06651
 Alpha  occ. eigenvalues --   -1.05031  -1.00838  -1.00644  -1.00030  -0.99414
 Alpha  occ. eigenvalues --   -0.98646  -0.87723  -0.87319  -0.86651  -0.86356
 Alpha  occ. eigenvalues --   -0.85930  -0.84732  -0.84321  -0.83804  -0.83539
 Alpha  occ. eigenvalues --   -0.83131  -0.82917  -0.82319  -0.80478  -0.79999
 Alpha  occ. eigenvalues --   -0.79295  -0.78298  -0.77583  -0.76953  -0.76311
 Alpha  occ. eigenvalues --   -0.75188  -0.74911  -0.74140  -0.72776  -0.72041
 Alpha  occ. eigenvalues --   -0.71361  -0.70619  -0.70436  -0.69682  -0.69502
 Alpha  occ. eigenvalues --   -0.69270  -0.68886  -0.67520  -0.66826  -0.66109
 Alpha  occ. eigenvalues --   -0.65418  -0.65242  -0.63739  -0.62967  -0.62306
 Alpha  occ. eigenvalues --   -0.61131  -0.60584  -0.60328  -0.60111  -0.59974
 Alpha  occ. eigenvalues --   -0.58887  -0.58769  -0.58004  -0.57922  -0.56902
 Alpha  occ. eigenvalues --   -0.56107  -0.55599  -0.55210  -0.54958  -0.54750
 Alpha  occ. eigenvalues --   -0.54408  -0.53947  -0.53473  -0.52445  -0.52397
 Alpha  occ. eigenvalues --   -0.52193  -0.51864  -0.51724  -0.51274  -0.51121
 Alpha  occ. eigenvalues --   -0.50797  -0.49830  -0.49597  -0.49470  -0.49257
 Alpha  occ. eigenvalues --   -0.49134  -0.49054  -0.48739  -0.48514  -0.48054
 Alpha  occ. eigenvalues --   -0.47844  -0.47456  -0.47241  -0.47150  -0.46956
 Alpha  occ. eigenvalues --   -0.46801  -0.46552  -0.46094  -0.46054  -0.45467
 Alpha  occ. eigenvalues --   -0.45257  -0.45199  -0.45128  -0.44961  -0.44882
 Alpha  occ. eigenvalues --   -0.44636  -0.44151  -0.44066  -0.43659  -0.43611
 Alpha  occ. eigenvalues --   -0.43216  -0.43204  -0.42980  -0.42673  -0.42481
 Alpha  occ. eigenvalues --   -0.42429  -0.42391  -0.42178  -0.41968  -0.41829
 Alpha  occ. eigenvalues --   -0.41579  -0.41401  -0.41181  -0.41060  -0.40984
 Alpha  occ. eigenvalues --   -0.40939  -0.40751  -0.40448  -0.40238  -0.40058
 Alpha  occ. eigenvalues --   -0.39756  -0.39586  -0.39416  -0.39232  -0.39014
 Alpha  occ. eigenvalues --   -0.38871  -0.38802  -0.38417  -0.38318  -0.37991
 Alpha  occ. eigenvalues --   -0.37871  -0.37362  -0.37217  -0.37175  -0.36827
 Alpha  occ. eigenvalues --   -0.36590  -0.36268  -0.36108  -0.36018  -0.35821
 Alpha  occ. eigenvalues --   -0.35418  -0.35382  -0.35123  -0.34753  -0.34659
 Alpha  occ. eigenvalues --   -0.34503  -0.34046  -0.33715  -0.33186  -0.32928
 Alpha  occ. eigenvalues --   -0.32756  -0.32461  -0.32121  -0.31775  -0.31684
 Alpha  occ. eigenvalues --   -0.31204  -0.30639  -0.30182  -0.29978  -0.29943
 Alpha  occ. eigenvalues --   -0.28609  -0.28057  -0.27906  -0.27695  -0.27485
 Alpha  occ. eigenvalues --   -0.27424  -0.27269  -0.22558  -0.21560
 Alpha virt. eigenvalues --   -0.08423  -0.05950  -0.01559  -0.00529   0.00671
 Alpha virt. eigenvalues --    0.01201   0.02266   0.03652   0.04310   0.04442
 Alpha virt. eigenvalues --    0.05110   0.05614   0.07835   0.08089   0.08477

 Mulliken charges:
               1
     1  Mg   0.828574
     2  C    0.051075
     3  C   -0.193609
     4  C   -0.180030
     5  C   -0.194771
     6  N   -0.621485
     7  C    0.332794
     8  C   -0.172264
     9  C   -0.155697
    10  C    0.355210
    11  C   -0.314064
    12  C   -0.153252
    13  C   -0.275561
    14  C    0.601912
    15  O   -0.522740
    16  O   -0.409190
    17  N   -0.684757
    18  C    0.275861
    19  C    0.138623
    20  C   -0.068225
    21  C    0.301554
    22  C   -0.421064
    23  C    0.243092
    24  O   -0.394835
    25  N   -0.721502
    26  C    0.354564
    27  C   -0.098779
    28  C    0.084397
    29  C    0.299704
    30  C    0.251134
    31  C   -0.233746
    32  C   -0.298717
    33  N   -0.740617
    34  C    0.249787
    35  C   -0.007584
    36  C   -0.010743
    37  C    0.349587
    38  C   -0.371271
    39  C    0.358220
    40  O   -0.444709
    41  C   -0.319403
    42  C    0.615427
    43  O   -0.471252
    44  O   -0.446956
    45  C   -0.088675
    46  C    0.003934
    47  C   -0.150391
    48  C    0.143286
    49  C   -0.363716
    50  C   -0.216035
    51  C   -0.178568
    52  C   -0.174723
    53  C   -0.043888
    54  C   -0.303234
    55  C   -0.154561
    56  C   -0.197560
    57  C   -0.159327
    58  C   -0.091404
    59  C   -0.310363
    60  C   -0.140703
    61  C   -0.166787
    62  C   -0.159235
    63  C   -0.053628
    64  C   -0.316334
    65  C   -0.278171
    66  H    0.077695
    67  H    0.128186
    68  H    0.081043
    69  H    0.147081
    70  H    0.076190
    71  H    0.111408
    72  H    0.119637
    73  H    0.122684
    74  H    0.128965
    75  H    0.132120
    76  H    0.148685
    77  H    0.130471
    78  H    0.118121
    79  H    0.139160
    80  H    0.112342
    81  H    0.070767
    82  H    0.132522
    83  H    0.102880
    84  H    0.110053
    85  H    0.099262
    86  H    0.116406
    87  H    0.138348
    88  H    0.152235
    89  H    0.138180
    90  H    0.157483
    91  H    0.119574
    92  H    0.127048
    93  H    0.071484
    94  H    0.172203
    95  H    0.044507
    96  H    0.103236
    97  H    0.117776
    98  H    0.073346
    99  H    0.116501
   100  H    0.090242
   101  H    0.083376
   102  H    0.085892
   103  H    0.087959
   104  H    0.090790
   105  H    0.109627
   106  H    0.082392
   107  H    0.098057
   108  H    0.073329
   109  H    0.077566
   110  H    0.084698
   111  H    0.095743
   112  H    0.080348
   113  H    0.060451
   114  H    0.083847
   115  H    0.105114
   116  H    0.113436
   117  H    0.101185
   118  H    0.091971
   119  H    0.040292
   120  H    0.104363
   121  H    0.082547
   122  H    0.068122
   123  H    0.095094
   124  H    0.086944
   125  H    0.089488
   126  H    0.111506
   127  H    0.076987
   128  H    0.086420
   129  H    0.102239
   130  H    0.131200
   131  H    0.120937
   132  H    0.134044
   133  O   -0.404849
   134  H    0.076437
 Sum of Mulliken charges =   0.00000

 Dipole moment (field-independent basis, Debye):
    X=             -0.0091    Y=             -3.8529    Z=             -1.0554  Tot=              3.9949
 Quadrupole moment (field-independent basis, Debye-Ang):
   XX=           -382.1579   YY=           -433.5092   ZZ=           -392.4015
   XY=             -1.6813   XZ=             21.9371   YZ=            -37.2362

 Normal termination of Gaussian 09 at Fri Oct  4 15:13:38 2019.
