 Gaussian 09, Revision D.01,
 Gaussian 09:  ES64L-G09RevD.01 24-Apr-2013

 ----------------------------------------------------------------------
 # td=(NStates=1) iop(3/107=0140000000,3/108=0140000000) iop(3/107=0140
 000000,3/108=0140000000) CAM-B3LYP/6-31G(d,p)
 ----------------------------------------------------------------------

 --
 TD
 --
 Symbolic Z-matrix:
 Charge =  0 Multiplicity = 1

                         Standard orientation:
 ---------------------------------------------------------------------
 Center     Atomic      Atomic             Coordinates (Angstroms)
 Number     Number       Type             X           Y           Z
 ---------------------------------------------------------------------
      1         12           0       -5.698458    1.192573    0.231958
      2          6           0       -4.921410   -2.108535   -0.444747
      3          6           0       -3.362531    1.072017    2.781264
      4          6           0       -6.215723    4.443752    0.658812
      5          6           0       -8.047021    1.288514   -2.390101
      6          7           0       -4.399753   -0.311185    1.129804
      7          6           0       -4.265087   -1.559839    0.568258
      8          6           0       -3.182281   -2.311721    1.329100
      9          6           0       -2.905091   -1.291136    2.573622
     10          6           0       -3.532173   -0.114790    2.107197
     11          6           0       -3.448963   -1.827042    3.914768
     12          6           0       -1.941069   -2.635569    0.583474
     13          6           0       -0.947777   -3.573318    1.252577
     14          6           0        0.326973   -3.886379    0.530378
     15          8           0        0.482890   -3.487528   -0.603494
     16          8           0        1.119366   -4.635296    1.237756
     17          7           0       -4.931181    2.432191    1.506885
     18          6           0       -4.005892    2.389729    2.415913
     19          6           0       -3.797402    3.550483    3.193903
     20          6           0       -4.579389    4.507300    2.661263
     21          6           0       -5.357478    3.843496    1.549673
     22          6           0       -2.821215    3.703403    4.339236
     23          6           0       -4.524808    5.915089    2.906566
     24          8           0       -3.967095    6.453825    3.858271
     25          7           0       -6.928533    2.587711   -0.660149
     26          6           0       -7.051387    3.906883   -0.259670
     27          6           0       -8.026705    4.613331   -1.108076
     28          6           0       -8.448000    3.691478   -2.010030
     29          6           0       -7.766188    2.413419   -1.796292
     30          6           0       -8.323068    6.029881   -1.100230
     31          6           0       -9.492804    3.891394   -3.090941
     32          6           0       -8.857837    4.148358   -4.488794
     33          7           0       -6.305070   -0.119406   -1.118383
     34          6           0       -7.399897    0.040785   -2.062949
     35          6           0       -7.667927   -1.316204   -2.744238
     36          6           0       -6.736698   -2.134841   -2.087824
     37          6           0       -5.945319   -1.549036   -1.121485
     38          6           0       -8.688458   -1.732230   -3.758075
     39          6           0       -6.285549   -3.425002   -2.108827
     40          8           0       -6.622242   -4.467249   -2.575173
     41          6           0       -5.112539   -3.444686   -0.916139
     42          6           0       -5.299441   -4.562541    0.119371
     43          8           0       -5.716508   -4.424876    1.252217
     44          8           0       -5.045094   -5.869155   -0.388891
     45          6           0       -5.309282   -6.914453    0.406151
     46          6           0        2.439366   -5.118837    0.664867
     47          6           0        3.486811   -4.103749    1.030227
     48          6           0        4.004382   -3.062458    0.252275
     49          6           0        3.774473   -3.119865   -1.181246
     50          6           0        5.262021   -2.336904    0.726478
     51          6           0        6.591829   -2.712924    0.077691
     52          6           0        7.709131   -1.817334    0.541573
     53          6           0        9.024405   -2.009323    0.017053
     54          6           0        9.672537   -3.451962    0.314647
     55          6           0       10.081545   -0.879628    0.423487
     56          6           0       11.413459   -0.781535   -0.378967
     57          6           0       12.295738    0.256719    0.152813
     58          6           0       13.570200    0.440368   -0.578009
     59          6           0       14.553454   -0.793290   -0.362516
     60          6           0       14.223643    1.719987   -0.256303
     61          6           0       15.430949    2.170167   -1.075376
     62          6           0       15.955823    3.527174   -0.678831
     63          6           0       17.270338    4.071054   -1.363168
     64          6           0       17.083699    4.137436   -2.895178
     65          6           0       17.798242    5.294577   -0.755009
     66          1           0       -2.629546    0.867157    3.626630
     67          1           0       -6.443551    5.464618    0.842112
     68          1           0       -8.840993    1.153225   -2.963470
     69          1           0       -3.695898   -3.206737    1.646031
     70          1           0       -1.854252   -1.081282    2.691843
     71          1           0       -3.125948   -2.704561    4.245910
     72          1           0       -3.214525   -1.179291    4.595827
     73          1           0       -4.582495   -2.021314    3.873196
     74          1           0       -2.240108   -3.058243   -0.554109
     75          1           0       -1.318854   -1.594356    0.255360
     76          1           0       -0.689271   -3.105770    2.219786
     77          1           0       -1.231176   -4.625035    1.705227
     78          1           0       -1.742038    3.775260    3.922815
     79          1           0       -2.936908    4.526534    4.930433
     80          1           0       -2.838995    2.779194    4.854669
     81          1           0       -4.983125    6.534620    2.193670
     82          1           0       -9.884763    2.871949   -3.230665
     83          1           0      -10.100827    4.730795   -2.991811
     84          1           0       -9.587218    4.121343   -5.290525
     85          1           0       -8.155584    4.857523   -4.501720
     86          1           0       -8.423725    3.242956   -4.721839
     87          1           0       -8.335004   -1.332816   -4.776476
     88          1           0       -8.896664   -2.792375   -3.816010
     89          1           0       -9.454228   -1.463130   -3.282428
     90          1           0       -4.239875   -3.933566   -1.541528
     91          1           0        2.746281   -5.912992    1.072684
     92          1           0        2.359738   -5.063737   -0.530194
     93          1           0        3.834572   -4.242960    1.974657
     94          1           0        2.900691   -3.340194   -1.425141
     95          1           0        4.190482   -2.144120   -1.582550
     96          1           0        4.309545   -3.841952   -1.627797
     97          1           0        4.958738   -1.264891    0.756233
     98          1           0        5.490107   -2.691318    1.838081
     99          1           0        6.598284   -3.835306    0.091722
    100          1           0        6.609498   -2.507567   -0.975316
    101          1           0        7.426155   -0.834204    0.488904
    102          1           0        7.803428   -1.903424    1.526265
    103          1           0        9.100503   -2.040277   -1.004040
    104          1           0        9.179105   -4.355804    0.130101
    105          1           0       10.724281   -3.806504   -0.131556
    106          1           0        9.931966   -3.582969    1.590249
    107          1           0        9.624241    0.079350    0.299743
    108          1           0       10.248864   -0.922477    1.551619
    109          1           0       11.746692   -1.844916   -0.525294
    110          1           0       11.232002   -0.652621   -1.456854
    111          1           0       11.978039    1.287191    0.298429
    112          1           0       12.452637    0.082783    1.214251
    113          1           0       13.431419    0.491443   -1.781726
    114          1           0       14.756183   -0.995056    0.717716
    115          1           0       14.296884   -1.703055   -0.702208
    116          1           0       15.663378   -0.575821   -0.801512
    117          1           0       13.495230    2.629958   -0.288949
    118          1           0       14.551174    1.818098    0.785764
    119          1           0       16.226713    1.454443   -1.199888
    120          1           0       15.048458    2.141624   -2.174773
    121          1           0       15.186169    4.388657   -0.849714
    122          1           0       15.989235    3.775475    0.428261
    123          1           0       18.074288    3.377159   -1.271427
    124          1           0       16.208935    4.752521   -3.150152
    125          1           0       18.032160    4.440107   -3.213465
    126          1           0       16.758009    3.105784   -3.310981
    127          1           0       18.046822    5.451372    0.394303
    128          1           0       18.760936    5.743548   -1.082831
    129          1           0       17.130674    6.138090   -1.013251
    130          1           0       -5.344008   -7.806350   -0.268495
    131          1           0       -6.343583   -6.752778    0.838404
    132          1           0       -4.709916   -6.982354    1.342440
    133          8           0       -8.017560    6.898262   -0.308333
    134          1           0       -9.011900    6.489422   -1.951740
 ---------------------------------------------------------------------

 SCF Done:  E(RCAM-B3LYP) =  -3043.37136843     A.U. after   16 cycles

 Excitation energies and oscillator strengths:

 Excited State   1:      Singlet-A      1.9657 eV  630.73 nm  f=0.2177  <S**2>=0.000
     243 -> 246       -0.24216
     244 -> 245        0.65873
 This state for optimization and/or second-order correction.
 Total Energy, E(TD-HF/TD-KS) =  -3043.29912885
 Copying the excited state density for this state as the 1-particle RhoCI density.

 The electronic state is 1-A.
 Alpha  occ. eigenvalues --  -46.80287 -19.22459 -19.20824 -19.17642 -19.17473
 Alpha  occ. eigenvalues --  -19.17064 -19.16679 -19.15585 -14.38151 -14.37993
 Alpha  occ. eigenvalues --  -14.37516 -14.36522 -10.35037 -10.33937 -10.31370
 Alpha  occ. eigenvalues --  -10.30457 -10.29694 -10.28009 -10.27935 -10.27877
 Alpha  occ. eigenvalues --  -10.27785 -10.26961 -10.26920 -10.26483 -10.26228
 Alpha  occ. eigenvalues --  -10.26005 -10.25883 -10.25724 -10.25362 -10.25062
 Alpha  occ. eigenvalues --  -10.24564 -10.24507 -10.23820 -10.23694 -10.23680
 Alpha  occ. eigenvalues --  -10.23544 -10.23484 -10.23436 -10.23416 -10.23263
 Alpha  occ. eigenvalues --  -10.23129 -10.23105 -10.22994 -10.22723 -10.22609
 Alpha  occ. eigenvalues --  -10.22605 -10.22476 -10.22024 -10.21734 -10.21714
 Alpha  occ. eigenvalues --  -10.21710 -10.21603 -10.21377 -10.21269 -10.21221
 Alpha  occ. eigenvalues --  -10.21110 -10.20951 -10.20938 -10.20705 -10.20455
 Alpha  occ. eigenvalues --  -10.20353 -10.20279 -10.20194 -10.20127 -10.19204
 Alpha  occ. eigenvalues --  -10.18303  -3.09154  -1.84068  -1.83660  -1.83562
 Alpha  occ. eigenvalues --   -1.13330  -1.12452  -1.08054  -1.07502  -1.06325
 Alpha  occ. eigenvalues --   -1.04965  -1.04039  -1.01311  -1.00328  -0.99032
 Alpha  occ. eigenvalues --   -0.96702  -0.89909  -0.87168  -0.86689  -0.86174
 Alpha  occ. eigenvalues --   -0.85362  -0.85280  -0.85135  -0.84995  -0.84543
 Alpha  occ. eigenvalues --   -0.83822  -0.83455  -0.82238  -0.81353  -0.80472
 Alpha  occ. eigenvalues --   -0.79953  -0.79248  -0.78826  -0.77864  -0.76944
 Alpha  occ. eigenvalues --   -0.76271  -0.75653  -0.75072  -0.73122  -0.72326
 Alpha  occ. eigenvalues --   -0.71871  -0.70945  -0.70643  -0.70557  -0.69926
 Alpha  occ. eigenvalues --   -0.69834  -0.69618  -0.68890  -0.67775  -0.67115
 Alpha  occ. eigenvalues --   -0.66631  -0.65311  -0.64352  -0.63602  -0.63190
 Alpha  occ. eigenvalues --   -0.62150  -0.61765  -0.61190  -0.60893  -0.59193
 Alpha  occ. eigenvalues --   -0.58632  -0.58483  -0.58308  -0.58119  -0.57849
 Alpha  occ. eigenvalues --   -0.56591  -0.56142  -0.55976  -0.55237  -0.54517
 Alpha  occ. eigenvalues --   -0.54007  -0.53737  -0.53470  -0.52963  -0.52609
 Alpha  occ. eigenvalues --   -0.52118  -0.51662  -0.51327  -0.51000  -0.50589
 Alpha  occ. eigenvalues --   -0.50455  -0.50060  -0.49889  -0.49834  -0.49484
 Alpha  occ. eigenvalues --   -0.49367  -0.49265  -0.48797  -0.48749  -0.48474
 Alpha  occ. eigenvalues --   -0.48207  -0.47948  -0.47773  -0.47745  -0.47478
 Alpha  occ. eigenvalues --   -0.47223  -0.47055  -0.46787  -0.46781  -0.46698
 Alpha  occ. eigenvalues --   -0.46532  -0.45960  -0.45815  -0.45555  -0.45378
 Alpha  occ. eigenvalues --   -0.45088  -0.44793  -0.44746  -0.44413  -0.44221
 Alpha  occ. eigenvalues --   -0.43742  -0.43496  -0.43242  -0.43083  -0.42963
 Alpha  occ. eigenvalues --   -0.42756  -0.42656  -0.42380  -0.42219  -0.41949
 Alpha  occ. eigenvalues --   -0.41840  -0.41649  -0.41340  -0.41282  -0.41215
 Alpha  occ. eigenvalues --   -0.40945  -0.40715  -0.40411  -0.40273  -0.39962
 Alpha  occ. eigenvalues --   -0.39727  -0.39615  -0.39345  -0.39212  -0.38920
 Alpha  occ. eigenvalues --   -0.38714  -0.38627  -0.38561  -0.38303  -0.38158
 Alpha  occ. eigenvalues --   -0.38021  -0.37957  -0.37736  -0.37356  -0.37111
 Alpha  occ. eigenvalues --   -0.36906  -0.36835  -0.36654  -0.36441  -0.36297
 Alpha  occ. eigenvalues --   -0.36060  -0.35782  -0.35290  -0.34507  -0.34415
 Alpha  occ. eigenvalues --   -0.33986  -0.33922  -0.33142  -0.32956  -0.32639
 Alpha  occ. eigenvalues --   -0.32579  -0.32360  -0.32067  -0.31720  -0.31710
 Alpha  occ. eigenvalues --   -0.31392  -0.31102  -0.30844  -0.29968  -0.29584
 Alpha  occ. eigenvalues --   -0.29413  -0.28593  -0.28168  -0.28062  -0.27857
 Alpha  occ. eigenvalues --   -0.27234  -0.26532  -0.23590  -0.21856
 Alpha virt. eigenvalues --   -0.09310  -0.06767  -0.01723  -0.01474   0.00978
 Alpha virt. eigenvalues --    0.01409   0.02720   0.03858   0.04420   0.04659
 Alpha virt. eigenvalues --    0.05497   0.05972   0.08272   0.08790   0.09485

 Mulliken charges:
               1
     1  Mg   0.825235
     2  C    0.193908
     3  C   -0.200303
     4  C   -0.167366
     5  C   -0.130427
     6  N   -0.634620
     7  C    0.291655
     8  C   -0.166659
     9  C   -0.183947
    10  C    0.394920
    11  C   -0.297629
    12  C   -0.150639
    13  C   -0.262723
    14  C    0.618683
    15  O   -0.481853
    16  O   -0.460308
    17  N   -0.677565
    18  C    0.310709
    19  C    0.052322
    20  C   -0.006634
    21  C    0.243848
    22  C   -0.357256
    23  C    0.242742
    24  O   -0.426972
    25  N   -0.693270
    26  C    0.294820
    27  C    0.015181
    28  C    0.017728
    29  C    0.326329
    30  C    0.227370
    31  C   -0.243705
    32  C   -0.323729
    33  N   -0.716727
    34  C    0.219084
    35  C    0.001707
    36  C    0.097594
    37  C    0.227639
    38  C   -0.357542
    39  C    0.302944
    40  O   -0.435898
    41  C   -0.383676
    42  C    0.610022
    43  O   -0.465967
    44  O   -0.436437
    45  C   -0.075680
    46  C    0.025979
    47  C   -0.136975
    48  C    0.101873
    49  C   -0.352487
    50  C   -0.229768
    51  C   -0.175273
    52  C   -0.152625
    53  C   -0.061258
    54  C   -0.312520
    55  C   -0.186632
    56  C   -0.183185
    57  C   -0.158857
    58  C   -0.034781
    59  C   -0.314015
    60  C   -0.182968
    61  C   -0.169816
    62  C   -0.168910
    63  C   -0.053699
    64  C   -0.302003
    65  C   -0.323256
    66  H    0.080194
    67  H    0.119825
    68  H    0.083296
    69  H    0.129206
    70  H    0.107678
    71  H    0.124228
    72  H    0.112454
    73  H    0.115301
    74  H    0.092559
    75  H    0.088994
    76  H    0.127478
    77  H    0.122138
    78  H    0.119772
    79  H    0.160414
    80  H    0.121617
    81  H    0.087044
    82  H    0.107745
    83  H    0.125708
    84  H    0.110795
    85  H    0.127966
    86  H    0.112606
    87  H    0.135328
    88  H    0.150074
    89  H    0.143880
    90  H    0.139573
    91  H    0.118299
    92  H    0.119146
    93  H    0.080404
    94  H    0.143923
    95  H    0.090928
    96  H    0.131280
    97  H    0.100809
    98  H    0.083375
    99  H    0.099394
   100  H    0.096705
   101  H    0.102419
   102  H    0.103344
   103  H    0.097672
   104  H    0.114882
   105  H    0.087365
   106  H    0.042270
   107  H    0.093658
   108  H    0.082038
   109  H    0.097198
   110  H    0.089967
   111  H    0.091629
   112  H    0.095964
   113  H    0.059051
   114  H    0.095669
   115  H    0.116733
   116  H    0.073026
   117  H    0.078794
   118  H    0.092651
   119  H    0.102593
   120  H    0.076508
   121  H    0.070286
   122  H    0.084527
   123  H    0.093105
   124  H    0.101669
   125  H    0.108058
   126  H    0.092701
   127  H    0.089064
   128  H    0.098730
   129  H    0.095547
   130  H    0.117611
   131  H    0.103435
   132  H    0.103647
   133  O   -0.412661
   134  H    0.044978
 Sum of Mulliken charges =   0.00000

 Dipole moment (field-independent basis, Debye):
    X=              2.0774    Y=             -3.1669    Z=             -1.3901  Tot=              4.0345
 Quadrupole moment (field-independent basis, Debye-Ang):
   XX=           -369.8333   YY=           -440.3533   ZZ=           -391.5422
   XY=             -1.6869   XZ=             29.2495   YZ=            -31.1492

 Normal termination of Gaussian 09 at Fri Oct  4 23:11:40 2019.
