 Gaussian 09, Revision D.01,
 Gaussian 09:  ES64L-G09RevD.01 24-Apr-2013

 ----------------------------------------------------------------------
 # td=(NStates=1) iop(3/107=0140000000,3/108=0140000000) iop(3/107=0140
 000000,3/108=0140000000) CAM-B3LYP/6-31G(d,p)
 ----------------------------------------------------------------------

 --
 TD
 --
 Symbolic Z-matrix:
 Charge =  0 Multiplicity = 1

                         Standard orientation:
 ---------------------------------------------------------------------
 Center     Atomic      Atomic             Coordinates (Angstroms)
 Number     Number       Type             X           Y           Z
 ---------------------------------------------------------------------
      1         12           0       -5.671687    1.230895    0.155214
      2          6           0       -4.975195   -2.118398   -0.341878
      3          6           0       -3.413071    1.242353    2.848433
      4          6           0       -6.192977    4.563214    0.581939
      5          6           0       -7.935700    1.075034   -2.478623
      6          7           0       -4.422311   -0.230247    1.083070
      7          6           0       -4.310316   -1.580427    0.702828
      8          6           0       -3.227132   -2.272793    1.498157
      9          6           0       -2.974893   -1.227341    2.636610
     10          6           0       -3.727124   -0.043232    2.186104
     11          6           0       -3.454814   -1.665880    4.052460
     12          6           0       -2.071161   -2.637622    0.646356
     13          6           0       -1.022620   -3.529615    1.390648
     14          6           0        0.232381   -3.778635    0.617603
     15          8           0        0.454700   -3.170889   -0.407661
     16          8           0        1.033882   -4.564331    1.302477
     17          7           0       -4.887051    2.655466    1.436101
     18          6           0       -3.994794    2.423277    2.493074
     19          6           0       -3.709864    3.694009    3.097753
     20          6           0       -4.525346    4.680264    2.515936
     21          6           0       -5.223552    3.934812    1.404888
     22          6           0       -2.825351    3.950134    4.254810
     23          6           0       -4.596039    6.108265    2.909911
     24          8           0       -3.952418    6.614885    3.765383
     25          7           0       -6.886856    2.535752   -0.680005
     26          6           0       -6.952467    3.868581   -0.385823
     27          6           0       -7.914359    4.535818   -1.285772
     28          6           0       -8.393604    3.650696   -2.076698
     29          6           0       -7.782779    2.276661   -1.744386
     30          6           0       -8.236769    5.990695   -1.380198
     31          6           0       -9.442623    3.708819   -3.181624
     32          6           0       -8.720595    3.636530   -4.663540
     33          7           0       -6.364549   -0.140478   -1.066582
     34          6           0       -7.340833   -0.050995   -2.079756
     35          6           0       -7.545742   -1.420403   -2.661597
     36          6           0       -6.610379   -2.230192   -2.031022
     37          6           0       -5.930200   -1.444459   -1.080724
     38          6           0       -8.523129   -1.774994   -3.724411
     39          6           0       -6.251930   -3.611502   -1.987978
     40          8           0       -6.569343   -4.519985   -2.588967
     41          6           0       -5.056448   -3.554080   -0.943424
     42          6           0       -5.232803   -4.552598    0.254643
     43          8           0       -5.789568   -4.400777    1.326117
     44          8           0       -4.941603   -5.775360   -0.218198
     45          6           0       -5.310244   -6.808558    0.642124
     46          6           0        2.298009   -4.963803    0.652195
     47          6           0        3.366457   -4.110208    1.031751
     48          6           0        4.016273   -3.268607    0.242605
     49          6           0        3.667526   -3.052217   -1.152032
     50          6           0        5.178987   -2.460441    0.816664
     51          6           0        6.525088   -2.722866    0.114559
     52          6           0        7.685458   -1.794013    0.517224
     53          6           0        9.055088   -2.037142   -0.126921
     54          6           0        9.614036   -3.431271    0.003928
     55          6           0       10.087076   -0.917943    0.315437
     56          6           0       11.398090   -0.882140   -0.468800
     57          6           0       12.214341    0.319862    0.030630
     58          6           0       13.476042    0.517272   -0.664206
     59          6           0       14.432944   -0.606014   -0.517689
     60          6           0       14.205257    1.834038   -0.158633
     61          6           0       15.352138    2.112414   -1.032356
     62          6           0       16.063618    3.433010   -0.568761
     63          6           0       17.380561    3.797151   -1.229186
     64          6           0       17.157993    3.919181   -2.676239
     65          6           0       18.078708    5.033428   -0.671419
     66          1           0       -2.827739    1.084480    3.929899
     67          1           0       -6.624600    5.631846    0.650776
     68          1           0       -8.602779    1.046747   -3.157146
     69          1           0       -3.531405   -3.046545    2.043469
     70          1           0       -1.948239   -0.957822    2.820538
     71          1           0       -2.973748   -2.708949    4.317935
     72          1           0       -3.359399   -0.860264    5.049059
     73          1           0       -4.438903   -1.884864    4.071718
     74          1           0       -2.565935   -3.035974   -0.024232
     75          1           0       -1.390206   -1.819408    0.239833
     76          1           0       -0.967319   -2.801165    2.415919
     77          1           0       -1.276991   -4.521200    1.855438
     78          1           0       -1.705208    4.067921    4.126930
     79          1           0       -2.841315    4.830690    4.964679
     80          1           0       -3.129259    3.014281    4.875456
     81          1           0       -5.309827    6.718680    2.199020
     82          1           0       -9.954631    2.798488   -3.206258
     83          1           0      -10.111983    4.567964   -3.159718
     84          1           0       -9.497185    3.563625   -5.444544
     85          1           0       -8.117552    4.542303   -4.782430
     86          1           0       -8.160596    2.579418   -4.644933
     87          1           0       -8.646702   -1.074016   -4.600502
     88          1           0       -8.480205   -2.997446   -4.101347
     89          1           0       -9.584266   -1.782497   -3.335408
     90          1           0       -4.042977   -3.759470   -1.405583
     91          1           0        2.508871   -5.909420    1.145646
     92          1           0        2.269978   -5.296588   -0.422025
     93          1           0        3.710527   -4.281945    2.164752
     94          1           0        2.479613   -3.157312   -1.186378
     95          1           0        3.980313   -1.922828   -1.538396
     96          1           0        4.263048   -3.862585   -1.964289
     97          1           0        4.922864   -1.410374    0.283449
     98          1           0        5.061500   -2.524446    1.779709
     99          1           0        6.824302   -3.793601    0.406647
    100          1           0        6.361886   -2.701466   -1.074121
    101          1           0        7.195186   -0.784869    0.253481
    102          1           0        7.716576   -1.900004    1.561091
    103          1           0        8.795771   -1.945187   -1.219040
    104          1           0        8.886044   -4.223155   -0.268316
    105          1           0       10.478142   -3.579809   -0.582418
    106          1           0       10.134128   -3.811997    1.081953
    107          1           0        9.314843    0.180542   -0.028277
    108          1           0       10.181783   -0.916589    1.407173
    109          1           0       11.935048   -1.744297   -0.286500
    110          1           0       11.091328   -0.760448   -1.652903
    111          1           0       11.504795    1.207234    0.040540
    112          1           0       12.282787    0.182421    1.139303
    113          1           0       13.113072    0.589352   -1.706219
    114          1           0       14.806766   -1.005277    0.484102
    115          1           0       13.918576   -1.495769   -0.857663
    116          1           0       15.381724   -0.658047   -1.110607
    117          1           0       13.485695    2.699935   -0.056637
    118          1           0       14.418473    1.340524    0.907953
    119          1           0       16.002452    1.397678   -0.922560
    120          1           0       15.088461    2.174860   -2.126054
    121          1           0       15.354810    4.177097   -0.619068
    122          1           0       16.374060    3.560055    0.565876
    123          1           0       18.160401    2.870409   -1.140310
    124          1           0       16.579364    4.770195   -2.872869
    125          1           0       18.123138    4.230466   -3.130743
    126          1           0       16.659960    3.017290   -3.168483
    127          1           0       18.227952    4.994542    0.450842
    128          1           0       18.917199    5.254196   -1.371440
    129          1           0       17.599574    5.885782   -1.003518
    130          1           0       -4.785927   -7.735145    0.096408
    131          1           0       -6.346478   -6.968867    0.851421
    132          1           0       -4.852975   -6.666839    1.621699
    133          8           0       -7.921504    6.827908   -0.619049
    134          1           0       -8.931516    6.178895   -2.256683
 ---------------------------------------------------------------------

 SCF Done:  E(RCAM-B3LYP) =  -3043.40223745     A.U. after   16 cycles

 Excitation energies and oscillator strengths:

 Excited State   1:      Singlet-A      1.9788 eV  626.55 nm  f=0.2474  <S**2>=0.000
     243 -> 246        0.21061
     244 -> 245        0.67036
 This state for optimization and/or second-order correction.
 Total Energy, E(TD-HF/TD-KS) =  -3043.32951652
 Copying the excited state density for this state as the 1-particle RhoCI density.

 The electronic state is 1-A.
 Alpha  occ. eigenvalues --  -46.80103 -19.23474 -19.22892 -19.18509 -19.18059
 Alpha  occ. eigenvalues --  -19.17779 -19.17401 -19.16966 -14.39412 -14.36989
 Alpha  occ. eigenvalues --  -14.36657 -14.36422 -10.35308 -10.35143 -10.31262
 Alpha  occ. eigenvalues --  -10.31199 -10.30248 -10.27881 -10.27830 -10.27303
 Alpha  occ. eigenvalues --  -10.26934 -10.26759 -10.26608 -10.26590 -10.26329
 Alpha  occ. eigenvalues --  -10.25696 -10.25421 -10.25137 -10.25111 -10.24916
 Alpha  occ. eigenvalues --  -10.24732 -10.24684 -10.24263 -10.24163 -10.23908
 Alpha  occ. eigenvalues --  -10.23749 -10.23689 -10.23582 -10.23562 -10.23514
 Alpha  occ. eigenvalues --  -10.23483 -10.23163 -10.22789 -10.22772 -10.22739
 Alpha  occ. eigenvalues --  -10.22645 -10.22554 -10.22511 -10.22359 -10.21929
 Alpha  occ. eigenvalues --  -10.21715 -10.21647 -10.21621 -10.21566 -10.21452
 Alpha  occ. eigenvalues --  -10.21414 -10.21400 -10.21262 -10.21118 -10.20930
 Alpha  occ. eigenvalues --  -10.20529 -10.20419 -10.19969 -10.19943 -10.19585
 Alpha  occ. eigenvalues --  -10.19230  -3.08989  -1.83909  -1.83475  -1.83405
 Alpha  occ. eigenvalues --   -1.15002  -1.14525  -1.12550  -1.10360  -1.08255
 Alpha  occ. eigenvalues --   -1.05745  -1.05248  -1.00986  -0.99520  -0.98955
 Alpha  occ. eigenvalues --   -0.97877  -0.89044  -0.87205  -0.86779  -0.86448
 Alpha  occ. eigenvalues --   -0.85243  -0.84669  -0.84379  -0.83938  -0.83903
 Alpha  occ. eigenvalues --   -0.83350  -0.82111  -0.81786  -0.80797  -0.79937
 Alpha  occ. eigenvalues --   -0.79139  -0.78594  -0.77567  -0.77439  -0.77001
 Alpha  occ. eigenvalues --   -0.75634  -0.74354  -0.73800  -0.72187  -0.71374
 Alpha  occ. eigenvalues --   -0.71205  -0.71018  -0.70516  -0.69687  -0.69520
 Alpha  occ. eigenvalues --   -0.69038  -0.68582  -0.67491  -0.66823  -0.66207
 Alpha  occ. eigenvalues --   -0.65535  -0.65300  -0.64186  -0.62985  -0.62436
 Alpha  occ. eigenvalues --   -0.61565  -0.61379  -0.60166  -0.59756  -0.59205
 Alpha  occ. eigenvalues --   -0.59041  -0.58126  -0.57663  -0.57599  -0.57479
 Alpha  occ. eigenvalues --   -0.56285  -0.56034  -0.55267  -0.54952  -0.54586
 Alpha  occ. eigenvalues --   -0.54064  -0.53594  -0.52993  -0.52816  -0.52403
 Alpha  occ. eigenvalues --   -0.52196  -0.51879  -0.51438  -0.51196  -0.51066
 Alpha  occ. eigenvalues --   -0.50870  -0.50417  -0.50058  -0.49869  -0.49274
 Alpha  occ. eigenvalues --   -0.48864  -0.48856  -0.48721  -0.48235  -0.48013
 Alpha  occ. eigenvalues --   -0.47844  -0.47609  -0.47305  -0.47280  -0.47253
 Alpha  occ. eigenvalues --   -0.46959  -0.46889  -0.46593  -0.46338  -0.46208
 Alpha  occ. eigenvalues --   -0.45743  -0.45552  -0.45414  -0.45031  -0.45011
 Alpha  occ. eigenvalues --   -0.44683  -0.44103  -0.43962  -0.43667  -0.43598
 Alpha  occ. eigenvalues --   -0.43427  -0.43383  -0.43212  -0.43057  -0.42868
 Alpha  occ. eigenvalues --   -0.42415  -0.42328  -0.42118  -0.42073  -0.42005
 Alpha  occ. eigenvalues --   -0.41735  -0.41563  -0.41133  -0.41013  -0.40776
 Alpha  occ. eigenvalues --   -0.40614  -0.40431  -0.40245  -0.39953  -0.39805
 Alpha  occ. eigenvalues --   -0.39637  -0.39158  -0.39125  -0.39040  -0.38910
 Alpha  occ. eigenvalues --   -0.38744  -0.38656  -0.38476  -0.38167  -0.38127
 Alpha  occ. eigenvalues --   -0.38069  -0.37761  -0.37415  -0.37304  -0.37208
 Alpha  occ. eigenvalues --   -0.37025  -0.36679  -0.36450  -0.35752  -0.35597
 Alpha  occ. eigenvalues --   -0.35335  -0.35277  -0.35042  -0.34506  -0.34461
 Alpha  occ. eigenvalues --   -0.34082  -0.33908  -0.33865  -0.33645  -0.33214
 Alpha  occ. eigenvalues --   -0.32914  -0.32706  -0.32589  -0.32203  -0.31991
 Alpha  occ. eigenvalues --   -0.31630  -0.31335  -0.30719  -0.29819  -0.29571
 Alpha  occ. eigenvalues --   -0.29509  -0.28792  -0.28459  -0.28162  -0.27719
 Alpha  occ. eigenvalues --   -0.27439  -0.27044  -0.23521  -0.20439
 Alpha virt. eigenvalues --   -0.07959  -0.05705  -0.01617   0.00077   0.00899
 Alpha virt. eigenvalues --    0.02199   0.02760   0.02937   0.04139   0.04675
 Alpha virt. eigenvalues --    0.04918   0.06416   0.07577   0.08071   0.08332

 Mulliken charges:
               1
     1  Mg   0.828642
     2  C    0.102713
     3  C   -0.200609
     4  C   -0.184610
     5  C   -0.097616
     6  N   -0.615976
     7  C    0.246857
     8  C   -0.142839
     9  C   -0.183493
    10  C    0.372779
    11  C   -0.313412
    12  C   -0.112574
    13  C   -0.284925
    14  C    0.626600
    15  O   -0.467261
    16  O   -0.446748
    17  N   -0.714736
    18  C    0.343595
    19  C    0.038338
    20  C   -0.043457
    21  C    0.327333
    22  C   -0.380423
    23  C    0.254864
    24  O   -0.395596
    25  N   -0.718461
    26  C    0.310458
    27  C   -0.026015
    28  C    0.037601
    29  C    0.241178
    30  C    0.269443
    31  C   -0.263680
    32  C   -0.318547
    33  N   -0.751936
    34  C    0.273604
    35  C    0.057146
    36  C    0.005888
    37  C    0.283027
    38  C   -0.412971
    39  C    0.389183
    40  O   -0.383546
    41  C   -0.352829
    42  C    0.596591
    43  O   -0.474355
    44  O   -0.414617
    45  C   -0.089406
    46  C   -0.025811
    47  C   -0.131572
    48  C    0.180290
    49  C   -0.377788
    50  C   -0.189786
    51  C   -0.183302
    52  C   -0.152733
    53  C   -0.042967
    54  C   -0.312938
    55  C   -0.144733
    56  C   -0.165614
    57  C   -0.169746
    58  C   -0.053237
    59  C   -0.331565
    60  C   -0.161035
    61  C   -0.158145
    62  C   -0.163497
    63  C   -0.034747
    64  C   -0.307994
    65  C   -0.317003
    66  H    0.098376
    67  H    0.142845
    68  H    0.054935
    69  H    0.123688
    70  H    0.122258
    71  H    0.094628
    72  H    0.081478
    73  H    0.144834
    74  H    0.098365
    75  H    0.129755
    76  H    0.108072
    77  H    0.120778
    78  H    0.124190
    79  H    0.156097
    80  H    0.092465
    81  H    0.056575
    82  H    0.125368
    83  H    0.112978
    84  H    0.112901
    85  H    0.124505
    86  H    0.097970
    87  H    0.124226
    88  H    0.122971
    89  H    0.131155
    90  H    0.159645
    91  H    0.119550
    92  H    0.134019
    93  H    0.073214
    94  H    0.154366
    95  H    0.085992
    96  H    0.083459
    97  H    0.077227
    98  H    0.093466
    99  H    0.082412
   100  H    0.076995
   101  H    0.080511
   102  H    0.096715
   103  H    0.083623
   104  H    0.106141
   105  H    0.116927
   106  H    0.057434
   107  H    0.020953
   108  H    0.099958
   109  H    0.113771
   110  H    0.071401
   111  H    0.088312
   112  H    0.078154
   113  H    0.082899
   114  H    0.096839
   115  H    0.099858
   116  H    0.105435
   117  H    0.079168
   118  H    0.078298
   119  H    0.113000
   120  H    0.091000
   121  H    0.094866
   122  H    0.059379
   123  H    0.053794
   124  H    0.102685
   125  H    0.085282
   126  H    0.095415
   127  H    0.103910
   128  H    0.092912
   129  H    0.109094
   130  H    0.102764
   131  H    0.137885
   132  H    0.121216
   133  O   -0.387126
   134  H    0.054484
 Sum of Mulliken charges =   0.00000

 Dipole moment (field-independent basis, Debye):
    X=              1.4660    Y=             -5.2135    Z=             -1.1668  Tot=              5.5400
 Quadrupole moment (field-independent basis, Debye-Ang):
   XX=           -376.8271   YY=           -429.3144   ZZ=           -392.8003
   XY=             -0.2039   XZ=             22.1629   YZ=            -33.0596

 Normal termination of Gaussian 09 at Fri Oct  4 04:56:11 2019.
