 Gaussian 09, Revision D.01,
 Gaussian 09:  ES64L-G09RevD.01 24-Apr-2013

 ----------------------------------------------------------------------
 # td=(NStates=1) iop(3/107=0140000000,3/108=0140000000) iop(3/107=0140
 000000,3/108=0140000000) CAM-B3LYP/6-31G(d,p)
 ----------------------------------------------------------------------

 --
 TD
 --
 Symbolic Z-matrix:
 Charge =  0 Multiplicity = 1

                         Standard orientation:
 ---------------------------------------------------------------------
 Center     Atomic      Atomic             Coordinates (Angstroms)
 Number     Number       Type             X           Y           Z
 ---------------------------------------------------------------------
      1         12           0       -5.620140    1.231060    0.192911
      2          6           0       -4.992149   -2.065696   -0.373830
      3          6           0       -3.409241    1.190356    2.732406
      4          6           0       -6.040759    4.616275    0.606769
      5          6           0       -8.144899    1.192857   -2.354293
      6          7           0       -4.293878   -0.209144    0.983257
      7          6           0       -4.199561   -1.606506    0.614883
      8          6           0       -3.261275   -2.340818    1.538158
      9          6           0       -2.857946   -1.276170    2.583501
     10          6           0       -3.550314    0.011739    2.091937
     11          6           0       -3.392362   -1.732244    3.991792
     12          6           0       -1.906214   -2.645913    0.766384
     13          6           0       -0.948839   -3.493240    1.490254
     14          6           0        0.313064   -3.909489    0.717360
     15          8           0        0.487976   -3.646850   -0.473311
     16          8           0        1.102923   -4.650831    1.393608
     17          7           0       -4.901202    2.739747    1.457711
     18          6           0       -3.945183    2.456711    2.438218
     19          6           0       -3.744217    3.650015    3.126333
     20          6           0       -4.491982    4.695247    2.557696
     21          6           0       -5.238269    3.972087    1.473622
     22          6           0       -2.865207    3.823668    4.283070
     23          6           0       -4.464613    6.156149    2.705320
     24          8           0       -3.954561    6.714970    3.589274
     25          7           0       -6.971634    2.608811   -0.590939
     26          6           0       -6.951996    3.955397   -0.348941
     27          6           0       -7.892016    4.679860   -1.306534
     28          6           0       -8.418374    3.612702   -2.026207
     29          6           0       -7.771232    2.360192   -1.598373
     30          6           0       -8.249175    5.991329   -1.183258
     31          6           0       -9.497059    3.735828   -3.120084
     32          6           0       -8.736184    3.873584   -4.436203
     33          7           0       -6.377033   -0.074778   -1.037291
     34          6           0       -7.469403   -0.011006   -1.972873
     35          6           0       -7.585074   -1.347826   -2.705122
     36          6           0       -6.630920   -2.155941   -2.097507
     37          6           0       -5.974080   -1.331280   -1.121510
     38          6           0       -8.661006   -1.645546   -3.729830
     39          6           0       -6.311079   -3.548877   -1.972680
     40          8           0       -6.551035   -4.480076   -2.631774
     41          6           0       -5.139644   -3.598078   -0.877368
     42          6           0       -5.399037   -4.637064    0.158979
     43          8           0       -5.673815   -4.537757    1.323291
     44          8           0       -5.239203   -5.870478   -0.300573
     45          6           0       -5.444908   -6.993501    0.524649
     46          6           0        2.348425   -5.089919    0.801135
     47          6           0        3.470326   -4.116459    1.000964
     48          6           0        4.055104   -3.334488    0.101661
     49          6           0        3.666828   -3.295487   -1.313172
     50          6           0        5.120250   -2.437341    0.497409
     51          6           0        6.516560   -2.747575   -0.040283
     52          6           0        7.639939   -1.834270    0.401265
     53          6           0        8.947232   -2.038788   -0.245199
     54          6           0        9.638166   -3.446022    0.063647
     55          6           0        9.905398   -0.875419    0.308384
     56          6           0       11.329876   -0.815029   -0.353926
     57          6           0       12.163776    0.240098    0.252276
     58          6           0       13.553515    0.376386   -0.475495
     59          6           0       14.488500   -0.790010   -0.287972
     60          6           0       14.271106    1.821341   -0.170665
     61          6           0       15.457297    2.232900   -0.876627
     62          6           0       16.051450    3.602021   -0.538367
     63          6           0       17.350928    3.966747   -1.341543
     64          6           0       17.147255    4.076174   -2.900082
     65          6           0       17.914419    5.128015   -0.745589
     66          1           0       -2.548411    1.407927    3.572050
     67          1           0       -6.498683    5.657461    0.507349
     68          1           0       -8.962584    1.205105   -3.097223
     69          1           0       -3.828322   -3.205440    2.087386
     70          1           0       -1.744545   -1.022783    2.585224
     71          1           0       -2.942759   -2.591065    4.221089
     72          1           0       -3.258911   -0.903928    4.686005
     73          1           0       -4.528355   -1.920322    3.865488
     74          1           0       -2.330365   -3.182342   -0.221282
     75          1           0       -1.383745   -1.782805    0.399003
     76          1           0       -0.574435   -3.138649    2.582111
     77          1           0       -1.461733   -4.548226    1.672768
     78          1           0       -1.859646    3.481749    4.151895
     79          1           0       -2.915970    4.941192    4.482989
     80          1           0       -3.300246    3.549973    5.112027
     81          1           0       -4.868060    6.825226    1.823845
     82          1           0      -10.133738    2.815023   -2.993428
     83          1           0      -10.080119    4.609215   -3.105767
     84          1           0       -9.528906    3.645275   -5.185195
     85          1           0       -8.285579    4.898819   -4.322489
     86          1           0       -7.862845    3.169675   -4.518044
     87          1           0       -8.515348   -1.177477   -4.802118
     88          1           0       -8.718096   -2.651209   -3.797385
     89          1           0       -9.656295   -1.320831   -3.317778
     90          1           0       -4.324531   -3.911084   -1.505305
     91          1           0        2.531287   -6.148754    1.127219
     92          1           0        2.051904   -5.216481   -0.266103
     93          1           0        3.674002   -4.095443    2.004370
     94          1           0        2.583963   -3.812510   -1.607800
     95          1           0        4.033655   -2.432380   -1.711991
     96          1           0        4.279963   -3.903713   -1.970325
     97          1           0        4.852626   -1.414802    0.206025
     98          1           0        5.339773   -2.528174    1.622561
     99          1           0        6.682400   -3.858216    0.247937
    100          1           0        6.528135   -2.706382   -1.202264
    101          1           0        7.593233   -0.689840    0.110658
    102          1           0        7.617528   -1.844752    1.597896
    103          1           0        8.828876   -1.954939   -1.422448
    104          1           0        9.065642   -4.381944   -0.205704
    105          1           0       10.550538   -3.624280   -0.504523
    106          1           0        9.797003   -3.602618    1.146932
    107          1           0        9.441430    0.040385   -0.122041
    108          1           0       10.220154   -0.967143    1.269987
    109          1           0       11.807042   -1.846571   -0.064528
    110          1           0       11.366843   -0.594109   -1.365315
    111          1           0       11.613759    1.308599    0.082205
    112          1           0       12.091956   -0.104833    1.364385
    113          1           0       13.312607    0.452281   -1.660227
    114          1           0       14.727163   -1.211120    0.783866
    115          1           0       14.301482   -1.657536   -0.866102
    116          1           0       15.600942   -0.329056   -0.621643
    117          1           0       13.583280    2.710174    0.059542
    118          1           0       14.645380    1.859979    0.944911
    119          1           0       16.295595    1.558978   -0.714006
    120          1           0       15.271548    2.158565   -1.869638
    121          1           0       15.302058    4.315864   -0.795283
    122          1           0       16.379655    3.475598    0.397391
    123          1           0       17.937118    2.931980   -1.232268
    124          1           0       16.165141    4.859846   -3.180192
    125          1           0       17.973827    4.398749   -3.316235
    126          1           0       16.850178    2.972326   -3.231826
    127          1           0       18.005656    4.984559    0.363850
    128          1           0       18.930688    5.335316   -1.135710
    129          1           0       17.370156    5.906286   -1.067184
    130          1           0       -5.009972   -7.920357    0.201602
    131          1           0       -6.656380   -7.201738    0.462602
    132          1           0       -5.001583   -6.815797    1.484364
    133          8           0       -7.766120    6.803239   -0.422571
    134          1           0       -9.016628    6.314568   -1.943063
 ---------------------------------------------------------------------

 SCF Done:  E(RCAM-B3LYP) =  -3043.45993679     A.U. after   15 cycles

 Excitation energies and oscillator strengths:

 Excited State   1:      Singlet-A      2.0125 eV  616.08 nm  f=0.1956  <S**2>=0.000
     243 -> 246        0.23863
     244 -> 245        0.65610
 This state for optimization and/or second-order correction.
 Total Energy, E(TD-HF/TD-KS) =  -3043.38598031
 Copying the excited state density for this state as the 1-particle RhoCI density.

 The electronic state is 1-A.
 Alpha  occ. eigenvalues --  -46.81393 -19.22612 -19.21474 -19.17821 -19.16799
 Alpha  occ. eigenvalues --  -19.16609 -19.16038 -19.15504 -14.38679 -14.37884
 Alpha  occ. eigenvalues --  -14.37395 -14.35916 -10.34649 -10.34360 -10.31550
 Alpha  occ. eigenvalues --  -10.29838 -10.29539 -10.27788 -10.27744 -10.27381
 Alpha  occ. eigenvalues --  -10.27350 -10.27105 -10.26800 -10.26777 -10.26368
 Alpha  occ. eigenvalues --  -10.26293 -10.26066 -10.25964 -10.25209 -10.25097
 Alpha  occ. eigenvalues --  -10.24973 -10.24785 -10.24552 -10.24320 -10.24312
 Alpha  occ. eigenvalues --  -10.24127 -10.23717 -10.23548 -10.23525 -10.23522
 Alpha  occ. eigenvalues --  -10.23417 -10.23387 -10.22883 -10.22776 -10.22692
 Alpha  occ. eigenvalues --  -10.22669 -10.22667 -10.22552 -10.22408 -10.22211
 Alpha  occ. eigenvalues --  -10.22182 -10.21925 -10.21879 -10.21818 -10.21792
 Alpha  occ. eigenvalues --  -10.21605 -10.21440 -10.20960 -10.20682 -10.20627
 Alpha  occ. eigenvalues --  -10.20501 -10.20139 -10.19517 -10.19193 -10.19042
 Alpha  occ. eigenvalues --  -10.18666  -3.10057  -1.84995  -1.84509  -1.84491
 Alpha  occ. eigenvalues --   -1.15363  -1.14708  -1.10620  -1.09494  -1.07251
 Alpha  occ. eigenvalues --   -1.04210  -1.03282  -1.01176  -1.00434  -0.99808
 Alpha  occ. eigenvalues --   -0.98131  -0.87712  -0.87292  -0.85722  -0.85691
 Alpha  occ. eigenvalues --   -0.85431  -0.85050  -0.84955  -0.84077  -0.83233
 Alpha  occ. eigenvalues --   -0.83088  -0.82503  -0.81598  -0.80854  -0.80296
 Alpha  occ. eigenvalues --   -0.79635  -0.79039  -0.77936  -0.77382  -0.77147
 Alpha  occ. eigenvalues --   -0.75611  -0.75054  -0.74115  -0.73062  -0.72681
 Alpha  occ. eigenvalues --   -0.71848  -0.71233  -0.70663  -0.70315  -0.70206
 Alpha  occ. eigenvalues --   -0.69677  -0.69189  -0.67533  -0.66133  -0.65568
 Alpha  occ. eigenvalues --   -0.65453  -0.64472  -0.64016  -0.62482  -0.61999
 Alpha  occ. eigenvalues --   -0.61534  -0.60780  -0.59466  -0.59035  -0.58532
 Alpha  occ. eigenvalues --   -0.58355  -0.57665  -0.57486  -0.57424  -0.56856
 Alpha  occ. eigenvalues --   -0.56683  -0.55954  -0.55870  -0.55260  -0.54651
 Alpha  occ. eigenvalues --   -0.54041  -0.53332  -0.52533  -0.52524  -0.52372
 Alpha  occ. eigenvalues --   -0.52175  -0.51876  -0.51777  -0.51669  -0.50965
 Alpha  occ. eigenvalues --   -0.50777  -0.50420  -0.49958  -0.49670  -0.49332
 Alpha  occ. eigenvalues --   -0.48992  -0.48778  -0.48580  -0.48362  -0.48234
 Alpha  occ. eigenvalues --   -0.47940  -0.47441  -0.47390  -0.47362  -0.47003
 Alpha  occ. eigenvalues --   -0.46911  -0.46727  -0.46406  -0.46326  -0.46172
 Alpha  occ. eigenvalues --   -0.46015  -0.45867  -0.45609  -0.45573  -0.45318
 Alpha  occ. eigenvalues --   -0.44993  -0.44751  -0.44387  -0.44384  -0.43991
 Alpha  occ. eigenvalues --   -0.43898  -0.43658  -0.43610  -0.43104  -0.42959
 Alpha  occ. eigenvalues --   -0.42616  -0.42411  -0.42243  -0.42037  -0.41956
 Alpha  occ. eigenvalues --   -0.41801  -0.41744  -0.41542  -0.41340  -0.41204
 Alpha  occ. eigenvalues --   -0.40686  -0.40571  -0.40523  -0.40464  -0.40345
 Alpha  occ. eigenvalues --   -0.39961  -0.39933  -0.39585  -0.39039  -0.39000
 Alpha  occ. eigenvalues --   -0.38764  -0.38697  -0.38556  -0.38037  -0.37823
 Alpha  occ. eigenvalues --   -0.37495  -0.37181  -0.36917  -0.36855  -0.36708
 Alpha  occ. eigenvalues --   -0.36582  -0.36350  -0.36016  -0.35650  -0.35508
 Alpha  occ. eigenvalues --   -0.35118  -0.34827  -0.34695  -0.34468  -0.34318
 Alpha  occ. eigenvalues --   -0.34086  -0.33473  -0.33251  -0.32895  -0.32801
 Alpha  occ. eigenvalues --   -0.32625  -0.32260  -0.32012  -0.31706  -0.31287
 Alpha  occ. eigenvalues --   -0.31115  -0.30906  -0.30376  -0.29833  -0.29409
 Alpha  occ. eigenvalues --   -0.29327  -0.28692  -0.28115  -0.27983  -0.27543
 Alpha  occ. eigenvalues --   -0.27373  -0.27001  -0.23185  -0.21357
 Alpha virt. eigenvalues --   -0.08427  -0.06492  -0.01391  -0.00263   0.01322
 Alpha virt. eigenvalues --    0.03309   0.03467   0.03986   0.04161   0.04775
 Alpha virt. eigenvalues --    0.05123   0.06565   0.08241   0.08739   0.09675

 Mulliken charges:
               1
     1  Mg   0.825517
     2  C    0.042021
     3  C   -0.196058
     4  C   -0.159967
     5  C   -0.144594
     6  N   -0.641870
     7  C    0.274557
     8  C   -0.164124
     9  C   -0.144664
    10  C    0.376348
    11  C   -0.309952
    12  C   -0.163506
    13  C   -0.251739
    14  C    0.593192
    15  O   -0.497301
    16  O   -0.423373
    17  N   -0.711666
    18  C    0.326857
    19  C    0.007682
    20  C   -0.028767
    21  C    0.341262
    22  C   -0.404422
    23  C    0.236361
    24  O   -0.377372
    25  N   -0.671032
    26  C    0.197993
    27  C    0.026706
    28  C   -0.021853
    29  C    0.342439
    30  C    0.224165
    31  C   -0.244369
    32  C   -0.302142
    33  N   -0.731928
    34  C    0.219575
    35  C    0.011723
    36  C    0.020077
    37  C    0.340831
    38  C   -0.379668
    39  C    0.352787
    40  O   -0.404978
    41  C   -0.319462
    42  C    0.603173
    43  O   -0.482990
    44  O   -0.426933
    45  C   -0.073401
    46  C   -0.018036
    47  C   -0.150667
    48  C    0.212303
    49  C   -0.386853
    50  C   -0.247137
    51  C   -0.171053
    52  C   -0.122845
    53  C   -0.055464
    54  C   -0.330153
    55  C   -0.158638
    56  C   -0.194439
    57  C   -0.151198
    58  C   -0.029512
    59  C   -0.304296
    60  C   -0.183251
    61  C   -0.181021
    62  C   -0.157019
    63  C   -0.060766
    64  C   -0.284274
    65  C   -0.291575
    66  H    0.079966
    67  H    0.154426
    68  H    0.116144
    69  H    0.143564
    70  H    0.104456
    71  H    0.125937
    72  H    0.112667
    73  H    0.114696
    74  H    0.095221
    75  H    0.130855
    76  H    0.112615
    77  H    0.122338
    78  H    0.119821
    79  H    0.144012
    80  H    0.143413
    81  H    0.070582
    82  H    0.101264
    83  H    0.122744
    84  H    0.110835
    85  H    0.116975
    86  H    0.114527
    87  H    0.123348
    88  H    0.153790
    89  H    0.124486
    90  H    0.172677
    91  H    0.115890
    92  H    0.116550
    93  H    0.081146
    94  H    0.146905
    95  H    0.110735
    96  H    0.119022
    97  H    0.107149
    98  H    0.089186
    99  H    0.094166
   100  H    0.072438
   101  H    0.075452
   102  H    0.069763
   103  H    0.075526
   104  H    0.089960
   105  H    0.109365
   106  H    0.098701
   107  H    0.094106
   108  H    0.100513
   109  H    0.080320
   110  H    0.091014
   111  H    0.065452
   112  H    0.076450
   113  H    0.068189
   114  H    0.093877
   115  H    0.119175
   116  H    0.073254
   117  H    0.082633
   118  H    0.061297
   119  H    0.086952
   120  H    0.094966
   121  H    0.091237
   122  H    0.098908
   123  H    0.057137
   124  H    0.055079
   125  H    0.118700
   126  H    0.092642
   127  H    0.095736
   128  H    0.090892
   129  H    0.116028
   130  H    0.127616
   131  H    0.101852
   132  H    0.130769
   133  O   -0.433527
   134  H    0.046183
 Sum of Mulliken charges =   0.00000

 Dipole moment (field-independent basis, Debye):
    X=              1.9856    Y=             -5.2581    Z=             -1.7681  Tot=              5.8921
 Quadrupole moment (field-independent basis, Debye-Ang):
   XX=           -357.8628   YY=           -438.9751   ZZ=           -394.8820
   XY=             11.5756   XZ=             27.2725   YZ=            -33.5367

 Normal termination of Gaussian 09 at Fri Oct  4 15:24:53 2019.
