 Gaussian 09, Revision D.01,
 Gaussian 09:  ES64L-G09RevD.01 24-Apr-2013

 ----------------------------------------------------------------------
 # td=(NStates=1) iop(3/107=0140000000,3/108=0140000000) iop(3/107=0140
 000000,3/108=0140000000) CAM-B3LYP/6-31G(d,p)
 ----------------------------------------------------------------------

 --
 TD
 --
 Symbolic Z-matrix:
 Charge =  0 Multiplicity = 1

                         Standard orientation:
 ---------------------------------------------------------------------
 Center     Atomic      Atomic             Coordinates (Angstroms)
 Number     Number       Type             X           Y           Z
 ---------------------------------------------------------------------
      1         12           0       -5.672150    1.202450    0.174309
      2          6           0       -4.963178   -2.068579   -0.316839
      3          6           0       -3.354758    1.266311    2.737610
      4          6           0       -6.107591    4.603507    0.523168
      5          6           0       -7.982637    1.224110   -2.447939
      6          7           0       -4.308634   -0.204819    1.076290
      7          6           0       -4.254762   -1.518085    0.704966
      8          6           0       -3.267953   -2.299603    1.458119
      9          6           0       -2.857171   -1.314501    2.568957
     10          6           0       -3.487454    0.001614    2.121228
     11          6           0       -3.568282   -1.820080    3.862586
     12          6           0       -2.021126   -2.719588    0.603140
     13          6           0       -1.007566   -3.472789    1.440439
     14          6           0        0.250456   -3.965345    0.671522
     15          8           0        0.491832   -3.494079   -0.453472
     16          8           0        1.003633   -4.835696    1.364096
     17          7           0       -4.837315    2.677678    1.430437
     18          6           0       -3.938256    2.436493    2.426281
     19          6           0       -3.669167    3.696235    3.103946
     20          6           0       -4.445034    4.654589    2.547890
     21          6           0       -5.146080    3.984311    1.514983
     22          6           0       -2.740480    3.773305    4.386298
     23          6           0       -4.566572    6.095090    3.060233
     24          8           0       -4.068565    6.503823    4.074038
     25          7           0       -6.876647    2.591700   -0.652883
     26          6           0       -6.967429    3.977769   -0.443694
     27          6           0       -7.940959    4.740330   -1.254710
     28          6           0       -8.444143    3.676965   -2.160246
     29          6           0       -7.736721    2.417000   -1.720744
     30          6           0       -8.403870    6.002451   -1.169428
     31          6           0       -9.435003    3.787561   -3.165355
     32          6           0       -9.035358    3.860755   -4.609420
     33          7           0       -6.330516   -0.079502   -1.221073
     34          6           0       -7.376955    0.006592   -2.101347
     35          6           0       -7.538767   -1.326624   -2.817042
     36          6           0       -6.643887   -2.128667   -2.115407
     37          6           0       -5.888859   -1.390871   -1.206474
     38          6           0       -8.509926   -1.774367   -3.800171
     39          6           0       -6.175290   -3.555997   -1.962463
     40          8           0       -6.625577   -4.584282   -2.488078
     41          6           0       -5.027110   -3.509295   -0.952214
     42          6           0       -5.365783   -4.673889    0.069604
     43          8           0       -5.853252   -4.382653    1.145000
     44          8           0       -4.953910   -5.874708   -0.340588
     45          6           0       -5.288955   -6.949172    0.553595
     46          6           0        2.253126   -5.138417    0.712376
     47          6           0        3.396407   -4.097375    1.089080
     48          6           0        4.076798   -3.354737    0.234490
     49          6           0        3.806919   -3.323055   -1.242722
     50          6           0        5.187009   -2.486953    0.700863
     51          6           0        6.540293   -2.738041    0.028422
     52          6           0        7.557499   -1.877929    0.712613
     53          6           0        9.040522   -1.940140    0.009937
     54          6           0        9.618425   -3.310042    0.284553
     55          6           0       10.000826   -0.817149    0.545683
     56          6           0       11.255554   -0.744133   -0.270201
     57          6           0       12.109472    0.400588    0.048420
     58          6           0       13.507040    0.538392   -0.549591
     59          6           0       14.347285   -0.731846   -0.423128
     60          6           0       14.174762    1.867113   -0.239452
     61          6           0       15.489304    2.123198   -1.081975
     62          6           0       16.126455    3.537021   -0.638089
     63          6           0       17.358691    3.834018   -1.364513
     64          6           0       17.240239    3.926838   -2.944427
     65          6           0       17.927723    5.228208   -0.888327
     66          1           0       -2.854348    1.123408    3.746835
     67          1           0       -6.453611    5.532879    0.904693
     68          1           0       -8.714116    1.183853   -3.127569
     69          1           0       -3.919476   -3.230046    2.063888
     70          1           0       -1.776196   -1.287441    2.613271
     71          1           0       -2.902487   -2.604917    4.237871
     72          1           0       -3.486297   -0.985867    4.663422
     73          1           0       -4.526989   -1.999896    3.730922
     74          1           0       -2.317305   -3.390251   -0.249548
     75          1           0       -1.319896   -1.847555    0.324338
     76          1           0       -0.679422   -3.003101    2.282776
     77          1           0       -1.545807   -4.365378    1.775327
     78          1           0       -1.682865    3.613989    4.181470
     79          1           0       -3.008146    4.909067    4.779515
     80          1           0       -3.122120    2.946385    5.028610
     81          1           0       -5.328226    6.763144    2.665723
     82          1           0      -10.058131    2.906196   -2.969883
     83          1           0      -10.205636    4.769204   -3.083873
     84          1           0      -10.014676    3.767889   -5.110690
     85          1           0       -8.541133    4.843004   -4.702330
     86          1           0       -8.327160    3.054015   -5.145899
     87          1           0       -8.286929   -1.240233   -4.705385
     88          1           0       -8.505825   -2.710004   -4.000516
     89          1           0       -9.449323   -1.475506   -3.549661
     90          1           0       -4.129793   -3.885909   -1.540586
     91          1           0        2.429263   -6.083162    1.006720
     92          1           0        2.086959   -5.210139   -0.376494
     93          1           0        3.830105   -4.041265    2.061229
     94          1           0        2.726315   -3.367257   -1.373014
     95          1           0        4.114428   -2.291647   -1.672001
     96          1           0        4.498052   -3.893175   -1.926998
     97          1           0        4.788929   -1.640574    0.690263
     98          1           0        5.290095   -2.715334    1.748853
     99          1           0        6.810541   -3.855528    0.129034
    100          1           0        6.560852   -2.367425   -1.141236
    101          1           0        7.405729   -0.820145    0.439435
    102          1           0        7.789941   -2.081142    1.742030
    103          1           0        9.013518   -1.818226   -1.067850
    104          1           0        8.990787   -4.323223    0.133919
    105          1           0       10.593697   -3.499763   -0.202214
    106          1           0        9.815130   -3.145145    1.366826
    107          1           0        9.377685    0.156533    0.294525
    108          1           0       10.201900   -1.129820    1.617992
    109          1           0       11.818916   -1.671914   -0.082353
    110          1           0       11.075740   -0.961102   -1.287380
    111          1           0       11.567832    1.457800   -0.252451
    112          1           0       12.165409    0.366111    1.216913
    113          1           0       13.248972    0.545443   -1.776986
    114          1           0       14.815936   -0.905439    0.610356
    115          1           0       13.908302   -1.643515   -0.615466
    116          1           0       15.328389   -0.804642   -1.115476
    117          1           0       13.567600    2.816097   -0.634122
    118          1           0       14.312770    1.907736    0.937481
    119          1           0       16.151788    1.493840   -1.152972
    120          1           0       15.219274    2.142507   -2.192681
    121          1           0       15.305934    4.357937   -0.942927
    122          1           0       16.256644    3.698004    0.481140
    123          1           0       18.311795    3.225030   -0.946070
    124          1           0       16.462708    4.463500   -3.057611
    125          1           0       18.280324    4.069912   -3.543692
    126          1           0       17.111729    2.970058   -3.396060
    127          1           0       17.977391    5.232144    0.155228
    128          1           0       18.964187    5.225869   -1.378951
    129          1           0       17.237752    6.147875   -0.818676
    130          1           0       -5.111840   -7.946613    0.076471
    131          1           0       -6.314106   -7.030961    0.781669
    132          1           0       -4.658859   -6.771438    1.448808
    133          8           0       -7.865289    6.799130   -0.354531
    134          1           0       -9.312334    6.299632   -1.901260
 ---------------------------------------------------------------------

 SCF Done:  E(RCAM-B3LYP) =  -3043.42434224     A.U. after   16 cycles

 Excitation energies and oscillator strengths:

 Excited State   1:      Singlet-A      1.9772 eV  627.07 nm  f=0.1647  <S**2>=0.000
     243 -> 245       -0.11451
     243 -> 246       -0.26130
     244 -> 245        0.62964
     244 -> 246       -0.11950
 This state for optimization and/or second-order correction.
 Total Energy, E(TD-HF/TD-KS) =  -3043.35168166
 Copying the excited state density for this state as the 1-particle RhoCI density.

 The electronic state is 1-A.
 Alpha  occ. eigenvalues --  -46.81745 -19.23975 -19.23585 -19.17771 -19.17496
 Alpha  occ. eigenvalues --  -19.17373 -19.16975 -19.15685 -14.39086 -14.37697
 Alpha  occ. eigenvalues --  -14.36415 -14.36225 -10.35796 -10.35588 -10.31513
 Alpha  occ. eigenvalues --  -10.30874 -10.29667 -10.27933 -10.27567 -10.27519
 Alpha  occ. eigenvalues --  -10.27240 -10.26838 -10.26792 -10.26532 -10.26378
 Alpha  occ. eigenvalues --  -10.25988 -10.25663 -10.25647 -10.25404 -10.24981
 Alpha  occ. eigenvalues --  -10.24965 -10.24741 -10.24579 -10.24175 -10.24099
 Alpha  occ. eigenvalues --  -10.23815 -10.23472 -10.23409 -10.23404 -10.23368
 Alpha  occ. eigenvalues --  -10.23105 -10.23067 -10.22991 -10.22874 -10.22816
 Alpha  occ. eigenvalues --  -10.22754 -10.22619 -10.22335 -10.22277 -10.22213
 Alpha  occ. eigenvalues --  -10.22209 -10.22204 -10.22147 -10.21814 -10.21615
 Alpha  occ. eigenvalues --  -10.21228 -10.21213 -10.21113 -10.21109 -10.20984
 Alpha  occ. eigenvalues --  -10.20115 -10.20065 -10.20058 -10.20013 -10.19940
 Alpha  occ. eigenvalues --  -10.19640  -3.10266  -1.85203  -1.84756  -1.84659
 Alpha  occ. eigenvalues --   -1.14568  -1.13772  -1.08355  -1.05727  -1.05548
 Alpha  occ. eigenvalues --   -1.04303  -1.03786  -1.01125  -1.00024  -0.99131
 Alpha  occ. eigenvalues --   -0.97745  -0.87913  -0.86858  -0.86124  -0.86077
 Alpha  occ. eigenvalues --   -0.85696  -0.84350  -0.84194  -0.83518  -0.83048
 Alpha  occ. eigenvalues --   -0.82923  -0.82479  -0.81986  -0.80477  -0.79693
 Alpha  occ. eigenvalues --   -0.79593  -0.78368  -0.77962  -0.76878  -0.76604
 Alpha  occ. eigenvalues --   -0.75359  -0.74674  -0.73640  -0.73286  -0.71904
 Alpha  occ. eigenvalues --   -0.71826  -0.71746  -0.70412  -0.70235  -0.70100
 Alpha  occ. eigenvalues --   -0.69189  -0.68756  -0.67410  -0.66297  -0.65967
 Alpha  occ. eigenvalues --   -0.65741  -0.65496  -0.63731  -0.63259  -0.62182
 Alpha  occ. eigenvalues --   -0.61247  -0.60863  -0.60747  -0.59462  -0.59174
 Alpha  occ. eigenvalues --   -0.58777  -0.57954  -0.57746  -0.56808  -0.56455
 Alpha  occ. eigenvalues --   -0.56145  -0.55751  -0.55252  -0.55085  -0.54347
 Alpha  occ. eigenvalues --   -0.54004  -0.53507  -0.53178  -0.52908  -0.52498
 Alpha  occ. eigenvalues --   -0.52249  -0.51859  -0.51665  -0.51463  -0.51000
 Alpha  occ. eigenvalues --   -0.50578  -0.50172  -0.50087  -0.49862  -0.49704
 Alpha  occ. eigenvalues --   -0.49332  -0.48621  -0.48425  -0.48181  -0.47827
 Alpha  occ. eigenvalues --   -0.47745  -0.47448  -0.47328  -0.47165  -0.47111
 Alpha  occ. eigenvalues --   -0.47023  -0.46386  -0.46274  -0.46214  -0.45967
 Alpha  occ. eigenvalues --   -0.45450  -0.45364  -0.45247  -0.44997  -0.44924
 Alpha  occ. eigenvalues --   -0.44418  -0.44214  -0.44182  -0.43805  -0.43527
 Alpha  occ. eigenvalues --   -0.43297  -0.43193  -0.42956  -0.42798  -0.42712
 Alpha  occ. eigenvalues --   -0.42399  -0.42182  -0.42042  -0.42015  -0.41911
 Alpha  occ. eigenvalues --   -0.41775  -0.41479  -0.41244  -0.41021  -0.40845
 Alpha  occ. eigenvalues --   -0.40727  -0.40598  -0.40260  -0.40133  -0.40004
 Alpha  occ. eigenvalues --   -0.39781  -0.39555  -0.39299  -0.39179  -0.39109
 Alpha  occ. eigenvalues --   -0.39067  -0.38755  -0.38594  -0.38343  -0.38143
 Alpha  occ. eigenvalues --   -0.38031  -0.37580  -0.37293  -0.37247  -0.37047
 Alpha  occ. eigenvalues --   -0.36467  -0.36283  -0.36089  -0.36023  -0.35902
 Alpha  occ. eigenvalues --   -0.35464  -0.35281  -0.34840  -0.34724  -0.34487
 Alpha  occ. eigenvalues --   -0.34382  -0.34226  -0.33827  -0.33609  -0.33538
 Alpha  occ. eigenvalues --   -0.33073  -0.32832  -0.32276  -0.31625  -0.31220
 Alpha  occ. eigenvalues --   -0.31126  -0.30709  -0.30590  -0.30394  -0.29291
 Alpha  occ. eigenvalues --   -0.28495  -0.27867  -0.27821  -0.27762  -0.27659
 Alpha  occ. eigenvalues --   -0.27390  -0.27001  -0.22711  -0.20822
 Alpha virt. eigenvalues --   -0.08160  -0.06801  -0.01427  -0.00746   0.00436
 Alpha virt. eigenvalues --    0.02904   0.03252   0.03524   0.04517   0.04733
 Alpha virt. eigenvalues --    0.04901   0.05619   0.07199   0.08300   0.09005

 Mulliken charges:
               1
     1  Mg   0.837597
     2  C    0.114671
     3  C   -0.213442
     4  C   -0.166867
     5  C   -0.124434
     6  N   -0.622846
     7  C    0.329874
     8  C   -0.162692
     9  C   -0.159864
    10  C    0.331634
    11  C   -0.303495
    12  C   -0.171789
    13  C   -0.269306
    14  C    0.596332
    15  O   -0.475618
    16  O   -0.448442
    17  N   -0.679873
    18  C    0.346985
    19  C    0.021607
    20  C   -0.034452
    21  C    0.254092
    22  C   -0.383483
    23  C    0.256685
    24  O   -0.388099
    25  N   -0.666872
    26  C    0.249898
    27  C    0.094113
    28  C    0.056851
    29  C    0.295744
    30  C    0.171451
    31  C   -0.289964
    32  C   -0.291625
    33  N   -0.727892
    34  C    0.253161
    35  C   -0.012001
    36  C    0.027321
    37  C    0.245686
    38  C   -0.362445
    39  C    0.378825
    40  O   -0.479630
    41  C   -0.326140
    42  C    0.626723
    43  O   -0.472839
    44  O   -0.429553
    45  C   -0.096508
    46  C   -0.003050
    47  C   -0.148416
    48  C    0.138258
    49  C   -0.391801
    50  C   -0.202225
    51  C   -0.163856
    52  C   -0.156859
    53  C   -0.101651
    54  C   -0.295412
    55  C   -0.162150
    56  C   -0.171653
    57  C   -0.142177
    58  C   -0.027095
    59  C   -0.315661
    60  C   -0.153971
    61  C   -0.168302
    62  C   -0.162660
    63  C   -0.056826
    64  C   -0.289129
    65  C   -0.306515
    66  H    0.082974
    67  H    0.119914
    68  H    0.073965
    69  H    0.113969
    70  H    0.106519
    71  H    0.118180
    72  H    0.088875
    73  H    0.143328
    74  H    0.114914
    75  H    0.123776
    76  H    0.137360
    77  H    0.122448
    78  H    0.127710
    79  H    0.152992
    80  H    0.114982
    81  H    0.095777
    82  H    0.119960
    83  H    0.098028
    84  H    0.116848
    85  H    0.122586
    86  H    0.098564
    87  H    0.125115
    88  H    0.149513
    89  H    0.134409
    90  H    0.160035
    91  H    0.119773
    92  H    0.134684
    93  H    0.072384
    94  H    0.153994
    95  H    0.087568
    96  H    0.119778
    97  H    0.124105
    98  H    0.087383
    99  H    0.094425
   100  H    0.075712
   101  H    0.096182
   102  H    0.094821
   103  H    0.080265
   104  H    0.083001
   105  H    0.098102
   106  H    0.088001
   107  H    0.081135
   108  H    0.087833
   109  H    0.092564
   110  H    0.095677
   111  H    0.062304
   112  H    0.070112
   113  H    0.045197
   114  H    0.087619
   115  H    0.119156
   116  H    0.080764
   117  H    0.086350
   118  H    0.078372
   119  H    0.103540
   120  H    0.081842
   121  H    0.065512
   122  H    0.092148
   123  H    0.066115
   124  H    0.118302
   125  H    0.082370
   126  H    0.102020
   127  H    0.098603
   128  H    0.095262
   129  H    0.082380
   130  H    0.126605
   131  H    0.146692
   132  H    0.126662
   133  O   -0.452448
   134  H    0.056465
 Sum of Mulliken charges =   0.00000

 Dipole moment (field-independent basis, Debye):
    X=              1.9675    Y=             -6.4683    Z=             -1.0286  Tot=              6.8387
 Quadrupole moment (field-independent basis, Debye-Ang):
   XX=           -369.7308   YY=           -436.5300   ZZ=           -394.4003
   XY=              4.2448   XZ=             24.0105   YZ=            -33.2365

 Normal termination of Gaussian 09 at Tue Oct  8 20:13:29 2019.
