 Gaussian 09, Revision D.01,
 Gaussian 09:  ES64L-G09RevD.01 24-Apr-2013

 ----------------------------------------------------------------------
 # td=(NStates=1) iop(3/107=0140000000,3/108=0140000000) iop(3/107=0140
 000000,3/108=0140000000) CAM-B3LYP/6-31G(d,p)
 ----------------------------------------------------------------------

 --
 TD
 --
 Symbolic Z-matrix:
 Charge =  0 Multiplicity = 1

                         Standard orientation:
 ---------------------------------------------------------------------
 Center     Atomic      Atomic             Coordinates (Angstroms)
 Number     Number       Type             X           Y           Z
 ---------------------------------------------------------------------
      1         12           0       -5.706528    1.217340    0.204853
      2          6           0       -5.009419   -2.150765   -0.430388
      3          6           0       -3.427129    1.171396    2.814099
      4          6           0       -6.362806    4.529269    0.649280
      5          6           0       -8.028597    1.100507   -2.335703
      6          7           0       -4.405021   -0.274532    1.041392
      7          6           0       -4.296033   -1.599170    0.749641
      8          6           0       -3.174097   -2.272642    1.404241
      9          6           0       -2.935596   -1.313010    2.560684
     10          6           0       -3.579985   -0.031630    2.136591
     11          6           0       -3.443470   -1.779902    4.007911
     12          6           0       -1.928435   -2.813944    0.644077
     13          6           0       -0.956458   -3.503659    1.543389
     14          6           0        0.278079   -3.775113    0.725360
     15          8           0        0.546481   -3.246741   -0.299617
     16          8           0        1.138558   -4.628069    1.445862
     17          7           0       -5.035605    2.510097    1.482170
     18          6           0       -4.092584    2.445352    2.472741
     19          6           0       -3.820364    3.576506    3.236939
     20          6           0       -4.585113    4.590294    2.632582
     21          6           0       -5.362509    3.981909    1.556508
     22          6           0       -2.920568    3.646182    4.379707
     23          6           0       -4.672295    5.982334    2.874756
     24          8           0       -3.959085    6.670289    3.650645
     25          7           0       -6.997217    2.608096   -0.625919
     26          6           0       -7.045221    3.874298   -0.285624
     27          6           0       -8.028420    4.596674   -1.228485
     28          6           0       -8.483687    3.617714   -2.069760
     29          6           0       -7.817995    2.371293   -1.718606
     30          6           0       -8.493331    5.994789   -1.145783
     31          6           0       -9.546620    3.727999   -3.133404
     32          6           0       -8.815356    3.883013   -4.568644
     33          7           0       -6.324704   -0.108848   -1.180425
     34          6           0       -7.331008   -0.026322   -2.085159
     35          6           0       -7.553733   -1.332623   -2.715647
     36          6           0       -6.687194   -2.204069   -2.109157
     37          6           0       -5.923397   -1.448978   -1.179515
     38          6           0       -8.511286   -1.754663   -3.766296
     39          6           0       -6.215247   -3.632653   -2.032098
     40          8           0       -6.511342   -4.543014   -2.691079
     41          6           0       -5.002054   -3.531309   -0.947241
     42          6           0       -5.243874   -4.576061    0.017413
     43          8           0       -5.643389   -4.460120    1.149376
     44          8           0       -5.015396   -5.840069   -0.581679
     45          6           0       -5.150110   -6.912529    0.392587
     46          6           0        2.397920   -5.061650    0.779318
     47          6           0        3.572860   -4.082150    1.060538
     48          6           0        4.070456   -3.279615    0.232734
     49          6           0        3.795969   -3.040686   -1.241517
     50          6           0        5.187760   -2.460908    0.720142
     51          6           0        6.540837   -2.756305    0.023414
     52          6           0        7.680820   -1.887483    0.746068
     53          6           0        9.029552   -1.939331   -0.170605
     54          6           0        9.637894   -3.366588   -0.072794
     55          6           0        9.997587   -0.922049    0.479611
     56          6           0       11.436531   -0.871986   -0.150728
     57          6           0       12.203102    0.304617    0.103510
     58          6           0       13.550021    0.512722   -0.695210
     59          6           0       14.519638   -0.751877   -0.312069
     60          6           0       14.277643    1.847590   -0.250061
     61          6           0       15.510109    2.175892   -1.157571
     62          6           0       16.083367    3.541622   -0.704321
     63          6           0       17.297209    3.962326   -1.377847
     64          6           0       17.223266    4.208926   -2.882433
     65          6           0       17.853945    5.263378   -0.686442
     66          1           0       -3.002407    1.317311    3.847772
     67          1           0       -6.652472    5.557466    0.689487
     68          1           0       -9.060281    1.024670   -3.048071
     69          1           0       -3.584583   -3.193574    1.964941
     70          1           0       -1.880926   -1.250963    2.776342
     71          1           0       -3.051489   -2.612234    4.293208
     72          1           0       -3.182646   -1.002367    4.612722
     73          1           0       -4.312708   -1.966174    3.921668
     74          1           0       -2.182710   -3.411048   -0.049943
     75          1           0       -1.602277   -1.907887    0.159624
     76          1           0       -0.647092   -3.042437    2.474375
     77          1           0       -1.428764   -4.318097    1.977377
     78          1           0       -1.829214    3.490251    4.096752
     79          1           0       -3.056016    4.568046    4.588892
     80          1           0       -3.043737    3.025302    5.085918
     81          1           0       -5.385794    6.566404    2.126325
     82          1           0      -10.119444    2.831816   -3.203452
     83          1           0      -10.251494    4.593241   -3.025247
     84          1           0       -9.637370    3.897867   -5.321629
     85          1           0       -8.288794    4.981000   -4.584759
     86          1           0       -8.118812    2.916463   -4.666317
     87          1           0       -8.155435   -1.272562   -4.900588
     88          1           0       -8.383235   -2.910563   -3.897393
     89          1           0       -9.597962   -1.270682   -3.621684
     90          1           0       -3.938119   -3.893776   -1.393243
     91          1           0        2.498888   -6.077565    1.126037
     92          1           0        2.218250   -5.128239   -0.421104
     93          1           0        3.691797   -4.100482    2.180854
     94          1           0        2.767537   -3.165714   -1.448805
     95          1           0        4.169053   -2.160280   -1.442326
     96          1           0        4.360847   -3.775702   -1.899831
     97          1           0        5.163574   -1.372607    0.687462
     98          1           0        5.245173   -2.502407    1.840983
     99          1           0        6.699538   -3.722168    0.053349
    100          1           0        6.437453   -2.528269   -1.146065
    101          1           0        7.178107   -0.966761    0.636734
    102          1           0        7.766006   -2.416084    1.815594
    103          1           0        8.686054   -1.575033   -1.035674
    104          1           0        8.889416   -4.193947   -0.239499
    105          1           0       10.500022   -3.450984   -0.619945
    106          1           0       10.050571   -3.520767    1.041773
    107          1           0        9.702860    0.254404    0.396301
    108          1           0       10.080470   -1.159294    1.703815
    109          1           0       12.141001   -1.622878    0.060643
    110          1           0       11.507848   -1.013858   -1.338531
    111          1           0       11.635947    1.308024    0.150746
    112          1           0       12.419322    0.443768    1.110555
    113          1           0       13.343156    0.472066   -1.729800
    114          1           0       14.796560   -0.346496    0.738339
    115          1           0       14.161821   -1.943437   -0.045873
    116          1           0       15.358866   -0.785349   -1.039846
    117          1           0       13.651713    2.512865   -0.389139
    118          1           0       14.586205    1.867197    0.814827
    119          1           0       16.380710    1.484478   -1.055292
    120          1           0       15.359807    2.199884   -2.224530
    121          1           0       15.268010    4.249293   -0.752679
    122          1           0       16.193442    3.345353    0.482635
    123          1           0       18.063100    3.246197   -1.303115
    124          1           0       16.560409    5.041775   -3.402741
    125          1           0       18.276630    4.410879   -3.176347
    126          1           0       16.884548    3.442288   -3.791943
    127          1           0       17.986172    4.825268    0.347960
    128          1           0       18.913736    5.484216   -1.014329
    129          1           0       17.270565    6.136321   -0.840962
    130          1           0       -4.566192   -7.754743   -0.087864
    131          1           0       -6.262399   -7.007657    0.381804
    132          1           0       -4.734623   -6.563898    1.679626
    133          8           0       -8.071256    6.864415   -0.446637
    134          1           0       -9.172046    6.165976   -1.944999
 ---------------------------------------------------------------------

 SCF Done:  E(RCAM-B3LYP) =  -3043.32205183     A.U. after   15 cycles

 Excitation energies and oscillator strengths:

 Excited State   1:      Singlet-A      1.9456 eV  637.27 nm  f=0.1871  <S**2>=0.000
     243 -> 246        0.26677
     244 -> 245        0.64886
 This state for optimization and/or second-order correction.
 Total Energy, E(TD-HF/TD-KS) =  -3043.25055382
 Copying the excited state density for this state as the 1-particle RhoCI density.

 The electronic state is 1-A.
 Alpha  occ. eigenvalues --  -46.80837 -19.22006 -19.21438 -19.19755 -19.18514
 Alpha  occ. eigenvalues --  -19.18212 -19.17745 -19.16161 -14.39699 -14.37215
 Alpha  occ. eigenvalues --  -14.37136 -14.36752 -10.35437 -10.35095 -10.33534
 Alpha  occ. eigenvalues --  -10.30180 -10.29797 -10.29615 -10.28939 -10.28182
 Alpha  occ. eigenvalues --  -10.27357 -10.27202 -10.27175 -10.26625 -10.26269
 Alpha  occ. eigenvalues --  -10.26166 -10.26163 -10.25762 -10.25582 -10.25547
 Alpha  occ. eigenvalues --  -10.25441 -10.24709 -10.24683 -10.24468 -10.24086
 Alpha  occ. eigenvalues --  -10.24021 -10.23672 -10.23591 -10.23428 -10.23372
 Alpha  occ. eigenvalues --  -10.23362 -10.23309 -10.23228 -10.23031 -10.22975
 Alpha  occ. eigenvalues --  -10.22415 -10.22262 -10.22196 -10.22165 -10.22076
 Alpha  occ. eigenvalues --  -10.21993 -10.21822 -10.21703 -10.21222 -10.20999
 Alpha  occ. eigenvalues --  -10.20830 -10.20770 -10.20749 -10.20701 -10.20481
 Alpha  occ. eigenvalues --  -10.20354 -10.19969 -10.19790 -10.19512 -10.19126
 Alpha  occ. eigenvalues --  -10.18408  -3.09617  -1.84536  -1.84089  -1.84053
 Alpha  occ. eigenvalues --   -1.12845  -1.12673  -1.11955  -1.08623  -1.04854
 Alpha  occ. eigenvalues --   -1.04750  -1.03523  -1.00958  -1.00354  -0.99696
 Alpha  occ. eigenvalues --   -0.97019  -0.89716  -0.87273  -0.86804  -0.85623
 Alpha  occ. eigenvalues --   -0.85404  -0.84379  -0.84352  -0.84217  -0.83768
 Alpha  occ. eigenvalues --   -0.83266  -0.82728  -0.82370  -0.80604  -0.79952
 Alpha  occ. eigenvalues --   -0.79028  -0.78177  -0.77653  -0.77189  -0.76655
 Alpha  occ. eigenvalues --   -0.75403  -0.74856  -0.74554  -0.72487  -0.72408
 Alpha  occ. eigenvalues --   -0.71609  -0.70340  -0.70057  -0.69861  -0.69749
 Alpha  occ. eigenvalues --   -0.69290  -0.69002  -0.67798  -0.67170  -0.66440
 Alpha  occ. eigenvalues --   -0.65797  -0.64812  -0.64371  -0.62881  -0.62031
 Alpha  occ. eigenvalues --   -0.61803  -0.61310  -0.60540  -0.59722  -0.59485
 Alpha  occ. eigenvalues --   -0.59130  -0.58662  -0.58281  -0.57175  -0.56974
 Alpha  occ. eigenvalues --   -0.56695  -0.55564  -0.55262  -0.54989  -0.54651
 Alpha  occ. eigenvalues --   -0.54049  -0.53658  -0.53445  -0.52909  -0.52310
 Alpha  occ. eigenvalues --   -0.52141  -0.51622  -0.51146  -0.50755  -0.50601
 Alpha  occ. eigenvalues --   -0.50534  -0.50277  -0.50011  -0.49646  -0.49581
 Alpha  occ. eigenvalues --   -0.49280  -0.48728  -0.48448  -0.48324  -0.47932
 Alpha  occ. eigenvalues --   -0.47822  -0.47546  -0.47336  -0.47199  -0.47012
 Alpha  occ. eigenvalues --   -0.46676  -0.46384  -0.46300  -0.46205  -0.45920
 Alpha  occ. eigenvalues --   -0.45800  -0.45415  -0.45269  -0.45179  -0.45016
 Alpha  occ. eigenvalues --   -0.44907  -0.44844  -0.44447  -0.44215  -0.44101
 Alpha  occ. eigenvalues --   -0.43620  -0.43513  -0.43443  -0.43168  -0.43007
 Alpha  occ. eigenvalues --   -0.42782  -0.42623  -0.42396  -0.42206  -0.42095
 Alpha  occ. eigenvalues --   -0.41822  -0.41674  -0.41491  -0.41189  -0.41019
 Alpha  occ. eigenvalues --   -0.40955  -0.40565  -0.40428  -0.40106  -0.39841
 Alpha  occ. eigenvalues --   -0.39719  -0.39503  -0.39385  -0.39309  -0.39103
 Alpha  occ. eigenvalues --   -0.39024  -0.39000  -0.38440  -0.38230  -0.38131
 Alpha  occ. eigenvalues --   -0.38023  -0.38014  -0.37900  -0.37515  -0.37456
 Alpha  occ. eigenvalues --   -0.37043  -0.36792  -0.36553  -0.36094  -0.36043
 Alpha  occ. eigenvalues --   -0.35940  -0.35822  -0.35134  -0.35016  -0.34563
 Alpha  occ. eigenvalues --   -0.34461  -0.34110  -0.33901  -0.33652  -0.33147
 Alpha  occ. eigenvalues --   -0.32874  -0.32652  -0.32276  -0.31908  -0.31794
 Alpha  occ. eigenvalues --   -0.31625  -0.31137  -0.30830  -0.30468  -0.29554
 Alpha  occ. eigenvalues --   -0.29414  -0.28973  -0.28515  -0.28277  -0.28258
 Alpha  occ. eigenvalues --   -0.27530  -0.26939  -0.23022  -0.21495
 Alpha virt. eigenvalues --   -0.08872  -0.06617  -0.02368  -0.00947   0.00501
 Alpha virt. eigenvalues --    0.02555   0.03176   0.03617   0.04168   0.04281
 Alpha virt. eigenvalues --    0.04994   0.05319   0.07094   0.07551   0.08249

 Mulliken charges:
               1
     1  Mg   0.824557
     2  C    0.092754
     3  C   -0.186101
     4  C   -0.161078
     5  C   -0.197628
     6  N   -0.616615
     7  C    0.329759
     8  C   -0.181185
     9  C   -0.188929
    10  C    0.351203
    11  C   -0.281868
    12  C   -0.135271
    13  C   -0.278337
    14  C    0.612485
    15  O   -0.427493
    16  O   -0.507419
    17  N   -0.697930
    18  C    0.295646
    19  C    0.042235
    20  C    0.029710
    21  C    0.214888
    22  C   -0.346708
    23  C    0.199227
    24  O   -0.442724
    25  N   -0.705071
    26  C    0.342362
    27  C   -0.058357
    28  C    0.049877
    29  C    0.281506
    30  C    0.269604
    31  C   -0.260894
    32  C   -0.300371
    33  N   -0.739679
    34  C    0.349910
    35  C    0.031169
    36  C    0.030903
    37  C    0.252319
    38  C   -0.386467
    39  C    0.393383
    40  O   -0.386298
    41  C   -0.368652
    42  C    0.624017
    43  O   -0.460398
    44  O   -0.475152
    45  C   -0.067755
    46  C   -0.006042
    47  C   -0.148559
    48  C    0.186220
    49  C   -0.366707
    50  C   -0.254739
    51  C   -0.188010
    52  C   -0.176146
    53  C   -0.032691
    54  C   -0.310269
    55  C   -0.159283
    56  C   -0.156931
    57  C   -0.173151
    58  C   -0.083813
    59  C   -0.303677
    60  C   -0.157746
    61  C   -0.194704
    62  C   -0.149487
    63  C   -0.058663
    64  C   -0.306523
    65  C   -0.306998
    66  H    0.084178
    67  H    0.129512
    68  H    0.087342
    69  H    0.112158
    70  H    0.104651
    71  H    0.107096
    72  H    0.113399
    73  H    0.125390
    74  H    0.113659
    75  H    0.130796
    76  H    0.147116
    77  H    0.140108
    78  H    0.118033
    79  H    0.144784
    80  H    0.131961
    81  H    0.072525
    82  H    0.115751
    83  H    0.113436
    84  H    0.112597
    85  H    0.103337
    86  H    0.108669
    87  H    0.099718
    88  H    0.149242
    89  H    0.116955
    90  H    0.155956
    91  H    0.117391
    92  H    0.092986
    93  H    0.086941
    94  H    0.147020
    95  H    0.124776
    96  H    0.108683
    97  H    0.093931
    98  H    0.084185
    99  H    0.110245
   100  H    0.067211
   101  H    0.101418
   102  H    0.086592
   103  H    0.097064
   104  H    0.103031
   105  H    0.122357
   106  H    0.083658
   107  H    0.073090
   108  H    0.065593
   109  H    0.104424
   110  H    0.058422
   111  H    0.054621
   112  H    0.091478
   113  H    0.092933
   114  H    0.095283
   115  H    0.073051
   116  H    0.105890
   117  H    0.107262
   118  H    0.091687
   119  H    0.087850
   120  H    0.099359
   121  H    0.092203
   122  H    0.058646
   123  H    0.102431
   124  H    0.086733
   125  H    0.101629
   126  H    0.068691
   127  H    0.099193
   128  H    0.090343
   129  H    0.117585
   130  H    0.127574
   131  H    0.140492
   132  H    0.084175
   133  O   -0.406527
   134  H    0.058820
 Sum of Mulliken charges =   0.00000

 Dipole moment (field-independent basis, Debye):
    X=              1.1881    Y=             -6.1711    Z=             -1.8774  Tot=              6.5589
 Quadrupole moment (field-independent basis, Debye-Ang):
   XX=           -360.9087   YY=           -447.7682   ZZ=           -392.6166
   XY=             17.1224   XZ=             23.8609   YZ=            -34.8568

 Normal termination of Gaussian 09 at Fri Oct  4 09:02:18 2019.
