 Gaussian 09, Revision D.01,
 Gaussian 09:  ES64L-G09RevD.01 24-Apr-2013

 ----------------------------------------------------------------------
 # td=(NStates=1) iop(3/107=0140000000,3/108=0140000000) iop(3/107=0140
 000000,3/108=0140000000) CAM-B3LYP/6-31G(d,p)
 ----------------------------------------------------------------------

 --
 TD
 --
 Symbolic Z-matrix:
 Charge =  0 Multiplicity = 1

                         Standard orientation:
 ---------------------------------------------------------------------
 Center     Atomic      Atomic             Coordinates (Angstroms)
 Number     Number       Type             X           Y           Z
 ---------------------------------------------------------------------
      1         12           0       -5.690377    1.182060    0.231122
      2          6           0       -4.928187   -2.129348   -0.409605
      3          6           0       -3.502219    1.061174    2.809958
      4          6           0       -6.103039    4.660876    0.691249
      5          6           0       -7.977488    1.226069   -2.350101
      6          7           0       -4.504338   -0.238281    1.147201
      7          6           0       -4.328360   -1.611253    0.712077
      8          6           0       -3.285112   -2.429787    1.510400
      9          6           0       -3.022295   -1.365117    2.683092
     10          6           0       -3.664313   -0.202738    2.112094
     11          6           0       -3.398652   -1.923973    4.079468
     12          6           0       -1.938881   -2.677870    0.624453
     13          6           0       -1.022535   -3.655845    1.417817
     14          6           0        0.262913   -3.993315    0.655617
     15          8           0        0.469857   -3.531353   -0.439979
     16          8           0        0.972910   -4.846702    1.361257
     17          7           0       -4.956473    2.550328    1.538445
     18          6           0       -4.071037    2.396806    2.543865
     19          6           0       -3.706735    3.587151    3.207281
     20          6           0       -4.510367    4.512455    2.619912
     21          6           0       -5.155654    3.963259    1.539145
     22          6           0       -2.750011    3.773125    4.428275
     23          6           0       -4.453411    5.979817    2.905932
     24          8           0       -3.920769    6.568980    3.894257
     25          7           0       -6.890019    2.641707   -0.698301
     26          6           0       -6.861370    4.076524   -0.365099
     27          6           0       -7.848785    4.635890   -1.213895
     28          6           0       -8.343609    3.742995   -2.061703
     29          6           0       -7.637541    2.483046   -1.791482
     30          6           0       -8.402443    6.007456   -1.045905
     31          6           0       -9.386288    3.929858   -3.172955
     32          6           0       -8.787795    3.958598   -4.556319
     33          7           0       -6.267699   -0.130808   -1.139776
     34          6           0       -7.342811    0.016178   -2.187437
     35          6           0       -7.571589   -1.259345   -2.684674
     36          6           0       -6.603869   -2.088069   -2.127093
     37          6           0       -5.831243   -1.375493   -1.233025
     38          6           0       -8.501071   -1.413457   -3.839517
     39          6           0       -6.142522   -3.483171   -2.072307
     40          8           0       -6.484306   -4.441421   -2.799513
     41          6           0       -5.011061   -3.544888   -0.922463
     42          6           0       -5.410883   -4.603396    0.170283
     43          8           0       -5.678492   -4.413330    1.315952
     44          8           0       -5.247363   -5.855355   -0.522658
     45          6           0       -5.454869   -6.981570    0.337075
     46          6           0        2.223934   -5.125684    0.627832
     47          6           0        3.338515   -4.215241    0.962379
     48          6           0        4.065454   -3.458739    0.126461
     49          6           0        3.661639   -3.065623   -1.228327
     50          6           0        5.172724   -2.574177    0.737304
     51          6           0        6.610605   -2.893717    0.083980
     52          6           0        7.633554   -1.810585    0.450842
     53          6           0        9.023480   -1.927638   -0.198977
     54          6           0        9.625714   -3.230301    0.267898
     55          6           0        9.876221   -0.826346    0.239744
     56          6           0       11.347874   -0.732738   -0.381226
     57          6           0       12.098511    0.515795    0.089721
     58          6           0       13.583312    0.476962   -0.546674
     59          6           0       14.481619   -0.761701   -0.317498
     60          6           0       14.270859    1.824386   -0.094225
     61          6           0       15.511309    2.120109   -0.923460
     62          6           0       16.027678    3.526774   -0.615876
     63          6           0       17.359301    3.887477   -1.359570
     64          6           0       17.027064    4.058126   -2.927800
     65          6           0       17.876073    5.175695   -0.719313
     66          1           0       -2.768367    1.075289    3.507639
     67          1           0       -6.427180    5.885951    0.773294
     68          1           0       -8.758282    1.358388   -3.153633
     69          1           0       -3.606838   -3.251852    2.023129
     70          1           0       -1.923875   -1.071308    2.638610
     71          1           0       -3.051667   -2.895264    4.342365
     72          1           0       -3.184454   -1.270808    4.942792
     73          1           0       -4.374640   -1.988248    4.119352
     74          1           0       -2.295057   -3.060308   -0.250065
     75          1           0       -1.429275   -1.766695    0.280978
     76          1           0       -0.760864   -3.355494    2.500993
     77          1           0       -1.386262   -4.764446    1.490051
     78          1           0       -1.634959    3.407045    4.298725
     79          1           0       -2.499196    4.835178    4.613249
     80          1           0       -2.961205    3.276611    5.354971
     81          1           0       -4.952752    6.509625    2.112416
     82          1           0      -10.169140    3.166648   -3.176733
     83          1           0      -10.174115    4.847130   -3.021438
     84          1           0       -9.566681    3.941273   -5.351786
     85          1           0       -8.105166    4.703600   -4.665882
     86          1           0       -8.073584    3.001581   -4.635954
     87          1           0       -8.304627   -0.767269   -4.743683
     88          1           0       -8.381712   -2.556363   -4.249957
     89          1           0       -9.539520   -1.144187   -3.639254
     90          1           0       -4.280882   -4.023728   -1.549535
     91          1           0        2.489467   -6.134935    1.017247
     92          1           0        1.993751   -5.109788   -0.521525
     93          1           0        3.757008   -4.342526    1.946192
     94          1           0        2.793197   -3.572582   -1.409535
     95          1           0        3.665121   -2.114548   -1.545825
     96          1           0        4.626467   -3.255669   -1.954740
     97          1           0        4.977852   -1.568574    0.523830
     98          1           0        5.187671   -2.702266    1.890824
     99          1           0        7.041870   -3.938331    0.312813
    100          1           0        6.332835   -2.766601   -0.855104
    101          1           0        7.082063   -0.957577    0.248750
    102          1           0        7.775806   -1.782944    1.582936
    103          1           0        8.856237   -1.885130   -1.233811
    104          1           0        9.101457   -4.132349   -0.233874
    105          1           0       10.757474   -3.334747   -0.053790
    106          1           0       10.004581   -3.469684    1.365657
    107          1           0        9.516312    0.194218    0.025724
    108          1           0        9.988654   -0.958882    1.344136
    109          1           0       11.898201   -1.666997   -0.148917
    110          1           0       11.118442   -0.447851   -1.450563
    111          1           0       11.466727    1.318204   -0.424732
    112          1           0       12.217547    0.471312    1.124631
    113          1           0       13.481083    0.636662   -1.683046
    114          1           0       14.657316   -0.790480    0.653738
    115          1           0       13.975672   -1.714613   -0.484893
    116          1           0       15.457640   -0.969439   -0.843792
    117          1           0       13.457236    2.486953   -0.295765
    118          1           0       14.594174    1.983013    0.941371
    119          1           0       16.139373    1.386641   -0.745457
    120          1           0       15.160712    2.190331   -2.034123
    121          1           0       15.188235    4.127080   -0.986856
    122          1           0       16.187130    3.679690    0.585571
    123          1           0       18.016399    2.945902   -1.163476
    124          1           0       16.389222    4.810893   -3.132741
    125          1           0       17.875832    4.378894   -3.373980
    126          1           0       16.883254    3.094591   -3.405701
    127          1           0       17.712365    5.054417    0.395489
    128          1           0       18.947615    5.259279   -1.104219
    129          1           0       17.253598    6.158678   -1.088877
    130          1           0       -5.127465   -7.790702   -0.319690
    131          1           0       -6.414859   -6.971406    0.923590
    132          1           0       -4.597081   -6.843328    0.973996
    133          8           0       -7.878126    6.930762   -0.378112
    134          1           0       -9.265192    6.302005   -1.803949
 ---------------------------------------------------------------------

 SCF Done:  E(RCAM-B3LYP) =  -3043.47450307     A.U. after   16 cycles

 Excitation energies and oscillator strengths:

 Excited State   1:      Singlet-A      1.8900 eV  656.01 nm  f=0.2025  <S**2>=0.000
     243 -> 246        0.18694
     244 -> 245        0.67268
 This state for optimization and/or second-order correction.
 Total Energy, E(TD-HF/TD-KS) =  -3043.40504735
 Copying the excited state density for this state as the 1-particle RhoCI density.

 The electronic state is 1-A.
 Alpha  occ. eigenvalues --  -46.80772 -19.23566 -19.21752 -19.19730 -19.18231
 Alpha  occ. eigenvalues --  -19.17217 -19.17215 -19.16845 -14.39559 -14.37004
 Alpha  occ. eigenvalues --  -14.36611 -14.36233 -10.36204 -10.34752 -10.31851
 Alpha  occ. eigenvalues --  -10.31503 -10.30251 -10.28478 -10.27917 -10.27407
 Alpha  occ. eigenvalues --  -10.26860 -10.26858 -10.26641 -10.26368 -10.26364
 Alpha  occ. eigenvalues --  -10.26135 -10.25835 -10.25429 -10.25348 -10.25331
 Alpha  occ. eigenvalues --  -10.25016 -10.24881 -10.24877 -10.24690 -10.24524
 Alpha  occ. eigenvalues --  -10.24243 -10.24073 -10.24066 -10.23709 -10.23332
 Alpha  occ. eigenvalues --  -10.23288 -10.23117 -10.22530 -10.22487 -10.22469
 Alpha  occ. eigenvalues --  -10.22458 -10.22371 -10.22247 -10.22153 -10.22082
 Alpha  occ. eigenvalues --  -10.21859 -10.21685 -10.21433 -10.21279 -10.21241
 Alpha  occ. eigenvalues --  -10.21210 -10.20853 -10.20809 -10.20802 -10.20613
 Alpha  occ. eigenvalues --  -10.20417 -10.20267 -10.19409 -10.19375 -10.19080
 Alpha  occ. eigenvalues --  -10.18552  -3.09476  -1.84406  -1.83966  -1.83879
 Alpha  occ. eigenvalues --   -1.14944  -1.12726  -1.06098  -1.05851  -1.05648
 Alpha  occ. eigenvalues --   -1.04714  -1.03723  -1.01794  -0.99768  -0.99366
 Alpha  occ. eigenvalues --   -0.98500  -0.88258  -0.86616  -0.85680  -0.85383
 Alpha  occ. eigenvalues --   -0.84917  -0.84295  -0.84226  -0.83529  -0.83466
 Alpha  occ. eigenvalues --   -0.82666  -0.82253  -0.81468  -0.80281  -0.79585
 Alpha  occ. eigenvalues --   -0.79217  -0.78304  -0.77476  -0.76945  -0.76397
 Alpha  occ. eigenvalues --   -0.75292  -0.74581  -0.74402  -0.72129  -0.72085
 Alpha  occ. eigenvalues --   -0.71743  -0.71648  -0.70681  -0.70219  -0.69729
 Alpha  occ. eigenvalues --   -0.69139  -0.68904  -0.67853  -0.66641  -0.66328
 Alpha  occ. eigenvalues --   -0.65945  -0.64429  -0.63824  -0.62648  -0.62109
 Alpha  occ. eigenvalues --   -0.61576  -0.60092  -0.60011  -0.59040  -0.58603
 Alpha  occ. eigenvalues --   -0.58512  -0.58411  -0.58066  -0.57378  -0.57213
 Alpha  occ. eigenvalues --   -0.56667  -0.55855  -0.55522  -0.55126  -0.54306
 Alpha  occ. eigenvalues --   -0.53662  -0.53278  -0.52969  -0.52713  -0.52317
 Alpha  occ. eigenvalues --   -0.52255  -0.51847  -0.51615  -0.51259  -0.50986
 Alpha  occ. eigenvalues --   -0.50863  -0.50239  -0.50143  -0.49585  -0.48999
 Alpha  occ. eigenvalues --   -0.48784  -0.48338  -0.47956  -0.47859  -0.47425
 Alpha  occ. eigenvalues --   -0.47287  -0.47105  -0.46726  -0.46396  -0.46330
 Alpha  occ. eigenvalues --   -0.46249  -0.46112  -0.45915  -0.45755  -0.45564
 Alpha  occ. eigenvalues --   -0.45418  -0.45260  -0.44994  -0.44872  -0.44647
 Alpha  occ. eigenvalues --   -0.44541  -0.44464  -0.43920  -0.43799  -0.43530
 Alpha  occ. eigenvalues --   -0.43283  -0.43198  -0.43128  -0.42764  -0.42661
 Alpha  occ. eigenvalues --   -0.42535  -0.42456  -0.42359  -0.42307  -0.42084
 Alpha  occ. eigenvalues --   -0.41780  -0.41711  -0.41425  -0.41353  -0.41189
 Alpha  occ. eigenvalues --   -0.40707  -0.40600  -0.40398  -0.40207  -0.40107
 Alpha  occ. eigenvalues --   -0.39936  -0.39815  -0.39564  -0.39362  -0.39176
 Alpha  occ. eigenvalues --   -0.39010  -0.38888  -0.38824  -0.38564  -0.38346
 Alpha  occ. eigenvalues --   -0.38247  -0.38062  -0.37604  -0.37276  -0.37171
 Alpha  occ. eigenvalues --   -0.36842  -0.36269  -0.35958  -0.35878  -0.35773
 Alpha  occ. eigenvalues --   -0.35446  -0.35295  -0.35189  -0.35051  -0.34915
 Alpha  occ. eigenvalues --   -0.34554  -0.34286  -0.34120  -0.33668  -0.33593
 Alpha  occ. eigenvalues --   -0.33157  -0.33098  -0.32811  -0.32372  -0.32045
 Alpha  occ. eigenvalues --   -0.31446  -0.31376  -0.30507  -0.30140  -0.29381
 Alpha  occ. eigenvalues --   -0.29188  -0.28280  -0.27788  -0.27681  -0.27338
 Alpha  occ. eigenvalues --   -0.27303  -0.27113  -0.23586  -0.21172
 Alpha virt. eigenvalues --   -0.09194  -0.06493  -0.01604  -0.01420   0.00417
 Alpha virt. eigenvalues --    0.02308   0.02883   0.03194   0.04215   0.04411
 Alpha virt. eigenvalues --    0.04809   0.05223   0.07532   0.08344   0.09307

 Mulliken charges:
               1
     1  Mg   0.816823
     2  C    0.058389
     3  C   -0.206482
     4  C   -0.201095
     5  C   -0.171010
     6  N   -0.596356
     7  C    0.257340
     8  C   -0.155504
     9  C   -0.138606
    10  C    0.385188
    11  C   -0.322943
    12  C   -0.160525
    13  C   -0.274640
    14  C    0.617220
    15  O   -0.477777
    16  O   -0.447248
    17  N   -0.684654
    18  C    0.309852
    19  C    0.066784
    20  C   -0.025981
    21  C    0.263609
    22  C   -0.391224
    23  C    0.264254
    24  O   -0.441449
    25  N   -0.661109
    26  C    0.261320
    27  C   -0.014687
    28  C    0.044879
    29  C    0.289813
    30  C    0.242357
    31  C   -0.253563
    32  C   -0.297628
    33  N   -0.741104
    34  C    0.254294
    35  C    0.058137
    36  C    0.018584
    37  C    0.333557
    38  C   -0.391949
    39  C    0.328604
    40  O   -0.465139
    41  C   -0.318992
    42  C    0.622307
    43  O   -0.437264
    44  O   -0.471539
    45  C   -0.084183
    46  C   -0.038653
    47  C   -0.130159
    48  C    0.156540
    49  C   -0.345991
    50  C   -0.246614
    51  C   -0.180254
    52  C   -0.156524
    53  C   -0.030283
    54  C   -0.315508
    55  C   -0.164156
    56  C   -0.187004
    57  C   -0.174673
    58  C   -0.060573
    59  C   -0.331685
    60  C   -0.172457
    61  C   -0.170576
    62  C   -0.151057
    63  C   -0.050102
    64  C   -0.325007
    65  C   -0.289137
    66  H    0.057770
    67  H    0.160814
    68  H    0.094063
    69  H    0.127506
    70  H    0.111837
    71  H    0.122038
    72  H    0.112744
    73  H    0.140355
    74  H    0.126434
    75  H    0.125083
    76  H    0.128004
    77  H    0.123892
    78  H    0.095454
    79  H    0.159411
    80  H    0.137178
    81  H    0.087051
    82  H    0.118410
    83  H    0.089662
    84  H    0.112172
    85  H    0.133603
    86  H    0.086728
    87  H    0.129908
    88  H    0.129118
    89  H    0.128288
    90  H    0.173538
    91  H    0.115510
    92  H    0.134484
    93  H    0.083993
    94  H    0.133261
    95  H    0.136774
    96  H    0.076008
    97  H    0.111704
    98  H    0.083504
    99  H    0.091997
   100  H    0.101218
   101  H    0.083330
   102  H    0.077349
   103  H    0.089076
   104  H    0.097617
   105  H    0.079022
   106  H    0.097862
   107  H    0.074728
   108  H    0.077995
   109  H    0.093176
   110  H    0.083550
   111  H    0.092964
   112  H    0.102472
   113  H    0.070483
   114  H    0.117006
   115  H    0.095877
   116  H    0.104520
   117  H    0.087495
   118  H    0.081876
   119  H    0.098412
   120  H    0.076240
   121  H    0.090059
   122  H    0.047885
   123  H    0.074256
   124  H    0.112592
   125  H    0.105795
   126  H    0.106773
   127  H    0.101103
   128  H    0.095402
   129  H    0.081075
   130  H    0.131755
   131  H    0.135417
   132  H    0.116656
   133  O   -0.426296
   134  H    0.070180
 Sum of Mulliken charges =   0.00000

 Dipole moment (field-independent basis, Debye):
    X=              2.2207    Y=             -5.1269    Z=             -1.2210  Tot=              5.7190
 Quadrupole moment (field-independent basis, Debye-Ang):
   XX=           -371.5555   YY=           -441.8957   ZZ=           -395.2292
   XY=              1.1653   XZ=             18.4006   YZ=            -44.2616

 Normal termination of Gaussian 09 at Wed Oct  9 04:13:31 2019.
