 Gaussian 09, Revision D.01,
 Gaussian 09:  ES64L-G09RevD.01 24-Apr-2013

 ----------------------------------------------------------------------
 # td=(NStates=1) iop(3/107=0140000000,3/108=0140000000) iop(3/107=0140
 000000,3/108=0140000000) CAM-B3LYP/6-31G(d,p)
 ----------------------------------------------------------------------

 --
 TD
 --
 Symbolic Z-matrix:
 Charge =  0 Multiplicity = 1

                         Standard orientation:
 ---------------------------------------------------------------------
 Center     Atomic      Atomic             Coordinates (Angstroms)
 Number     Number       Type             X           Y           Z
 ---------------------------------------------------------------------
      1         12           0       -5.606545    1.278017    0.187067
      2          6           0       -5.111744   -2.094489   -0.363334
      3          6           0       -3.274863    1.137559    2.793318
      4          6           0       -6.000058    4.651152    0.706395
      5          6           0       -7.995207    1.234875   -2.196273
      6          7           0       -4.354133   -0.300736    1.103716
      7          6           0       -4.263717   -1.597769    0.695469
      8          6           0       -3.262342   -2.378156    1.475331
      9          6           0       -2.941797   -1.404962    2.589209
     10          6           0       -3.525827   -0.123574    2.153119
     11          6           0       -3.598753   -1.788447    3.892971
     12          6           0       -1.952821   -2.708142    0.689234
     13          6           0       -1.037526   -3.664855    1.392652
     14          6           0        0.199152   -4.031424    0.517682
     15          8           0        0.433666   -3.460220   -0.484719
     16          8           0        0.920700   -4.961344    1.100398
     17          7           0       -4.812802    2.579831    1.517413
     18          6           0       -3.967627    2.380372    2.467213
     19          6           0       -3.608820    3.572727    3.271846
     20          6           0       -4.300730    4.592916    2.604782
     21          6           0       -5.102483    3.877901    1.528543
     22          6           0       -2.579503    3.635657    4.330963
     23          6           0       -4.580561    5.999978    2.872984
     24          8           0       -3.939226    6.578560    3.837973
     25          7           0       -6.800040    2.718251   -0.656746
     26          6           0       -6.817962    4.128404   -0.294769
     27          6           0       -7.831877    4.754308   -1.182386
     28          6           0       -8.341501    3.770204   -2.028330
     29          6           0       -7.687301    2.508804   -1.671253
     30          6           0       -8.223745    6.138527   -1.204237
     31          6           0       -9.375986    3.846472   -3.193070
     32          6           0       -8.718602    4.168536   -4.552073
     33          7           0       -6.347630   -0.057989   -1.122112
     34          6           0       -7.232598   -0.014483   -2.075278
     35          6           0       -7.591868   -1.258579   -2.653924
     36          6           0       -6.711061   -2.132954   -2.076981
     37          6           0       -5.988056   -1.387840   -1.094450
     38          6           0       -8.652064   -1.462484   -3.669052
     39          6           0       -6.227316   -3.465467   -2.048808
     40          8           0       -6.538252   -4.454759   -2.698568
     41          6           0       -5.085091   -3.520259   -0.931060
     42          6           0       -5.300152   -4.657753    0.116035
     43          8           0       -5.704455   -4.587406    1.238510
     44          8           0       -4.959202   -5.876881   -0.441140
     45          6           0       -5.096800   -6.966213    0.532934
     46          6           0        2.289284   -5.245503    0.579108
     47          6           0        3.368434   -4.352922    0.847265
     48          6           0        3.948231   -3.405394    0.108381
     49          6           0        3.701819   -3.318894   -1.381591
     50          6           0        5.064070   -2.575144    0.656407
     51          6           0        6.461273   -2.824715   -0.000094
     52          6           0        7.522160   -1.942402    0.566452
     53          6           0        8.966327   -2.063355   -0.116762
     54          6           0        9.649899   -3.510015    0.213330
     55          6           0        9.895609   -0.915907    0.357436
     56          6           0       11.200039   -0.781648   -0.355864
     57          6           0       12.140233    0.380648    0.028504
     58          6           0       13.397818    0.486464   -0.657123
     59          6           0       14.453237   -0.689157   -0.313837
     60          6           0       14.003088    1.867039   -0.187595
     61          6           0       15.323658    2.244893   -1.086247
     62          6           0       15.920370    3.607877   -0.642391
     63          6           0       17.340177    4.000705   -1.309324
     64          6           0       17.092578    4.094292   -2.696332
     65          6           0       17.838781    5.297738   -0.601948
     66          1           0       -2.446014    1.315470    3.589895
     67          1           0       -6.223333    5.670481    1.145891
     68          1           0       -8.778036    1.280590   -2.913115
     69          1           0       -3.852039   -3.213858    1.887204
     70          1           0       -1.852446   -1.390633    2.804086
     71          1           0       -3.284462   -2.728161    4.123159
     72          1           0       -3.222947   -1.160041    4.591112
     73          1           0       -4.680927   -1.962986    3.986106
     74          1           0       -2.443392   -3.207899   -0.204454
     75          1           0       -1.570148   -1.721437    0.296748
     76          1           0       -0.800904   -3.311497    2.378631
     77          1           0       -1.648979   -4.572596    1.782520
     78          1           0       -1.536525    3.169520    3.970399
     79          1           0       -2.437014    4.740086    4.578463
     80          1           0       -2.993424    2.908556    5.062139
     81          1           0       -5.430021    6.449956    2.328135
     82          1           0       -9.980853    2.996729   -3.300025
     83          1           0      -10.117211    4.694612   -2.978923
     84          1           0       -9.534318    4.349173   -5.314811
     85          1           0       -8.044167    4.925953   -4.283234
     86          1           0       -8.077752    3.407686   -4.827296
     87          1           0       -8.555139   -0.733800   -4.329653
     88          1           0       -8.741992   -2.404860   -4.293020
     89          1           0       -9.634720   -1.521176   -3.262693
     90          1           0       -4.126772   -3.695221   -1.565228
     91          1           0        2.529620   -6.088080    0.966015
     92          1           0        2.045454   -5.324710   -0.515575
     93          1           0        3.729798   -4.441003    1.892266
     94          1           0        2.680213   -3.734636   -1.566701
     95          1           0        3.712409   -2.174282   -1.397912
     96          1           0        4.364345   -3.778356   -1.964767
     97          1           0        4.990397   -1.595155    0.470464
     98          1           0        5.229199   -2.629430    1.890963
     99          1           0        6.658858   -3.973789    0.197622
    100          1           0        6.319402   -2.583465   -1.143761
    101          1           0        7.283485   -0.755435    0.418062
    102          1           0        7.680760   -2.177586    1.633631
    103          1           0        8.870831   -1.935736   -1.060465
    104          1           0        8.741191   -4.198469   -0.000081
    105          1           0       10.538949   -3.599007   -0.421529
    106          1           0        9.703357   -3.627249    1.247438
    107          1           0        9.261005    0.094403    0.502149
    108          1           0       10.088964   -1.125573    1.505234
    109          1           0       11.718561   -1.693588   -0.345414
    110          1           0       11.017732   -0.574296   -1.292675
    111          1           0       11.736007    1.322595   -0.219890
    112          1           0       12.172774    0.486340    1.250385
    113          1           0       13.511091    0.579322   -1.741826
    114          1           0       14.849680   -0.587988    0.732479
    115          1           0       14.040269   -1.797788   -0.695243
    116          1           0       15.267937   -0.604337   -0.855851
    117          1           0       13.311549    2.666213   -0.209731
    118          1           0       14.532551    1.606325    0.845925
    119          1           0       16.111122    1.377416   -0.898896
    120          1           0       15.110646    2.325317   -2.089814
    121          1           0       15.229578    4.472612   -0.876349
    122          1           0       16.200702    3.562576    0.481222
    123          1           0       17.921242    3.268741   -1.032789
    124          1           0       16.265765    4.831913   -2.930032
    125          1           0       18.072181    4.563897   -3.314733
    126          1           0       16.914266    3.044234   -3.104264
    127          1           0       18.118313    5.527807    0.445099
    128          1           0       18.720568    5.665334   -1.098366
    129          1           0       17.068676    5.980429   -0.840229
    130          1           0       -4.405015   -7.791705   -0.203788
    131          1           0       -6.067868   -7.033320    0.817370
    132          1           0       -4.493251   -6.756650    1.265331
    133          8           0       -7.887502    7.008610   -0.395790
    134          1           0       -9.204101    6.466476   -1.806082
 ---------------------------------------------------------------------

 SCF Done:  E(RCAM-B3LYP) =  -3043.44002198     A.U. after   15 cycles

 Excitation energies and oscillator strengths:

 Excited State   1:      Singlet-A      1.9356 eV  640.53 nm  f=0.2042  <S**2>=0.000
     243 -> 246       -0.26612
     244 -> 245        0.64838
 This state for optimization and/or second-order correction.
 Total Energy, E(TD-HF/TD-KS) =  -3043.36888859
 Copying the excited state density for this state as the 1-particle RhoCI density.

 The electronic state is 1-A.
 Alpha  occ. eigenvalues --  -46.82321 -19.22215 -19.21615 -19.18293 -19.17251
 Alpha  occ. eigenvalues --  -19.16810 -19.16796 -19.16612 -14.39497 -14.37637
 Alpha  occ. eigenvalues --  -14.37036 -14.36758 -10.35566 -10.34924 -10.31194
 Alpha  occ. eigenvalues --  -10.30633 -10.30451 -10.27793 -10.27635 -10.27370
 Alpha  occ. eigenvalues --  -10.26994 -10.26962 -10.26722 -10.26719 -10.26410
 Alpha  occ. eigenvalues --  -10.26387 -10.25962 -10.25469 -10.25354 -10.24957
 Alpha  occ. eigenvalues --  -10.24643 -10.24325 -10.24298 -10.24198 -10.24062
 Alpha  occ. eigenvalues --  -10.24050 -10.24012 -10.23946 -10.23815 -10.23686
 Alpha  occ. eigenvalues --  -10.23638 -10.23611 -10.23415 -10.23357 -10.23326
 Alpha  occ. eigenvalues --  -10.22827 -10.22610 -10.22245 -10.21943 -10.21903
 Alpha  occ. eigenvalues --  -10.21871 -10.21795 -10.21682 -10.21543 -10.21477
 Alpha  occ. eigenvalues --  -10.21278 -10.21175 -10.21152 -10.21048 -10.21005
 Alpha  occ. eigenvalues --  -10.20943 -10.20792 -10.20219 -10.20198 -10.19349
 Alpha  occ. eigenvalues --  -10.19010  -3.10858  -1.85798  -1.85328  -1.85266
 Alpha  occ. eigenvalues --   -1.14452  -1.13357  -1.06386  -1.06277  -1.05594
 Alpha  occ. eigenvalues --   -1.04871  -1.02906  -1.02344  -1.02002  -1.01008
 Alpha  occ. eigenvalues --   -0.97570  -0.89336  -0.87245  -0.86470  -0.85761
 Alpha  occ. eigenvalues --   -0.85028  -0.84674  -0.84401  -0.83898  -0.83831
 Alpha  occ. eigenvalues --   -0.83609  -0.83087  -0.81976  -0.81076  -0.79655
 Alpha  occ. eigenvalues --   -0.78969  -0.78893  -0.77848  -0.77082  -0.76611
 Alpha  occ. eigenvalues --   -0.75683  -0.75181  -0.74804  -0.72944  -0.72580
 Alpha  occ. eigenvalues --   -0.71883  -0.71312  -0.71145  -0.70188  -0.69903
 Alpha  occ. eigenvalues --   -0.69464  -0.68700  -0.68021  -0.66732  -0.66639
 Alpha  occ. eigenvalues --   -0.65953  -0.65587  -0.64713  -0.62550  -0.62198
 Alpha  occ. eigenvalues --   -0.62074  -0.60843  -0.60720  -0.59933  -0.59491
 Alpha  occ. eigenvalues --   -0.58968  -0.58875  -0.58370  -0.57722  -0.57216
 Alpha  occ. eigenvalues --   -0.56515  -0.56134  -0.55969  -0.55298  -0.55045
 Alpha  occ. eigenvalues --   -0.54067  -0.53451  -0.53355  -0.52874  -0.52398
 Alpha  occ. eigenvalues --   -0.52076  -0.52064  -0.51228  -0.51118  -0.51012
 Alpha  occ. eigenvalues --   -0.50661  -0.50300  -0.49763  -0.49747  -0.49652
 Alpha  occ. eigenvalues --   -0.49555  -0.48961  -0.48876  -0.48412  -0.48177
 Alpha  occ. eigenvalues --   -0.47872  -0.47737  -0.47581  -0.47506  -0.47014
 Alpha  occ. eigenvalues --   -0.46752  -0.46562  -0.46259  -0.46168  -0.46040
 Alpha  occ. eigenvalues --   -0.45629  -0.45592  -0.45367  -0.45251  -0.45120
 Alpha  occ. eigenvalues --   -0.44888  -0.44412  -0.44168  -0.44028  -0.43795
 Alpha  occ. eigenvalues --   -0.43754  -0.43556  -0.43492  -0.43371  -0.43009
 Alpha  occ. eigenvalues --   -0.42894  -0.42557  -0.42189  -0.41869  -0.41847
 Alpha  occ. eigenvalues --   -0.41682  -0.41489  -0.41240  -0.41053  -0.40838
 Alpha  occ. eigenvalues --   -0.40718  -0.40640  -0.40500  -0.40251  -0.40104
 Alpha  occ. eigenvalues --   -0.39909  -0.39867  -0.39728  -0.39506  -0.39252
 Alpha  occ. eigenvalues --   -0.39132  -0.38753  -0.38526  -0.38447  -0.38340
 Alpha  occ. eigenvalues --   -0.38215  -0.38042  -0.37937  -0.37639  -0.37388
 Alpha  occ. eigenvalues --   -0.37327  -0.37207  -0.37007  -0.36127  -0.35863
 Alpha  occ. eigenvalues --   -0.35639  -0.35623  -0.35357  -0.35195  -0.34714
 Alpha  occ. eigenvalues --   -0.34578  -0.34293  -0.34090  -0.33612  -0.33555
 Alpha  occ. eigenvalues --   -0.33457  -0.32977  -0.32561  -0.32138  -0.31973
 Alpha  occ. eigenvalues --   -0.31924  -0.31271  -0.31002  -0.29908  -0.29678
 Alpha  occ. eigenvalues --   -0.28983  -0.28576  -0.28002  -0.27893  -0.27707
 Alpha  occ. eigenvalues --   -0.27460  -0.27318  -0.22672  -0.21134
 Alpha virt. eigenvalues --   -0.08610  -0.06598  -0.02590  -0.01621   0.00531
 Alpha virt. eigenvalues --    0.01774   0.02734   0.03459   0.03766   0.04734
 Alpha virt. eigenvalues --    0.04849   0.05235   0.08250   0.08662   0.09250

 Mulliken charges:
               1
     1  Mg   0.840847
     2  C    0.073161
     3  C   -0.197781
     4  C   -0.171233
     5  C   -0.168604
     6  N   -0.611882
     7  C    0.293419
     8  C   -0.171457
     9  C   -0.170492
    10  C    0.359056
    11  C   -0.309060
    12  C   -0.153338
    13  C   -0.282701
    14  C    0.616022
    15  O   -0.443398
    16  O   -0.471128
    17  N   -0.674529
    18  C    0.308571
    19  C    0.048624
    20  C   -0.020156
    21  C    0.281683
    22  C   -0.381294
    23  C    0.230883
    24  O   -0.458993
    25  N   -0.702067
    26  C    0.276669
    27  C   -0.002633
    28  C    0.020501
    29  C    0.313690
    30  C    0.207733
    31  C   -0.247676
    32  C   -0.305016
    33  N   -0.692929
    34  C    0.259670
    35  C    0.024047
    36  C    0.094369
    37  C    0.253032
    38  C   -0.383740
    39  C    0.318683
    40  O   -0.454498
    41  C   -0.335565
    42  C    0.619775
    43  O   -0.462691
    44  O   -0.464327
    45  C   -0.065159
    46  C    0.034432
    47  C   -0.140659
    48  C    0.139192
    49  C   -0.359663
    50  C   -0.221046
    51  C   -0.170833
    52  C   -0.171059
    53  C   -0.051080
    54  C   -0.322062
    55  C   -0.167662
    56  C   -0.167809
    57  C   -0.156268
    58  C   -0.053373
    59  C   -0.313382
    60  C   -0.179439
    61  C   -0.198236
    62  C   -0.173146
    63  C   -0.040004
    64  C   -0.282364
    65  C   -0.327090
    66  H    0.085237
    67  H    0.126486
    68  H    0.074044
    69  H    0.132316
    70  H    0.104683
    71  H    0.111730
    72  H    0.115876
    73  H    0.124724
    74  H    0.100399
    75  H    0.121325
    76  H    0.133563
    77  H    0.118113
    78  H    0.113590
    79  H    0.162962
    80  H    0.132050
    81  H    0.107450
    82  H    0.118032
    83  H    0.105778
    84  H    0.110301
    85  H    0.121058
    86  H    0.120519
    87  H    0.134315
    88  H    0.137763
    89  H    0.138620
    90  H    0.164301
    91  H    0.115277
    92  H    0.106387
    93  H    0.072002
    94  H    0.137191
    95  H    0.103448
    96  H    0.137785
    97  H    0.116197
    98  H    0.069482
    99  H    0.090299
   100  H    0.087318
   101  H    0.070046
   102  H    0.095168
   103  H    0.092028
   104  H    0.087214
   105  H    0.113239
   106  H    0.116865
   107  H    0.059472
   108  H    0.063172
   109  H    0.098745
   110  H    0.103701
   111  H    0.093011
   112  H    0.065695
   113  H    0.093124
   114  H    0.096914
   115  H    0.068514
   116  H    0.116764
   117  H    0.100516
   118  H    0.082992
   119  H    0.077464
   120  H    0.103190
   121  H    0.079230
   122  H    0.077335
   123  H    0.098121
   124  H    0.096178
   125  H    0.058292
   126  H    0.106670
   127  H    0.104400
   128  H    0.096257
   129  H    0.101645
   130  H    0.099904
   131  H    0.146678
   132  H    0.136770
   133  O   -0.422688
   134  H    0.056218
 Sum of Mulliken charges =   0.00000

 Dipole moment (field-independent basis, Debye):
    X=              3.4116    Y=             -5.7839    Z=             -1.2928  Tot=              6.8384
 Quadrupole moment (field-independent basis, Debye-Ang):
   XX=           -375.2261   YY=           -452.9824   ZZ=           -396.6678
   XY=              9.8040   XZ=             16.3680   YZ=            -38.6428

 Normal termination of Gaussian 09 at Fri Oct  4 13:11:37 2019.
