 Gaussian 09, Revision D.01,
 Gaussian 09:  ES64L-G09RevD.01 24-Apr-2013

 ----------------------------------------------------------------------
 # td=(NStates=1) iop(3/107=0140000000,3/108=0140000000) iop(3/107=0140
 000000,3/108=0140000000) CAM-B3LYP/6-31G(d,p)
 ----------------------------------------------------------------------

 --
 TD
 --
 Symbolic Z-matrix:
 Charge =  0 Multiplicity = 1

                         Standard orientation:
 ---------------------------------------------------------------------
 Center     Atomic      Atomic             Coordinates (Angstroms)
 Number     Number       Type             X           Y           Z
 ---------------------------------------------------------------------
      1         12           0       -5.525854    1.202406    0.208055
      2          6           0       -5.070843   -2.030227   -0.339139
      3          6           0       -3.322391    1.132669    2.787497
      4          6           0       -6.157650    4.548674    0.571728
      5          6           0       -7.918062    1.176232   -2.365850
      6          7           0       -4.328068   -0.224644    0.962308
      7          6           0       -4.257550   -1.608000    0.664906
      8          6           0       -3.269146   -2.397892    1.521784
      9          6           0       -2.895989   -1.308013    2.534630
     10          6           0       -3.601126   -0.052371    2.158639
     11          6           0       -3.383748   -1.814573    3.940082
     12          6           0       -2.010010   -2.761183    0.656933
     13          6           0       -0.991028   -3.581509    1.395253
     14          6           0        0.286396   -3.868391    0.540240
     15          8           0        0.426461   -3.310489   -0.465179
     16          8           0        1.001624   -4.742828    1.077568
     17          7           0       -4.940428    2.607071    1.544633
     18          6           0       -3.996486    2.384371    2.532723
     19          6           0       -3.796125    3.576430    3.194854
     20          6           0       -4.490299    4.558152    2.629294
     21          6           0       -5.315809    3.994586    1.522380
     22          6           0       -2.736672    3.865994    4.336080
     23          6           0       -4.623582    6.031310    3.094519
     24          8           0       -3.980004    6.579994    3.976400
     25          7           0       -6.822274    2.594765   -0.775315
     26          6           0       -6.899428    4.022594   -0.447071
     27          6           0       -7.886786    4.656582   -1.243688
     28          6           0       -8.383931    3.682477   -2.060148
     29          6           0       -7.699071    2.404025   -1.722399
     30          6           0       -8.258204    5.989537   -1.122964
     31          6           0       -9.417231    3.857427   -3.064706
     32          6           0       -8.766088    4.092330   -4.539333
     33          7           0       -6.294405   -0.070582   -1.157818
     34          6           0       -7.312046   -0.014463   -2.112159
     35          6           0       -7.649287   -1.307941   -2.640204
     36          6           0       -6.793653   -2.228691   -2.018725
     37          6           0       -5.942441   -1.416398   -1.139095
     38          6           0       -8.592228   -1.589407   -3.839733
     39          6           0       -6.230853   -3.548690   -2.042224
     40          8           0       -6.459965   -4.557575   -2.758819
     41          6           0       -5.045569   -3.538871   -0.895866
     42          6           0       -5.379480   -4.704221    0.096105
     43          8           0       -5.946866   -4.501720    1.188548
     44          8           0       -5.020882   -5.876417   -0.322579
     45          6           0       -5.544782   -6.890496    0.470516
     46          6           0        2.249768   -5.068929    0.489330
     47          6           0        3.305837   -4.085799    0.981950
     48          6           0        4.015011   -3.198683    0.255175
     49          6           0        3.875004   -3.096393   -1.308203
     50          6           0        5.164698   -2.437556    0.831662
     51          6           0        6.577394   -2.693310    0.052821
     52          6           0        7.665960   -1.813711    0.605178
     53          6           0        9.054061   -2.106889   -0.027309
     54          6           0        9.613117   -3.495824    0.406867
     55          6           0        9.935911   -0.871055    0.487955
     56          6           0       11.364403   -0.908198   -0.173787
     57          6           0       12.089088    0.310106    0.134680
     58          6           0       13.488969    0.499118   -0.542004
     59          6           0       14.336030   -0.760219   -0.216772
     60          6           0       14.275608    1.770286   -0.161997
     61          6           0       15.475390    2.053957   -0.999829
     62          6           0       16.000457    3.578178   -0.792107
     63          6           0       17.290037    3.843514   -1.471834
     64          6           0       16.969264    4.179266   -2.984186
     65          6           0       17.968880    5.093666   -0.835620
     66          1           0       -2.759618    0.965835    3.838737
     67          1           0       -6.322857    5.494923    0.768673
     68          1           0       -8.627063    1.089996   -3.182141
     69          1           0       -3.995195   -3.315019    1.922623
     70          1           0       -1.888491   -1.174112    2.585315
     71          1           0       -2.841320   -2.657006    4.135853
     72          1           0       -3.313229   -1.085296    4.630848
     73          1           0       -4.386913   -1.982958    3.909520
     74          1           0       -2.242265   -3.321028   -0.144706
     75          1           0       -1.510273   -1.866593    0.467075
     76          1           0       -0.546697   -3.058609    2.298298
     77          1           0       -1.311237   -4.693571    1.888828
     78          1           0       -1.671215    4.224209    3.731650
     79          1           0       -3.026457    4.784070    4.728902
     80          1           0       -2.467944    2.905070    5.079271
     81          1           0       -5.271334    6.596820    2.321428
     82          1           0      -10.178958    3.028037   -3.254105
     83          1           0      -10.125445    4.780627   -2.840396
     84          1           0       -9.616801    3.897273   -5.316138
     85          1           0       -8.350195    5.081491   -4.847465
     86          1           0       -8.063563    3.299772   -4.688806
     87          1           0       -8.478132   -0.710401   -4.538896
     88          1           0       -8.486115   -2.589865   -4.331873
     89          1           0       -9.475131   -1.629845   -3.375177
     90          1           0       -4.118196   -3.793775   -1.573804
     91          1           0        2.567189   -6.092502    0.730212
     92          1           0        2.064010   -4.875870   -0.655379
     93          1           0        3.489557   -4.075763    2.188504
     94          1           0        2.773156   -3.119061   -1.601646
     95          1           0        4.333199   -2.097771   -1.579435
     96          1           0        4.686246   -3.665574   -1.735229
     97          1           0        4.907943   -1.361117    0.828672
     98          1           0        5.302774   -2.640969    1.863424
     99          1           0        6.764979   -3.918032    0.042833
    100          1           0        6.270639   -2.590786   -1.091026
    101          1           0        7.286993   -0.806996    0.518068
    102          1           0        7.775422   -1.893592    1.686848
    103          1           0        8.988316   -2.030001   -1.223960
    104          1           0        8.907307   -4.291753    0.194786
    105          1           0       10.618301   -3.546072   -0.131526
    106          1           0        9.916693   -3.209174    1.524678
    107          1           0        9.367746    0.135793    0.085942
    108          1           0       10.062837   -0.972643    1.609391
    109          1           0       11.849661   -1.651308    0.148922
    110          1           0       11.351289   -1.058776   -1.402307
    111          1           0       11.398097    1.234270   -0.379203
    112          1           0       12.286465    0.732198    1.148587
    113          1           0       13.306113    0.310736   -1.543869
    114          1           0       14.622390   -0.815526    0.818016
    115          1           0       13.760161   -1.753530   -0.494671
    116          1           0       15.402571   -0.997036   -0.815361
    117          1           0       13.584493    2.667822   -0.260467
    118          1           0       14.482264    1.612069    0.965986
    119          1           0       16.301222    1.573389   -0.932968
    120          1           0       15.175337    2.152259   -2.092384
    121          1           0       15.179673    4.360535   -0.965565
    122          1           0       16.326165    3.610898    0.219609
    123          1           0       18.076532    2.897074   -1.340121
    124          1           0       16.189460    4.909939   -3.124911
    125          1           0       17.940651    4.433488   -3.486554
    126          1           0       16.661110    3.121990   -3.379038
    127          1           0       18.324085    4.722318    0.078483
    128          1           0       18.948448    5.129223   -1.350773
    129          1           0       17.373906    5.970990   -0.875708
    130          1           0       -5.236009   -7.964978   -0.151725
    131          1           0       -6.693789   -6.894983    0.500438
    132          1           0       -5.099918   -6.721910    1.684581
    133          8           0       -7.615225    6.841692   -0.426282
    134          1           0       -8.935845    6.342820   -1.829204
 ---------------------------------------------------------------------

 SCF Done:  E(RCAM-B3LYP) =  -3043.41260896     A.U. after   16 cycles

 Excitation energies and oscillator strengths:

 Excited State   1:      Singlet-A      1.9758 eV  627.51 nm  f=0.2119  <S**2>=0.000
     243 -> 246       -0.23329
     244 -> 245        0.65138
 This state for optimization and/or second-order correction.
 Total Energy, E(TD-HF/TD-KS) =  -3043.33999875
 Copying the excited state density for this state as the 1-particle RhoCI density.

 The electronic state is 1-A.
 Alpha  occ. eigenvalues --  -46.80493 -19.24792 -19.23323 -19.17926 -19.17330
 Alpha  occ. eigenvalues --  -19.17007 -19.16867 -19.16457 -14.38779 -14.37176
 Alpha  occ. eigenvalues --  -14.36480 -14.36406 -10.35808 -10.34029 -10.32115
 Alpha  occ. eigenvalues --  -10.31265 -10.30965 -10.29605 -10.29091 -10.27797
 Alpha  occ. eigenvalues --  -10.26977 -10.26529 -10.26455 -10.26352 -10.26300
 Alpha  occ. eigenvalues --  -10.26275 -10.26155 -10.26093 -10.25969 -10.25367
 Alpha  occ. eigenvalues --  -10.25326 -10.24892 -10.24296 -10.24167 -10.24030
 Alpha  occ. eigenvalues --  -10.23783 -10.23568 -10.23514 -10.23496 -10.23325
 Alpha  occ. eigenvalues --  -10.23311 -10.23288 -10.23279 -10.23265 -10.22945
 Alpha  occ. eigenvalues --  -10.22816 -10.22727 -10.22679 -10.22621 -10.22551
 Alpha  occ. eigenvalues --  -10.22385 -10.22207 -10.22034 -10.21985 -10.21911
 Alpha  occ. eigenvalues --  -10.21883 -10.21828 -10.21597 -10.21254 -10.20898
 Alpha  occ. eigenvalues --  -10.20879 -10.20616 -10.20102 -10.19849 -10.19555
 Alpha  occ. eigenvalues --  -10.19232  -3.09213  -1.84144  -1.83697  -1.83623
 Alpha  occ. eigenvalues --   -1.18147  -1.17265  -1.08162  -1.06745  -1.04777
 Alpha  occ. eigenvalues --   -1.04129  -1.04033  -1.00079  -0.99042  -0.98358
 Alpha  occ. eigenvalues --   -0.97432  -0.88271  -0.86020  -0.85769  -0.85704
 Alpha  occ. eigenvalues --   -0.85215  -0.84864  -0.84264  -0.84142  -0.83422
 Alpha  occ. eigenvalues --   -0.83155  -0.81764  -0.81669  -0.80449  -0.79781
 Alpha  occ. eigenvalues --   -0.79338  -0.78696  -0.77650  -0.77045  -0.76596
 Alpha  occ. eigenvalues --   -0.75091  -0.74656  -0.73669  -0.72077  -0.71570
 Alpha  occ. eigenvalues --   -0.71409  -0.70738  -0.70393  -0.70223  -0.69471
 Alpha  occ. eigenvalues --   -0.69361  -0.68939  -0.68733  -0.66954  -0.66306
 Alpha  occ. eigenvalues --   -0.65708  -0.65245  -0.64341  -0.62921  -0.62635
 Alpha  occ. eigenvalues --   -0.62008  -0.60872  -0.60151  -0.59239  -0.59083
 Alpha  occ. eigenvalues --   -0.58641  -0.58234  -0.57647  -0.57209  -0.56772
 Alpha  occ. eigenvalues --   -0.55882  -0.55681  -0.55314  -0.54762  -0.54459
 Alpha  occ. eigenvalues --   -0.54269  -0.53365  -0.52759  -0.52549  -0.52228
 Alpha  occ. eigenvalues --   -0.52046  -0.51999  -0.51568  -0.51375  -0.51205
 Alpha  occ. eigenvalues --   -0.50248  -0.50154  -0.49598  -0.49418  -0.49255
 Alpha  occ. eigenvalues --   -0.49031  -0.48805  -0.48692  -0.47820  -0.47731
 Alpha  occ. eigenvalues --   -0.47279  -0.47160  -0.47070  -0.46658  -0.46473
 Alpha  occ. eigenvalues --   -0.46434  -0.46092  -0.45819  -0.45754  -0.45716
 Alpha  occ. eigenvalues --   -0.45511  -0.45281  -0.45050  -0.44836  -0.44801
 Alpha  occ. eigenvalues --   -0.44526  -0.43995  -0.43882  -0.43797  -0.43688
 Alpha  occ. eigenvalues --   -0.43657  -0.43409  -0.43165  -0.42919  -0.42839
 Alpha  occ. eigenvalues --   -0.42584  -0.42148  -0.42090  -0.41747  -0.41621
 Alpha  occ. eigenvalues --   -0.41363  -0.41016  -0.40894  -0.40742  -0.40646
 Alpha  occ. eigenvalues --   -0.40467  -0.40357  -0.40160  -0.39836  -0.39668
 Alpha  occ. eigenvalues --   -0.39603  -0.39289  -0.39250  -0.39069  -0.39022
 Alpha  occ. eigenvalues --   -0.38807  -0.38491  -0.38455  -0.38224  -0.38043
 Alpha  occ. eigenvalues --   -0.37924  -0.37851  -0.37516  -0.37412  -0.37312
 Alpha  occ. eigenvalues --   -0.36870  -0.36543  -0.36394  -0.36080  -0.35866
 Alpha  occ. eigenvalues --   -0.35451  -0.35363  -0.35168  -0.35054  -0.34982
 Alpha  occ. eigenvalues --   -0.34773  -0.34402  -0.34197  -0.33934  -0.33738
 Alpha  occ. eigenvalues --   -0.33256  -0.32751  -0.32169  -0.31916  -0.31520
 Alpha  occ. eigenvalues --   -0.30948  -0.30784  -0.30289  -0.30224  -0.29876
 Alpha  occ. eigenvalues --   -0.28765  -0.28621  -0.28118  -0.27847  -0.27711
 Alpha  occ. eigenvalues --   -0.27253  -0.27208  -0.23314  -0.21613
 Alpha virt. eigenvalues --   -0.08847  -0.06840  -0.02454  -0.01589   0.00581
 Alpha virt. eigenvalues --    0.02600   0.03869   0.04161   0.04521   0.05117
 Alpha virt. eigenvalues --    0.05671   0.06622   0.07895   0.08543   0.08967

 Mulliken charges:
               1
     1  Mg   0.812709
     2  C    0.076464
     3  C   -0.189291
     4  C   -0.129142
     5  C   -0.190755
     6  N   -0.653164
     7  C    0.292027
     8  C   -0.150467
     9  C   -0.168356
    10  C    0.367523
    11  C   -0.308068
    12  C   -0.140540
    13  C   -0.290054
    14  C    0.592971
    15  O   -0.452562
    16  O   -0.395069
    17  N   -0.730054
    18  C    0.327286
    19  C    0.020801
    20  C   -0.040850
    21  C    0.267790
    22  C   -0.345367
    23  C    0.259839
    24  O   -0.407609
    25  N   -0.669675
    26  C    0.237726
    27  C    0.089085
    28  C    0.035008
    29  C    0.359450
    30  C    0.217386
    31  C   -0.289486
    32  C   -0.320984
    33  N   -0.715401
    34  C    0.323617
    35  C   -0.013517
    36  C    0.089041
    37  C    0.248892
    38  C   -0.359169
    39  C    0.322785
    40  O   -0.478164
    41  C   -0.324285
    42  C    0.613467
    43  O   -0.499852
    44  O   -0.364795
    45  C   -0.080372
    46  C   -0.025394
    47  C   -0.140423
    48  C    0.142470
    49  C   -0.395014
    50  C   -0.234232
    51  C   -0.173330
    52  C   -0.150255
    53  C   -0.065801
    54  C   -0.295823
    55  C   -0.175055
    56  C   -0.152143
    57  C   -0.153821
    58  C   -0.052979
    59  C   -0.314714
    60  C   -0.159411
    61  C   -0.153920
    62  C   -0.166653
    63  C   -0.074901
    64  C   -0.298387
    65  C   -0.301637
    66  H    0.086913
    67  H    0.095637
    68  H    0.079209
    69  H    0.130874
    70  H    0.116512
    71  H    0.117908
    72  H    0.105465
    73  H    0.129447
    74  H    0.121185
    75  H    0.134325
    76  H    0.116816
    77  H    0.091950
    78  H    0.092782
    79  H    0.164809
    80  H    0.089068
    81  H    0.087133
    82  H    0.117998
    83  H    0.101257
    84  H    0.093362
    85  H    0.124157
    86  H    0.122383
    87  H    0.122844
    88  H    0.150654
    89  H    0.152792
    90  H    0.147524
    91  H    0.130210
    92  H    0.123222
    93  H    0.065843
    94  H    0.147927
    95  H    0.107394
    96  H    0.133433
    97  H    0.102860
    98  H    0.100868
    99  H    0.067088
   100  H    0.076788
   101  H    0.100039
   102  H    0.093427
   103  H    0.065793
   104  H    0.117657
   105  H    0.106318
   106  H    0.085705
   107  H    0.080563
   108  H    0.092496
   109  H    0.112900
   110  H    0.066510
   111  H    0.043822
   112  H    0.088075
   113  H    0.091246
   114  H    0.102210
   115  H    0.082906
   116  H    0.068443
   117  H    0.085347
   118  H    0.077854
   119  H    0.098538
   120  H    0.090087
   121  H    0.079296
   122  H    0.087345
   123  H    0.056236
   124  H    0.108395
   125  H    0.093013
   126  H    0.086962
   127  H    0.105719
   128  H    0.092794
   129  H    0.110753
   130  H    0.098239
   131  H    0.139831
   132  H    0.106073
   133  O   -0.447833
   134  H    0.079204
 Sum of Mulliken charges =   0.00000

 Dipole moment (field-independent basis, Debye):
    X=              1.9254    Y=             -5.2022    Z=             -1.6729  Tot=              5.7939
 Quadrupole moment (field-independent basis, Debye-Ang):
   XX=           -357.1042   YY=           -439.9662   ZZ=           -398.9597
   XY=              3.5464   XZ=             33.4072   YZ=            -35.0957

 Normal termination of Gaussian 09 at Fri Oct  4 04:53:11 2019.
