 Gaussian 09, Revision D.01,
 Gaussian 09:  ES64L-G09RevD.01 24-Apr-2013

 ----------------------------------------------------------------------
 # td=(NStates=1) iop(3/107=0140000000,3/108=0140000000) iop(3/107=0140
 000000,3/108=0140000000) CAM-B3LYP/6-31G(d,p)
 ----------------------------------------------------------------------

 --
 TD
 --
 Symbolic Z-matrix:
 Charge =  0 Multiplicity = 1

                         Standard orientation:
 ---------------------------------------------------------------------
 Center     Atomic      Atomic             Coordinates (Angstroms)
 Number     Number       Type             X           Y           Z
 ---------------------------------------------------------------------
      1         12           0       -5.797649    1.170439    0.233969
      2          6           0       -4.971925   -2.056466   -0.364529
      3          6           0       -3.469120    1.160565    2.782116
      4          6           0       -6.371100    4.489694    0.638519
      5          6           0       -8.053981    1.148547   -2.294631
      6          7           0       -4.398444   -0.284427    1.125882
      7          6           0       -4.141844   -1.598818    0.601964
      8          6           0       -3.184273   -2.295471    1.486860
      9          6           0       -2.915255   -1.293744    2.568738
     10          6           0       -3.535737   -0.143184    2.156109
     11          6           0       -3.305575   -1.713539    4.020506
     12          6           0       -2.017483   -2.720538    0.730863
     13          6           0       -0.963730   -3.627601    1.451761
     14          6           0        0.306850   -3.929657    0.660824
     15          8           0        0.569342   -3.496531   -0.459314
     16          8           0        1.207659   -4.605641    1.402885
     17          7           0       -5.102886    2.567910    1.491059
     18          6           0       -4.066427    2.432012    2.420186
     19          6           0       -3.849427    3.631689    3.192170
     20          6           0       -4.648561    4.555366    2.516466
     21          6           0       -5.356344    3.933240    1.453548
     22          6           0       -2.929526    3.703477    4.371908
     23          6           0       -4.534795    5.955627    2.771138
     24          8           0       -3.994493    6.500516    3.703863
     25          7           0       -6.959264    2.600027   -0.702582
     26          6           0       -7.062234    3.851257   -0.340361
     27          6           0       -7.980321    4.592470   -1.240711
     28          6           0       -8.578155    3.575379   -2.054308
     29          6           0       -7.814228    2.338635   -1.709068
     30          6           0       -8.461258    5.969434   -1.166566
     31          6           0       -9.489139    3.694470   -3.173138
     32          6           0       -8.742236    3.827607   -4.518272
     33          7           0       -6.258963   -0.112304   -1.212257
     34          6           0       -7.381699   -0.097356   -2.128325
     35          6           0       -7.607734   -1.434490   -2.694055
     36          6           0       -6.691393   -2.226475   -2.045100
     37          6           0       -5.874010   -1.395563   -1.131330
     38          6           0       -8.560152   -1.741511   -3.814258
     39          6           0       -6.200025   -3.490810   -1.982867
     40          8           0       -6.582037   -4.444430   -2.610721
     41          6           0       -5.002472   -3.478766   -1.002308
     42          6           0       -5.132094   -4.527166    0.061482
     43          8           0       -5.466414   -4.305876    1.213234
     44          8           0       -4.893138   -5.752220   -0.395512
     45          6           0       -5.111519   -6.847031    0.542395
     46          6           0        2.394076   -5.044000    0.676837
     47          6           0        3.416324   -3.969192    1.055015
     48          6           0        3.937808   -3.093260    0.225367
     49          6           0        3.613193   -3.101116   -1.294207
     50          6           0        5.185981   -2.232694    0.753450
     51          6           0        6.476098   -2.698939    0.105524
     52          6           0        7.679107   -1.873674    0.616917
     53          6           0        9.007042   -1.934045   -0.226693
     54          6           0        9.488978   -3.480750   -0.000016
     55          6           0        9.997181   -0.922344    0.426713
     56          6           0       11.334853   -0.865192   -0.241796
     57          6           0       12.267304    0.358992   -0.052649
     58          6           0       13.650974    0.539896   -0.674696
     59          6           0       14.542568   -0.731724   -0.332971
     60          6           0       14.352454    1.751104   -0.152194
     61          6           0       15.570925    2.038252   -0.996196
     62          6           0       16.080862    3.488502   -0.581073
     63          6           0       17.303798    3.994292   -1.290567
     64          6           0       17.164251    3.990978   -2.745212
     65          6           0       17.708961    5.445289   -0.864447
     66          1           0       -2.680312    1.459508    3.533612
     67          1           0       -6.523580    5.482349    0.741432
     68          1           0       -8.935755    1.080863   -2.900442
     69          1           0       -3.688641   -3.116047    1.917783
     70          1           0       -1.899394   -1.323112    2.688606
     71          1           0       -3.014745   -2.837756    4.134077
     72          1           0       -2.760682   -1.023577    4.966856
     73          1           0       -4.367228   -1.523044    4.040483
     74          1           0       -2.250752   -3.100831   -0.407702
     75          1           0       -1.489157   -1.852443    0.496371
     76          1           0       -0.666595   -3.197077    2.536171
     77          1           0       -1.543148   -4.616317    1.599954
     78          1           0       -1.922846    3.687458    4.052701
     79          1           0       -3.057723    4.746773    4.624757
     80          1           0       -3.431981    3.357207    5.234843
     81          1           0       -4.963794    6.687321    2.053307
     82          1           0      -10.202757    2.999695   -3.069035
     83          1           0      -10.084835    4.543169   -3.019687
     84          1           0       -9.369021    3.630353   -5.409423
     85          1           0       -7.970264    4.756773   -4.524173
     86          1           0       -7.889503    2.953553   -4.455741
     87          1           0       -8.383131   -1.134150   -4.724324
     88          1           0       -8.578432   -2.690634   -4.051225
     89          1           0       -9.562058   -1.501376   -3.376113
     90          1           0       -4.139241   -3.731820   -1.788229
     91          1           0        2.365279   -5.906117    1.224896
     92          1           0        2.283921   -5.317229   -0.318589
     93          1           0        3.635453   -3.875025    2.162834
     94          1           0        2.748759   -3.501373   -1.699724
     95          1           0        3.717905   -2.175098   -1.628899
     96          1           0        4.395327   -3.606899   -1.579797
     97          1           0        5.051977   -1.236505    0.491154
     98          1           0        5.222181   -2.519775    1.834501
     99          1           0        6.532130   -3.787661    0.241213
    100          1           0        6.189825   -2.472078   -0.893327
    101          1           0        7.091880   -0.767399    0.622751
    102          1           0        8.039146   -2.167937    1.617936
    103          1           0        8.522519   -1.536129   -1.250364
    104          1           0        8.886135   -4.291232   -0.099107
    105          1           0       10.476739   -3.799291   -0.693747
    106          1           0        9.781184   -3.351912    1.066210
    107          1           0        9.491087    0.213098    0.680603
    108          1           0       10.153867   -1.196306    1.500584
    109          1           0       11.867448   -1.758403   -0.056364
    110          1           0       10.993369   -0.851160   -1.432535
    111          1           0       11.482495    1.266155   -0.118704
    112          1           0       12.539104    0.318882    0.974333
    113          1           0       13.653557    0.412220   -1.804330
    114          1           0       14.980297   -0.906953    0.704473
    115          1           0       14.244331   -1.809144   -0.503863
    116          1           0       15.338795   -0.742802   -0.979711
    117          1           0       13.662466    2.619327   -0.205794
    118          1           0       14.549795    1.651270    0.774530
    119          1           0       16.383021    1.349898   -0.976884
    120          1           0       15.445502    2.186342   -2.051857
    121          1           0       15.265153    4.279239   -0.579468
    122          1           0       16.175822    3.425420    0.478830
    123          1           0       18.081498    3.407866   -0.943743
    124          1           0       16.350523    4.733756   -3.012192
    125          1           0       18.050590    4.489546   -3.127663
    126          1           0       16.978703    3.109834   -3.405676
    127          1           0       18.308507    5.574960    0.100997
    128          1           0       18.471218    5.695060   -1.729285
    129          1           0       16.836487    6.075733   -0.814912
    130          1           0       -4.737859   -7.905722   -0.141451
    131          1           0       -6.345499   -6.730512    0.802688
    132          1           0       -4.420805   -6.838281    1.479013
    133          8           0       -7.888103    6.763806   -0.405570
    134          1           0       -9.233004    6.374846   -1.966651
 ---------------------------------------------------------------------

 SCF Done:  E(RCAM-B3LYP) =  -3043.40563493     A.U. after   16 cycles

 Excitation energies and oscillator strengths:

 Excited State   1:      Singlet-A      1.9894 eV  623.22 nm  f=0.1749  <S**2>=0.000
     243 -> 246       -0.25841
     244 -> 245        0.64884
 This state for optimization and/or second-order correction.
 Total Energy, E(TD-HF/TD-KS) =  -3043.33252536
 Copying the excited state density for this state as the 1-particle RhoCI density.

 The electronic state is 1-A.
 Alpha  occ. eigenvalues --  -46.81174 -19.23077 -19.21932 -19.17031 -19.16857
 Alpha  occ. eigenvalues --  -19.16799 -19.15909 -19.15698 -14.38940 -14.36679
 Alpha  occ. eigenvalues --  -14.36527 -14.36161 -10.34990 -10.34965 -10.31668
 Alpha  occ. eigenvalues --  -10.31049 -10.29428 -10.28808 -10.27355 -10.26921
 Alpha  occ. eigenvalues --  -10.26662 -10.26358 -10.26111 -10.25939 -10.25851
 Alpha  occ. eigenvalues --  -10.25724 -10.25674 -10.25501 -10.25403 -10.25337
 Alpha  occ. eigenvalues --  -10.24862 -10.24804 -10.24583 -10.24334 -10.24235
 Alpha  occ. eigenvalues --  -10.23802 -10.23430 -10.23303 -10.23271 -10.23212
 Alpha  occ. eigenvalues --  -10.22852 -10.22720 -10.22625 -10.22567 -10.22531
 Alpha  occ. eigenvalues --  -10.22468 -10.22457 -10.22387 -10.22190 -10.22135
 Alpha  occ. eigenvalues --  -10.21543 -10.21392 -10.21302 -10.21234 -10.21102
 Alpha  occ. eigenvalues --  -10.21087 -10.20989 -10.20834 -10.20746 -10.20405
 Alpha  occ. eigenvalues --  -10.20004 -10.19975 -10.19971 -10.19810 -10.19411
 Alpha  occ. eigenvalues --  -10.17974  -3.09820  -1.84746  -1.84300  -1.84226
 Alpha  occ. eigenvalues --   -1.14151  -1.13002  -1.06999  -1.06508  -1.05573
 Alpha  occ. eigenvalues --   -1.04672  -1.03814  -1.01161  -1.00584  -0.98572
 Alpha  occ. eigenvalues --   -0.98148  -0.88889  -0.87273  -0.86319  -0.85911
 Alpha  occ. eigenvalues --   -0.85636  -0.84625  -0.84250  -0.84218  -0.83512
 Alpha  occ. eigenvalues --   -0.83400  -0.83045  -0.81647  -0.80807  -0.79650
 Alpha  occ. eigenvalues --   -0.78747  -0.78190  -0.77725  -0.77108  -0.77034
 Alpha  occ. eigenvalues --   -0.75762  -0.75376  -0.74576  -0.72746  -0.71908
 Alpha  occ. eigenvalues --   -0.71757  -0.70967  -0.70339  -0.69943  -0.69898
 Alpha  occ. eigenvalues --   -0.69095  -0.69061  -0.67961  -0.67083  -0.66502
 Alpha  occ. eigenvalues --   -0.65818  -0.64986  -0.63943  -0.63143  -0.62712
 Alpha  occ. eigenvalues --   -0.62347  -0.60769  -0.60751  -0.59317  -0.59183
 Alpha  occ. eigenvalues --   -0.58695  -0.58329  -0.58106  -0.57830  -0.57769
 Alpha  occ. eigenvalues --   -0.56322  -0.55639  -0.55605  -0.55059  -0.54636
 Alpha  occ. eigenvalues --   -0.53742  -0.53257  -0.53054  -0.52827  -0.52098
 Alpha  occ. eigenvalues --   -0.51984  -0.51358  -0.51335  -0.50987  -0.50442
 Alpha  occ. eigenvalues --   -0.50240  -0.50077  -0.49987  -0.49463  -0.49411
 Alpha  occ. eigenvalues --   -0.49227  -0.48701  -0.48316  -0.48049  -0.47833
 Alpha  occ. eigenvalues --   -0.47769  -0.47602  -0.47403  -0.46850  -0.46599
 Alpha  occ. eigenvalues --   -0.46312  -0.46194  -0.46006  -0.45827  -0.45685
 Alpha  occ. eigenvalues --   -0.45569  -0.45295  -0.45078  -0.45041  -0.44600
 Alpha  occ. eigenvalues --   -0.44215  -0.43997  -0.43835  -0.43559  -0.43460
 Alpha  occ. eigenvalues --   -0.43194  -0.43123  -0.42922  -0.42858  -0.42699
 Alpha  occ. eigenvalues --   -0.42517  -0.42192  -0.42137  -0.41692  -0.41676
 Alpha  occ. eigenvalues --   -0.41307  -0.41128  -0.41042  -0.40933  -0.40759
 Alpha  occ. eigenvalues --   -0.40705  -0.40627  -0.40418  -0.40279  -0.40120
 Alpha  occ. eigenvalues --   -0.39865  -0.39675  -0.39476  -0.39337  -0.39056
 Alpha  occ. eigenvalues --   -0.38942  -0.38813  -0.38573  -0.38172  -0.38060
 Alpha  occ. eigenvalues --   -0.37610  -0.37327  -0.37252  -0.37230  -0.37133
 Alpha  occ. eigenvalues --   -0.36936  -0.36723  -0.36405  -0.36313  -0.35605
 Alpha  occ. eigenvalues --   -0.35535  -0.34992  -0.34802  -0.34752  -0.34704
 Alpha  occ. eigenvalues --   -0.34558  -0.34009  -0.33518  -0.33453  -0.33332
 Alpha  occ. eigenvalues --   -0.33321  -0.32848  -0.32145  -0.32106  -0.31484
 Alpha  occ. eigenvalues --   -0.30955  -0.30732  -0.30577  -0.30288  -0.29938
 Alpha  occ. eigenvalues --   -0.28743  -0.28053  -0.27806  -0.27673  -0.27199
 Alpha  occ. eigenvalues --   -0.27001  -0.26498  -0.22584  -0.21218
 Alpha virt. eigenvalues --   -0.08436  -0.06182  -0.01797  -0.00412   0.00979
 Alpha virt. eigenvalues --    0.02405   0.03073   0.03227   0.04310   0.05076
 Alpha virt. eigenvalues --    0.05776   0.06286   0.07765   0.08544   0.08905

 Mulliken charges:
               1
     1  Mg   0.826735
     2  C    0.120213
     3  C   -0.205361
     4  C   -0.148740
     5  C   -0.186271
     6  N   -0.609247
     7  C    0.268454
     8  C   -0.142001
     9  C   -0.153867
    10  C    0.381071
    11  C   -0.295242
    12  C   -0.177705
    13  C   -0.271814
    14  C    0.604727
    15  O   -0.474961
    16  O   -0.464428
    17  N   -0.699749
    18  C    0.271745
    19  C    0.048544
    20  C   -0.042110
    21  C    0.315903
    22  C   -0.406377
    23  C    0.224628
    24  O   -0.419507
    25  N   -0.702902
    26  C    0.335371
    27  C   -0.025887
    28  C    0.001314
    29  C    0.330030
    30  C    0.222538
    31  C   -0.227884
    32  C   -0.303713
    33  N   -0.743338
    34  C    0.224648
    35  C    0.045863
    36  C    0.082638
    37  C    0.285185
    38  C   -0.358214
    39  C    0.293943
    40  O   -0.464445
    41  C   -0.349033
    42  C    0.640541
    43  O   -0.485529
    44  O   -0.430633
    45  C   -0.067444
    46  C    0.004078
    47  C   -0.125539
    48  C    0.088670
    49  C   -0.360896
    50  C   -0.230263
    51  C   -0.173179
    52  C   -0.149728
    53  C   -0.063950
    54  C   -0.303497
    55  C   -0.156107
    56  C   -0.160576
    57  C   -0.157572
    58  C   -0.063459
    59  C   -0.344510
    60  C   -0.140997
    61  C   -0.194004
    62  C   -0.181744
    63  C   -0.046677
    64  C   -0.308020
    65  C   -0.314232
    66  H    0.080269
    67  H    0.111093
    68  H    0.086028
    69  H    0.144479
    70  H    0.121895
    71  H    0.106522
    72  H    0.087731
    73  H    0.134061
    74  H    0.104191
    75  H    0.126326
    76  H    0.121441
    77  H    0.125796
    78  H    0.145089
    79  H    0.162926
    80  H    0.147809
    81  H    0.070873
    82  H    0.119955
    83  H    0.111609
    84  H    0.119680
    85  H    0.112170
    86  H    0.092118
    87  H    0.132430
    88  H    0.153455
    89  H    0.121644
    90  H    0.156735
    91  H    0.120558
    92  H    0.131191
    93  H    0.076832
    94  H    0.142000
    95  H    0.113784
    96  H    0.130724
    97  H    0.106151
    98  H    0.095200
    99  H    0.093827
   100  H    0.099822
   101  H    0.054785
   102  H    0.086052
   103  H    0.079010
   104  H    0.126307
   105  H    0.077688
   106  H    0.105043
   107  H    0.061593
   108  H    0.085045
   109  H    0.104909
   110  H    0.055930
   111  H    0.061520
   112  H    0.089652
   113  H    0.083690
   114  H    0.088041
   115  H    0.091454
   116  H    0.113643
   117  H    0.093043
   118  H    0.107304
   119  H    0.101529
   120  H    0.102437
   121  H    0.069439
   122  H    0.085763
   123  H    0.095953
   124  H    0.093240
   125  H    0.096540
   126  H    0.101932
   127  H    0.095848
   128  H    0.082379
   129  H    0.109642
   130  H    0.101189
   131  H    0.125821
   132  H    0.129879
   133  O   -0.420585
   134  H    0.072387
 Sum of Mulliken charges =   0.00000

 Dipole moment (field-independent basis, Debye):
    X=              1.8661    Y=             -5.5180    Z=             -0.6958  Tot=              5.8664
 Quadrupole moment (field-independent basis, Debye-Ang):
   XX=           -353.6697   YY=           -436.2770   ZZ=           -392.9745
   XY=              1.6436   XZ=             26.2221   YZ=            -33.5133

 Normal termination of Gaussian 09 at Fri Oct  4 02:45:44 2019.
