 Gaussian 09, Revision D.01,
 Gaussian 09:  ES64L-G09RevD.01 24-Apr-2013

 ----------------------------------------------------------------------
 # td=(NStates=1) iop(3/107=0140000000,3/108=0140000000) iop(3/107=0140
 000000,3/108=0140000000) CAM-B3LYP/6-31G(d,p)
 ----------------------------------------------------------------------

 --
 TD
 --
 Symbolic Z-matrix:
 Charge =  0 Multiplicity = 1

                         Standard orientation:
 ---------------------------------------------------------------------
 Center     Atomic      Atomic             Coordinates (Angstroms)
 Number     Number       Type             X           Y           Z
 ---------------------------------------------------------------------
      1         12           0       -5.657519    1.246611    0.242140
      2          6           0       -4.909215   -2.129489   -0.452769
      3          6           0       -3.500016    1.168057    2.836952
      4          6           0       -6.328668    4.605376    0.707273
      5          6           0       -7.971525    1.143478   -2.366682
      6          7           0       -4.410074   -0.334774    1.082903
      7          6           0       -4.194638   -1.572893    0.636427
      8          6           0       -3.236253   -2.376539    1.574129
      9          6           0       -2.890819   -1.338270    2.623932
     10          6           0       -3.602575   -0.086996    2.147318
     11          6           0       -3.398545   -1.758467    4.020328
     12          6           0       -1.994739   -2.742541    0.714593
     13          6           0       -0.954851   -3.672003    1.376087
     14          6           0        0.324150   -3.955113    0.683630
     15          8           0        0.508976   -3.548411   -0.452442
     16          8           0        1.218924   -4.701417    1.366217
     17          7           0       -4.909956    2.590678    1.512264
     18          6           0       -4.085669    2.349797    2.525673
     19          6           0       -3.725946    3.573763    3.217255
     20          6           0       -4.528495    4.587299    2.631629
     21          6           0       -5.281846    3.928421    1.547331
     22          6           0       -2.774543    3.668110    4.279587
     23          6           0       -4.690315    6.034411    2.885028
     24          8           0       -4.175229    6.583083    3.868078
     25          7           0       -6.867198    2.641460   -0.666457
     26          6           0       -6.957554    3.996179   -0.340606
     27          6           0       -7.937771    4.555309   -1.218737
     28          6           0       -8.518510    3.606070   -2.024632
     29          6           0       -7.795169    2.434801   -1.698452
     30          6           0       -8.341940    5.921699   -1.223617
     31          6           0       -9.431713    3.808852   -3.231872
     32          6           0       -8.782619    4.167182   -4.600962
     33          7           0       -6.310841   -0.064771   -1.172531
     34          6           0       -7.379300    0.019913   -2.101068
     35          6           0       -7.551462   -1.377644   -2.747988
     36          6           0       -6.661324   -2.103206   -1.994049
     37          6           0       -5.866392   -1.413577   -1.136997
     38          6           0       -8.679559   -1.741782   -3.813205
     39          6           0       -6.300015   -3.583208   -2.028731
     40          8           0       -6.510924   -4.531060   -2.755799
     41          6           0       -5.075787   -3.611255   -0.893922
     42          6           0       -5.371630   -4.745067   -0.007171
     43          8           0       -5.848936   -4.554141    1.055341
     44          8           0       -4.955500   -5.905087   -0.494924
     45          6           0       -5.244161   -6.956600    0.418024
     46          6           0        2.408472   -5.016162    0.737530
     47          6           0        3.471958   -3.928571    1.049145
     48          6           0        4.025869   -3.084057    0.243825
     49          6           0        3.596398   -2.816531   -1.196948
     50          6           0        5.257501   -2.330717    0.729662
     51          6           0        6.609480   -2.775363    0.205556
     52          6           0        7.764046   -1.894690    0.692908
     53          6           0        9.056946   -2.011831   -0.122448
     54          6           0        9.627933   -3.436137    0.096421
     55          6           0       10.044944   -0.924292    0.370988
     56          6           0       11.386164   -0.950983   -0.381113
     57          6           0       12.257769    0.234022    0.123671
     58          6           0       13.564808    0.508573   -0.703419
     59          6           0       14.493911   -0.634653   -0.517790
     60          6           0       14.249918    1.778772   -0.252504
     61          6           0       15.476350    2.179672   -1.142305
     62          6           0       16.037266    3.492967   -0.599533
     63          6           0       17.258099    4.023787   -1.298582
     64          6           0       17.221111    4.219450   -2.826861
     65          6           0       17.727704    5.242443   -0.669482
     66          1           0       -3.005424    1.208382    3.824563
     67          1           0       -6.341218    5.715226    1.053920
     68          1           0       -8.830549    1.258099   -3.180346
     69          1           0       -3.818579   -3.127871    2.027563
     70          1           0       -1.683989   -1.232036    2.579556
     71          1           0       -3.167496   -2.774190    4.355855
     72          1           0       -3.163744   -1.079322    4.711613
     73          1           0       -4.380699   -1.965829    3.897128
     74          1           0       -2.323826   -3.384557   -0.160093
     75          1           0       -1.537370   -1.845600    0.525030
     76          1           0       -0.590604   -3.250175    2.216770
     77          1           0       -1.307553   -4.539735    1.774363
     78          1           0       -1.785804    3.005569    4.060411
     79          1           0       -2.804978    4.825596    4.430601
     80          1           0       -3.148799    3.249402    5.235449
     81          1           0       -5.285937    6.523845    2.273363
     82          1           0      -10.075517    3.023905   -3.181681
     83          1           0      -10.110955    4.662229   -2.996452
     84          1           0       -9.620395    4.193503   -5.187693
     85          1           0       -8.259244    5.195651   -4.563397
     86          1           0       -8.166207    3.389036   -4.729683
     87          1           0       -8.451586   -1.165280   -4.824823
     88          1           0       -8.534221   -2.923565   -3.921196
     89          1           0       -9.678430   -1.528148   -3.296429
     90          1           0       -4.192743   -3.691248   -1.577488
     91          1           0        2.751309   -5.922359    1.263928
     92          1           0        2.302488   -5.221474   -0.314388
     93          1           0        3.963985   -3.970459    2.130171
     94          1           0        2.387270   -2.928077   -1.307285
     95          1           0        3.736210   -1.769364   -1.549470
     96          1           0        4.190162   -3.559253   -1.883923
     97          1           0        5.093112   -1.126077    0.732055
     98          1           0        5.180860   -2.548222    1.685477
     99          1           0        6.931415   -3.898636    0.491240
    100          1           0        6.756131   -2.600936   -0.880331
    101          1           0        7.299646   -0.893230    0.494947
    102          1           0        7.951277   -1.866407    1.754410
    103          1           0        8.777487   -1.763277   -1.250224
    104          1           0        8.798097   -4.302350   -0.355242
    105          1           0       10.554709   -3.498428   -0.488581
    106          1           0        9.866983   -3.661348    1.274732
    107          1           0        9.616938    0.118811    0.086516
    108          1           0       10.189357   -1.120763    1.407188
    109          1           0       12.115622   -1.772564   -0.276070
    110          1           0       11.335437   -0.583535   -1.472957
    111          1           0       11.840646    1.326606    0.065318
    112          1           0       12.490103    0.110217    1.287006
    113          1           0       13.401652    0.502800   -1.759492
    114          1           0       14.645327   -0.963140    0.480010
    115          1           0       14.206342   -1.723536   -0.913296
    116          1           0       15.469598   -0.596487   -1.093860
    117          1           0       13.483367    2.383413    0.021984
    118          1           0       14.652805    1.244354    0.546360
    119          1           0       16.249442    1.531188   -1.057670
    120          1           0       15.310232    2.260328   -2.262091
    121          1           0       15.053362    3.993066   -0.640933
    122          1           0       15.958290    3.657762    0.642927
    123          1           0       18.057385    3.272217   -1.054210
    124          1           0       16.346797    4.889921   -3.152109
    125          1           0       18.177312    4.553011   -3.267228
    126          1           0       16.787761    3.319975   -3.387902
    127          1           0       18.102961    5.026577    0.325568
    128          1           0       18.551094    5.744653   -1.370583
    129          1           0       17.161032    6.027229   -0.443736
    130          1           0       -4.780493   -7.724572   -0.123465
    131          1           0       -6.425295   -6.912346    0.434642
    132          1           0       -4.917870   -6.764085    1.382587
    133          8           0       -8.040758    6.819810   -0.410172
    134          1           0       -8.933621    6.217603   -2.052979
 ---------------------------------------------------------------------

 SCF Done:  E(RCAM-B3LYP) =  -3043.43449252     A.U. after   16 cycles

 Excitation energies and oscillator strengths:

 Excited State   1:      Singlet-A      2.0176 eV  614.52 nm  f=0.1596  <S**2>=0.000
     243 -> 246        0.28166
     244 -> 245        0.63374
 This state for optimization and/or second-order correction.
 Total Energy, E(TD-HF/TD-KS) =  -3043.36034763
 Copying the excited state density for this state as the 1-particle RhoCI density.

 The electronic state is 1-A.
 Alpha  occ. eigenvalues --  -46.81173 -19.23110 -19.22940 -19.19487 -19.17369
 Alpha  occ. eigenvalues --  -19.16962 -19.16832 -19.15807 -14.39795 -14.36801
 Alpha  occ. eigenvalues --  -14.36704 -14.36665 -10.35213 -10.34817 -10.33212
 Alpha  occ. eigenvalues --  -10.29359 -10.28515 -10.28289 -10.28203 -10.27773
 Alpha  occ. eigenvalues --  -10.27237 -10.26973 -10.26754 -10.26542 -10.26425
 Alpha  occ. eigenvalues --  -10.26388 -10.26162 -10.25804 -10.25342 -10.25251
 Alpha  occ. eigenvalues --  -10.25206 -10.24936 -10.24666 -10.24614 -10.24016
 Alpha  occ. eigenvalues --  -10.23859 -10.23758 -10.23735 -10.23367 -10.23189
 Alpha  occ. eigenvalues --  -10.23131 -10.23090 -10.23039 -10.22774 -10.22527
 Alpha  occ. eigenvalues --  -10.22321 -10.22131 -10.22024 -10.22004 -10.21893
 Alpha  occ. eigenvalues --  -10.21717 -10.21708 -10.21634 -10.21556 -10.21547
 Alpha  occ. eigenvalues --  -10.21370 -10.21312 -10.21309 -10.21053 -10.20929
 Alpha  occ. eigenvalues --  -10.20605 -10.20460 -10.20163 -10.20158 -10.19128
 Alpha  occ. eigenvalues --  -10.18832  -3.09779  -1.84718  -1.84258  -1.84177
 Alpha  occ. eigenvalues --   -1.16074  -1.14771  -1.08751  -1.07230  -1.05458
 Alpha  occ. eigenvalues --   -1.05312  -1.04006  -1.01614  -0.99726  -0.98783
 Alpha  occ. eigenvalues --   -0.97851  -0.88555  -0.87005  -0.86339  -0.85812
 Alpha  occ. eigenvalues --   -0.85398  -0.84611  -0.84454  -0.83932  -0.83554
 Alpha  occ. eigenvalues --   -0.83243  -0.82908  -0.82043  -0.80574  -0.80131
 Alpha  occ. eigenvalues --   -0.79640  -0.78836  -0.78071  -0.77924  -0.76937
 Alpha  occ. eigenvalues --   -0.75636  -0.74804  -0.74389  -0.73207  -0.72252
 Alpha  occ. eigenvalues --   -0.71097  -0.70569  -0.70526  -0.70344  -0.69707
 Alpha  occ. eigenvalues --   -0.69119  -0.68487  -0.67980  -0.67520  -0.67072
 Alpha  occ. eigenvalues --   -0.66642  -0.64870  -0.63824  -0.62887  -0.62538
 Alpha  occ. eigenvalues --   -0.62141  -0.61266  -0.60338  -0.59642  -0.59526
 Alpha  occ. eigenvalues --   -0.59289  -0.58436  -0.58249  -0.57771  -0.57441
 Alpha  occ. eigenvalues --   -0.56863  -0.56414  -0.55604  -0.55094  -0.54685
 Alpha  occ. eigenvalues --   -0.54410  -0.53865  -0.53344  -0.52869  -0.52448
 Alpha  occ. eigenvalues --   -0.52319  -0.51834  -0.51520  -0.51420  -0.51100
 Alpha  occ. eigenvalues --   -0.50597  -0.50485  -0.50135  -0.49905  -0.49280
 Alpha  occ. eigenvalues --   -0.49266  -0.48889  -0.48313  -0.48144  -0.48026
 Alpha  occ. eigenvalues --   -0.47957  -0.47618  -0.47363  -0.47221  -0.47067
 Alpha  occ. eigenvalues --   -0.46693  -0.46654  -0.46471  -0.46138  -0.45936
 Alpha  occ. eigenvalues --   -0.45774  -0.45297  -0.45211  -0.44822  -0.44572
 Alpha  occ. eigenvalues --   -0.44415  -0.44101  -0.43977  -0.43865  -0.43712
 Alpha  occ. eigenvalues --   -0.43192  -0.43090  -0.42964  -0.42876  -0.42609
 Alpha  occ. eigenvalues --   -0.42576  -0.42421  -0.42172  -0.42051  -0.41846
 Alpha  occ. eigenvalues --   -0.41652  -0.41450  -0.41383  -0.40947  -0.40853
 Alpha  occ. eigenvalues --   -0.40815  -0.40626  -0.40550  -0.40504  -0.40332
 Alpha  occ. eigenvalues --   -0.40096  -0.39944  -0.39780  -0.39348  -0.39254
 Alpha  occ. eigenvalues --   -0.39198  -0.39113  -0.38863  -0.38445  -0.38066
 Alpha  occ. eigenvalues --   -0.37943  -0.37657  -0.37486  -0.37416  -0.37079
 Alpha  occ. eigenvalues --   -0.36991  -0.36704  -0.36452  -0.36276  -0.35702
 Alpha  occ. eigenvalues --   -0.35599  -0.34858  -0.34689  -0.34633  -0.34363
 Alpha  occ. eigenvalues --   -0.34190  -0.34063  -0.33967  -0.33924  -0.33114
 Alpha  occ. eigenvalues --   -0.33029  -0.32508  -0.32104  -0.32027  -0.31866
 Alpha  occ. eigenvalues --   -0.31610  -0.30748  -0.30267  -0.30092  -0.30033
 Alpha  occ. eigenvalues --   -0.28900  -0.28135  -0.27931  -0.27851  -0.27763
 Alpha  occ. eigenvalues --   -0.27159  -0.26793  -0.23450  -0.21297
 Alpha virt. eigenvalues --   -0.08342  -0.06989  -0.02533  -0.00821   0.00628
 Alpha virt. eigenvalues --    0.03389   0.03714   0.03857   0.04200   0.04650
 Alpha virt. eigenvalues --    0.05165   0.05913   0.07719   0.08296   0.09225

 Mulliken charges:
               1
     1  Mg   0.824704
     2  C    0.033440
     3  C   -0.194727
     4  C   -0.152862
     5  C   -0.193673
     6  N   -0.599889
     7  C    0.289090
     8  C   -0.147350
     9  C   -0.154685
    10  C    0.330732
    11  C   -0.314643
    12  C   -0.158846
    13  C   -0.270550
    14  C    0.591715
    15  O   -0.469161
    16  O   -0.440262
    17  N   -0.734603
    18  C    0.360962
    19  C    0.065999
    20  C   -0.047385
    21  C    0.255640
    22  C   -0.416760
    23  C    0.275470
    24  O   -0.435761
    25  N   -0.704348
    26  C    0.334065
    27  C   -0.022323
    28  C    0.021794
    29  C    0.271687
    30  C    0.224925
    31  C   -0.255662
    32  C   -0.290023
    33  N   -0.751473
    34  C    0.307953
    35  C    0.037935
    36  C   -0.024225
    37  C    0.363219
    38  C   -0.367532
    39  C    0.354697
    40  O   -0.425213
    41  C   -0.319769
    42  C    0.625917
    43  O   -0.473619
    44  O   -0.437813
    45  C   -0.084795
    46  C    0.001485
    47  C   -0.153614
    48  C    0.156556
    49  C   -0.388027
    50  C   -0.213455
    51  C   -0.161862
    52  C   -0.164300
    53  C   -0.059732
    54  C   -0.286931
    55  C   -0.147998
    56  C   -0.179308
    57  C   -0.182245
    58  C   -0.069890
    59  C   -0.328264
    60  C   -0.165709
    61  C   -0.177887
    62  C   -0.172783
    63  C   -0.031203
    64  C   -0.319401
    65  C   -0.298487
    66  H    0.084573
    67  H    0.142386
    68  H    0.083777
    69  H    0.129118
    70  H    0.090585
    71  H    0.106810
    72  H    0.121752
    73  H    0.132402
    74  H    0.117250
    75  H    0.125922
    76  H    0.136939
    77  H    0.136952
    78  H    0.107074
    79  H    0.155039
    80  H    0.132949
    81  H    0.085677
    82  H    0.117972
    83  H    0.106215
    84  H    0.127252
    85  H    0.112721
    86  H    0.125802
    87  H    0.132265
    88  H    0.143865
    89  H    0.140478
    90  H    0.162937
    91  H    0.112828
    92  H    0.132159
    93  H    0.066783
    94  H    0.141417
    95  H    0.106968
    96  H    0.104620
    97  H    0.072021
    98  H    0.104366
    99  H    0.079549
   100  H    0.095923
   101  H    0.077672
   102  H    0.086676
   103  H    0.069453
   104  H    0.073974
   105  H    0.112003
   106  H    0.082440
   107  H    0.092221
   108  H    0.097373
   109  H    0.107142
   110  H    0.092057
   111  H    0.066898
   112  H    0.065580
   113  H    0.083715
   114  H    0.109321
   115  H    0.068485
   116  H    0.096392
   117  H    0.088486
   118  H    0.112527
   119  H    0.107017
   120  H    0.086767
   121  H    0.091360
   122  H    0.059524
   123  H    0.090671
   124  H    0.097229
   125  H    0.111281
   126  H    0.087298
   127  H    0.095461
   128  H    0.065761
   129  H    0.115857
   130  H    0.130561
   131  H    0.120155
   132  H    0.139194
   133  O   -0.453666
   134  H    0.058832
 Sum of Mulliken charges =   0.00000

 Dipole moment (field-independent basis, Debye):
    X=              0.6150    Y=             -6.5015    Z=             -1.0182  Tot=              6.6094
 Quadrupole moment (field-independent basis, Debye-Ang):
   XX=           -379.2545   YY=           -442.3502   ZZ=           -392.7843
   XY=             20.1897   XZ=             26.3675   YZ=            -40.2276

 Normal termination of Gaussian 09 at Tue Oct  8 16:25:50 2019.
