 Gaussian 09, Revision D.01,
 Gaussian 09:  ES64L-G09RevD.01 24-Apr-2013

 ----------------------------------------------------------------------
 # td=(NStates=1) iop(3/107=0140000000,3/108=0140000000) iop(3/107=0140
 000000,3/108=0140000000) CAM-B3LYP/6-31G(d,p)
 ----------------------------------------------------------------------

 --
 TD
 --
 Symbolic Z-matrix:
 Charge =  0 Multiplicity = 1

                         Standard orientation:
 ---------------------------------------------------------------------
 Center     Atomic      Atomic             Coordinates (Angstroms)
 Number     Number       Type             X           Y           Z
 ---------------------------------------------------------------------
      1         12           0       -5.679709    1.219128    0.261408
      2          6           0       -5.097461   -2.147626   -0.355806
      3          6           0       -3.448949    1.135834    2.849418
      4          6           0       -6.072923    4.487321    0.620320
      5          6           0       -7.954402    1.231998   -2.355327
      6          7           0       -4.391456   -0.311942    1.020190
      7          6           0       -4.193248   -1.718508    0.654487
      8          6           0       -3.176464   -2.499466    1.504286
      9          6           0       -3.007123   -1.421211    2.708412
     10          6           0       -3.658815   -0.133513    2.201689
     11          6           0       -3.692093   -1.908080    4.009036
     12          6           0       -1.975247   -2.701446    0.693870
     13          6           0       -0.909148   -3.496317    1.475070
     14          6           0        0.318395   -3.894785    0.631211
     15          8           0        0.503255   -3.500315   -0.514521
     16          8           0        0.995303   -4.726672    1.357770
     17          7           0       -4.877522    2.554589    1.484234
     18          6           0       -3.956991    2.435741    2.509014
     19          6           0       -3.652844    3.642166    3.232030
     20          6           0       -4.502324    4.598562    2.663978
     21          6           0       -5.171949    3.922510    1.552285
     22          6           0       -2.689930    3.776391    4.346788
     23          6           0       -4.471534    5.932262    2.973811
     24          8           0       -3.822805    6.498050    3.814725
     25          7           0       -6.937295    2.583721   -0.638374
     26          6           0       -6.917813    3.930687   -0.339982
     27          6           0       -7.887987    4.660371   -1.289352
     28          6           0       -8.440651    3.765770   -2.062065
     29          6           0       -7.791536    2.462716   -1.665764
     30          6           0       -8.264537    6.053692   -1.262756
     31          6           0       -9.455755    3.936061   -3.179753
     32          6           0       -8.966755    4.032255   -4.574447
     33          7           0       -6.542395   -0.125952   -0.957587
     34          6           0       -7.407903    0.007392   -2.029990
     35          6           0       -7.482673   -1.242097   -2.821137
     36          6           0       -6.674370   -2.072862   -2.059169
     37          6           0       -5.987827   -1.332641   -1.048707
     38          6           0       -8.451397   -1.554405   -3.926666
     39          6           0       -6.188991   -3.472826   -2.016286
     40          8           0       -6.548765   -4.447486   -2.755452
     41          6           0       -5.069617   -3.517422   -0.945274
     42          6           0       -5.334534   -4.616224    0.029481
     43          8           0       -5.499605   -4.520782    1.240400
     44          8           0       -5.056187   -5.790040   -0.686132
     45          6           0       -5.417950   -6.977398    0.225500
     46          6           0        2.316547   -5.015672    0.797615
     47          6           0        3.390826   -4.063811    1.177630
     48          6           0        4.115447   -3.211016    0.386385
     49          6           0        3.815614   -3.192913   -1.047160
     50          6           0        5.169988   -2.406223    0.878987
     51          6           0        6.432958   -2.670525   -0.007341
     52          6           0        7.552466   -1.857718    0.559033
     53          6           0        8.950764   -1.959966   -0.109124
     54          6           0        9.477000   -3.357853    0.081084
     55          6           0        9.980424   -0.886075    0.335350
     56          6           0       11.319312   -0.913400   -0.373472
     57          6           0       12.135940    0.349177    0.024947
     58          6           0       13.549685    0.500258   -0.604295
     59          6           0       14.407201   -0.748055   -0.477887
     60          6           0       14.233996    1.808452   -0.247161
     61          6           0       15.413418    2.079646   -1.021019
     62          6           0       15.981348    3.429944   -0.643121
     63          6           0       17.404039    3.858871   -1.227401
     64          6           0       17.299121    3.948277   -2.803294
     65          6           0       17.938294    5.247603   -0.733409
     66          1           0       -2.856086    1.109361    3.631407
     67          1           0       -6.024259    5.603271    0.623137
     68          1           0       -8.587805    1.279870   -3.345281
     69          1           0       -3.782938   -3.303009    1.963449
     70          1           0       -1.844926   -1.137201    2.702991
     71          1           0       -3.223581   -2.876965    4.248449
     72          1           0       -3.499263   -1.080917    4.843842
     73          1           0       -4.761767   -2.105450    3.807708
     74          1           0       -2.269802   -3.158124   -0.275350
     75          1           0       -1.487975   -1.564314    0.453263
     76          1           0       -0.916450   -2.722142    2.395672
     77          1           0       -1.335580   -4.463040    1.749356
     78          1           0       -1.600650    3.545198    4.128290
     79          1           0       -2.633606    4.841659    4.668788
     80          1           0       -3.104616    3.055077    5.105083
     81          1           0       -5.356480    6.516603    2.391308
     82          1           0       -9.958431    2.911806   -3.121113
     83          1           0      -10.018954    4.908177   -2.924779
     84          1           0       -9.802291    4.264420   -5.361320
     85          1           0       -8.178338    4.758930   -4.564365
     86          1           0       -8.451480    3.095419   -4.889891
     87          1           0       -8.339491   -0.971501   -4.775833
     88          1           0       -8.629906   -2.678255   -4.161056
     89          1           0       -9.435407   -1.441171   -3.480126
     90          1           0       -4.193669   -3.806722   -1.454215
     91          1           0        2.481779   -5.922935    0.998012
     92          1           0        2.339669   -5.130198   -0.264539
     93          1           0        3.475343   -4.048153    2.210044
     94          1           0        2.676769   -3.476032   -1.284102
     95          1           0        3.988731   -2.174215   -1.668371
     96          1           0        4.493689   -3.967924   -1.705572
     97          1           0        4.694664   -1.510538    0.850639
     98          1           0        5.327458   -2.753365    1.912409
     99          1           0        6.687236   -3.712725   -0.164873
    100          1           0        6.262639   -2.370256   -1.076470
    101          1           0        7.189589   -0.837079    0.544317
    102          1           0        7.710151   -2.189758    1.710733
    103          1           0        8.708970   -1.617234   -1.103341
    104          1           0        8.924292   -4.249700   -0.263824
    105          1           0       10.449605   -3.300449   -0.441021
    106          1           0        9.763460   -3.483820    1.070118
    107          1           0        9.590776    0.160557    0.185978
    108          1           0       10.114877   -0.705179    1.421477
    109          1           0       11.782491   -1.709442   -0.202277
    110          1           0       11.158831   -0.897736   -1.537217
    111          1           0       11.624352    1.450576   -0.107594
    112          1           0       12.288494    0.278461    1.083822
    113          1           0       13.470417    0.818558   -1.669020
    114          1           0       14.625792   -1.023834    0.526014
    115          1           0       13.952785   -1.655468   -1.117885
    116          1           0       15.402820   -0.464050   -0.853920
    117          1           0       13.362177    2.525417   -0.388877
    118          1           0       14.569188    1.740477    0.820598
    119          1           0       16.067399    1.226889   -0.716542
    120          1           0       15.214955    2.088400   -2.062037
    121          1           0       15.420985    4.351706   -0.973295
    122          1           0       16.003109    3.717521    0.384592
    123          1           0       18.144019    3.100916   -1.096878
    124          1           0       16.374573    4.704401   -3.132196
    125          1           0       18.236347    4.113607   -3.418048
    126          1           0       17.113223    3.121441   -3.228662
    127          1           0       18.025429    5.254730    0.423987
    128          1           0       18.947747    5.168280   -1.322281
    129          1           0       17.444956    6.133870   -1.468102
    130          1           0       -5.324564   -7.946341   -0.470251
    131          1           0       -6.409092   -6.800803    0.408906
    132          1           0       -4.721822   -6.848965    1.271245
    133          8           0       -7.823716    6.857730   -0.385154
    134          1           0       -8.929471    6.299686   -1.881640
 ---------------------------------------------------------------------

 SCF Done:  E(RCAM-B3LYP) =  -3043.43474179     A.U. after   16 cycles

 Excitation energies and oscillator strengths:

 Excited State   1:      Singlet-A      1.9045 eV  651.01 nm  f=0.1986  <S**2>=0.000
     243 -> 246       -0.23560
     244 -> 245        0.65737
 This state for optimization and/or second-order correction.
 Total Energy, E(TD-HF/TD-KS) =  -3043.36475261
 Copying the excited state density for this state as the 1-particle RhoCI density.

 The electronic state is 1-A.
 Alpha  occ. eigenvalues --  -46.81369 -19.23794 -19.22556 -19.18849 -19.17209
 Alpha  occ. eigenvalues --  -19.17009 -19.16597 -19.16366 -14.39174 -14.37691
 Alpha  occ. eigenvalues --  -14.37109 -14.36623 -10.35827 -10.35222 -10.31305
 Alpha  occ. eigenvalues --  -10.29307 -10.29252 -10.29211 -10.27994 -10.27630
 Alpha  occ. eigenvalues --  -10.26959 -10.26698 -10.26662 -10.26322 -10.26288
 Alpha  occ. eigenvalues --  -10.25639 -10.25614 -10.25582 -10.25291 -10.24961
 Alpha  occ. eigenvalues --  -10.24716 -10.24626 -10.24500 -10.24378 -10.24370
 Alpha  occ. eigenvalues --  -10.24196 -10.23972 -10.23931 -10.23803 -10.23123
 Alpha  occ. eigenvalues --  -10.23099 -10.23090 -10.23060 -10.22943 -10.22880
 Alpha  occ. eigenvalues --  -10.22732 -10.22408 -10.22375 -10.22190 -10.21941
 Alpha  occ. eigenvalues --  -10.21930 -10.21864 -10.21742 -10.21655 -10.21215
 Alpha  occ. eigenvalues --  -10.21068 -10.21047 -10.20978 -10.20934 -10.20601
 Alpha  occ. eigenvalues --  -10.20510 -10.20451 -10.20360 -10.20353 -10.20067
 Alpha  occ. eigenvalues --  -10.19927  -3.10049  -1.84972  -1.84546  -1.84455
 Alpha  occ. eigenvalues --   -1.15264  -1.11696  -1.06921  -1.05028  -1.04291
 Alpha  occ. eigenvalues --   -1.04098  -1.03312  -1.00756  -0.99786  -0.98831
 Alpha  occ. eigenvalues --   -0.96479  -0.89088  -0.87944  -0.86657  -0.86476
 Alpha  occ. eigenvalues --   -0.85877  -0.84958  -0.84288  -0.83878  -0.83078
 Alpha  occ. eigenvalues --   -0.82666  -0.82570  -0.82010  -0.80750  -0.80207
 Alpha  occ. eigenvalues --   -0.80017  -0.78777  -0.77793  -0.77123  -0.76489
 Alpha  occ. eigenvalues --   -0.75815  -0.75073  -0.74106  -0.72535  -0.71749
 Alpha  occ. eigenvalues --   -0.71505  -0.70778  -0.70521  -0.70485  -0.69879
 Alpha  occ. eigenvalues --   -0.69451  -0.68939  -0.67890  -0.67276  -0.66704
 Alpha  occ. eigenvalues --   -0.66472  -0.65143  -0.64342  -0.63218  -0.61492
 Alpha  occ. eigenvalues --   -0.61352  -0.61238  -0.60317  -0.59682  -0.59236
 Alpha  occ. eigenvalues --   -0.58806  -0.58549  -0.57757  -0.57550  -0.56620
 Alpha  occ. eigenvalues --   -0.56270  -0.56028  -0.55631  -0.55374  -0.54228
 Alpha  occ. eigenvalues --   -0.54048  -0.53371  -0.52996  -0.52613  -0.52387
 Alpha  occ. eigenvalues --   -0.51443  -0.51395  -0.51201  -0.51110  -0.50729
 Alpha  occ. eigenvalues --   -0.50472  -0.50192  -0.49684  -0.49284  -0.48961
 Alpha  occ. eigenvalues --   -0.48742  -0.48640  -0.48133  -0.48100  -0.47966
 Alpha  occ. eigenvalues --   -0.47883  -0.47683  -0.47592  -0.47305  -0.46884
 Alpha  occ. eigenvalues --   -0.46781  -0.46190  -0.46041  -0.45857  -0.45727
 Alpha  occ. eigenvalues --   -0.45659  -0.45194  -0.45178  -0.44711  -0.44556
 Alpha  occ. eigenvalues --   -0.44463  -0.44172  -0.44096  -0.43917  -0.43674
 Alpha  occ. eigenvalues --   -0.43553  -0.43294  -0.43068  -0.42696  -0.42609
 Alpha  occ. eigenvalues --   -0.42313  -0.42096  -0.41801  -0.41715  -0.41390
 Alpha  occ. eigenvalues --   -0.41270  -0.41162  -0.40967  -0.40839  -0.40765
 Alpha  occ. eigenvalues --   -0.40551  -0.40330  -0.40242  -0.40038  -0.39976
 Alpha  occ. eigenvalues --   -0.39767  -0.39662  -0.39530  -0.39378  -0.39243
 Alpha  occ. eigenvalues --   -0.38991  -0.38821  -0.38559  -0.38318  -0.38149
 Alpha  occ. eigenvalues --   -0.38025  -0.37936  -0.37800  -0.37446  -0.37330
 Alpha  occ. eigenvalues --   -0.36964  -0.36715  -0.36499  -0.36191  -0.35726
 Alpha  occ. eigenvalues --   -0.35661  -0.35269  -0.34914  -0.34803  -0.34597
 Alpha  occ. eigenvalues --   -0.34474  -0.34161  -0.33995  -0.33832  -0.33607
 Alpha  occ. eigenvalues --   -0.33412  -0.33146  -0.32705  -0.32154  -0.31851
 Alpha  occ. eigenvalues --   -0.31806  -0.30953  -0.30787  -0.30439  -0.29716
 Alpha  occ. eigenvalues --   -0.29532  -0.28334  -0.28127  -0.28003  -0.27118
 Alpha  occ. eigenvalues --   -0.26775  -0.26638  -0.22655  -0.20890
 Alpha virt. eigenvalues --   -0.08505  -0.06149  -0.01966  -0.01456   0.00417
 Alpha virt. eigenvalues --    0.01840   0.02602   0.03453   0.03820   0.04232
 Alpha virt. eigenvalues --    0.04441   0.05894   0.07441   0.08059   0.09146

 Mulliken charges:
               1
     1  Mg   0.824392
     2  C    0.044334
     3  C   -0.175619
     4  C   -0.211209
     5  C   -0.195104
     6  N   -0.597977
     7  C    0.240224
     8  C   -0.118912
     9  C   -0.165286
    10  C    0.329319
    11  C   -0.305076
    12  C   -0.170849
    13  C   -0.259248
    14  C    0.620105
    15  O   -0.473931
    16  O   -0.433081
    17  N   -0.697743
    18  C    0.300735
    19  C    0.074946
    20  C    0.028815
    21  C    0.303287
    22  C   -0.394033
    23  C    0.207270
    24  O   -0.422396
    25  N   -0.661698
    26  C    0.294906
    27  C   -0.012777
    28  C    0.042152
    29  C    0.284188
    30  C    0.275588
    31  C   -0.232880
    32  C   -0.297619
    33  N   -0.723632
    34  C    0.274155
    35  C    0.020373
    36  C    0.007960
    37  C    0.351721
    38  C   -0.388933
    39  C    0.355180
    40  O   -0.486983
    41  C   -0.323997
    42  C    0.635855
    43  O   -0.472570
    44  O   -0.468410
    45  C   -0.087900
    46  C    0.005186
    47  C   -0.155480
    48  C    0.162360
    49  C   -0.394402
    50  C   -0.208429
    51  C   -0.190010
    52  C   -0.154044
    53  C   -0.052079
    54  C   -0.318647
    55  C   -0.196667
    56  C   -0.152288
    57  C   -0.175444
    58  C   -0.049871
    59  C   -0.319706
    60  C   -0.172431
    61  C   -0.155389
    62  C   -0.170868
    63  C   -0.067746
    64  C   -0.307126
    65  C   -0.296363
    66  H    0.051571
    67  H    0.126008
    68  H    0.081542
    69  H    0.148678
    70  H    0.097442
    71  H    0.118084
    72  H    0.104543
    73  H    0.138555
    74  H    0.114451
    75  H    0.093365
    76  H    0.114117
    77  H    0.130829
    78  H    0.124528
    79  H    0.165734
    80  H    0.123854
    81  H    0.038671
    82  H    0.112186
    83  H    0.107136
    84  H    0.110126
    85  H    0.116996
    86  H    0.107978
    87  H    0.132555
    88  H    0.145473
    89  H    0.137810
    90  H    0.185753
    91  H    0.111411
    92  H    0.120486
    93  H    0.074364
    94  H    0.146404
    95  H    0.094132
    96  H    0.094507
    97  H    0.128794
    98  H    0.105407
    99  H    0.103966
   100  H    0.097746
   101  H    0.087821
   102  H    0.055300
   103  H    0.087065
   104  H    0.102981
   105  H    0.096736
   106  H    0.116790
   107  H    0.084905
   108  H    0.083927
   109  H    0.112178
   110  H    0.073119
   111  H    0.061518
   112  H    0.094935
   113  H    0.074843
   114  H    0.108058
   115  H    0.090688
   116  H    0.096894
   117  H    0.080888
   118  H    0.076589
   119  H    0.094027
   120  H    0.101306
   121  H    0.084032
   122  H    0.087353
   123  H    0.090619
   124  H    0.068035
   125  H    0.083214
   126  H    0.115415
   127  H    0.102222
   128  H    0.097636
   129  H    0.089486
   130  H    0.127368
   131  H    0.156599
   132  H    0.122330
   133  O   -0.444446
   134  H    0.066164
 Sum of Mulliken charges =   0.00000

 Dipole moment (field-independent basis, Debye):
    X=              2.3173    Y=             -5.8637    Z=             -1.3377  Tot=              6.4453
 Quadrupole moment (field-independent basis, Debye-Ang):
   XX=           -360.7301   YY=           -442.1474   ZZ=           -394.5867
   XY=              1.1730   XZ=             25.7010   YZ=            -40.7942

 Normal termination of Gaussian 09 at Thu Oct  3 20:15:00 2019.
