 Gaussian 09, Revision D.01,
 Gaussian 09:  ES64L-G09RevD.01 24-Apr-2013

 ----------------------------------------------------------------------
 # td=(NStates=1) iop(3/107=0140000000,3/108=0140000000) iop(3/107=0140
 000000,3/108=0140000000) CAM-B3LYP/6-31G(d,p)
 ----------------------------------------------------------------------

 --
 TD
 --
 Symbolic Z-matrix:
 Charge =  0 Multiplicity = 1

                         Standard orientation:
 ---------------------------------------------------------------------
 Center     Atomic      Atomic             Coordinates (Angstroms)
 Number     Number       Type             X           Y           Z
 ---------------------------------------------------------------------
      1         12           0       -5.583023    1.127877    0.189081
      2          6           0       -5.010413   -2.129634   -0.326335
      3          6           0       -3.322704    1.252250    2.829856
      4          6           0       -6.201910    4.581960    0.612021
      5          6           0       -8.095438    1.028958   -2.222288
      6          7           0       -4.379082   -0.228751    1.007386
      7          6           0       -4.195419   -1.626348    0.647591
      8          6           0       -3.177040   -2.356137    1.484012
      9          6           0       -2.816068   -1.245675    2.629529
     10          6           0       -3.604464   -0.007267    2.134194
     11          6           0       -3.440049   -1.652125    3.967113
     12          6           0       -1.916781   -2.612882    0.690164
     13          6           0       -0.852781   -3.515985    1.520764
     14          6           0        0.237109   -3.907253    0.591259
     15          8           0        0.535236   -3.243417   -0.474050
     16          8           0        1.076684   -4.765369    1.244864
     17          7           0       -4.849641    2.697329    1.425324
     18          6           0       -4.005941    2.452612    2.499846
     19          6           0       -3.762608    3.676056    3.172120
     20          6           0       -4.503450    4.690328    2.503608
     21          6           0       -5.343782    3.961969    1.454293
     22          6           0       -2.978594    3.865699    4.445104
     23          6           0       -4.698533    6.107786    2.804505
     24          8           0       -4.178432    6.716794    3.777443
     25          7           0       -6.992487    2.607116   -0.691942
     26          6           0       -6.997809    3.900520   -0.376053
     27          6           0       -7.884508    4.623158   -1.300230
     28          6           0       -8.461858    3.583367   -2.089961
     29          6           0       -7.829924    2.311639   -1.663023
     30          6           0       -8.335942    5.999499   -1.329749
     31          6           0       -9.436553    3.729376   -3.201124
     32          6           0       -8.896661    3.877382   -4.612551
     33          7           0       -6.397195   -0.139936   -1.053618
     34          6           0       -7.486606   -0.087387   -1.957595
     35          6           0       -7.591429   -1.394443   -2.635520
     36          6           0       -6.723999   -2.299979   -2.039396
     37          6           0       -5.964868   -1.433870   -1.151945
     38          6           0       -8.522694   -1.684014   -3.785438
     39          6           0       -6.164624   -3.572716   -2.059082
     40          8           0       -6.556943   -4.518503   -2.688548
     41          6           0       -5.026868   -3.482273   -0.908642
     42          6           0       -5.319310   -4.583698    0.226092
     43          8           0       -5.698529   -4.465685    1.389798
     44          8           0       -5.035905   -5.875384   -0.360671
     45          6           0       -5.393217   -6.986142    0.549026
     46          6           0        2.331663   -5.101705    0.632468
     47          6           0        3.387316   -4.212915    0.985426
     48          6           0        4.096031   -3.327757    0.173690
     49          6           0        3.913317   -3.299693   -1.267005
     50          6           0        5.347241   -2.469187    0.771478
     51          6           0        6.634658   -2.760920    0.081139
     52          6           0        7.794504   -1.805704    0.602591
     53          6           0        9.073089   -2.076442   -0.082447
     54          6           0        9.520669   -3.428813    0.032746
     55          6           0       10.068286   -1.005391    0.377075
     56          6           0       11.495373   -0.945246   -0.166426
     57          6           0       12.256644    0.272369    0.281290
     58          6           0       13.537330    0.582159   -0.559786
     59          6           0       14.428310   -0.696236   -0.484867
     60          6           0       14.246110    1.812142   -0.237467
     61          6           0       15.403878    2.217474   -1.021891
     62          6           0       16.008909    3.630258   -0.582588
     63          6           0       17.291743    4.005760   -1.401215
     64          6           0       17.053609    4.219318   -2.921711
     65          6           0       18.027929    5.143142   -0.708790
     66          1           0       -2.512333    1.359964    3.581303
     67          1           0       -6.360422    5.643467    0.668662
     68          1           0       -8.835587    1.054240   -2.764343
     69          1           0       -3.768047   -3.196292    1.827080
     70          1           0       -1.755198   -1.220970    2.657319
     71          1           0       -2.951853   -2.667571    4.422594
     72          1           0       -3.420704   -0.605444    4.637306
     73          1           0       -4.487923   -1.990324    3.794939
     74          1           0       -2.370393   -3.222210   -0.450093
     75          1           0       -1.368308   -1.753997    0.194777
     76          1           0       -0.435568   -2.782506    2.323813
     77          1           0       -1.472831   -4.365738    1.786542
     78          1           0       -1.998285    3.467564    4.338149
     79          1           0       -2.980513    4.841771    4.825356
     80          1           0       -3.418522    3.217818    5.203677
     81          1           0       -5.336440    6.502880    2.029678
     82          1           0      -10.092580    3.013039   -3.144396
     83          1           0      -10.154638    4.496163   -3.022361
     84          1           0       -9.696909    4.212393   -5.435418
     85          1           0       -8.368691    4.775476   -4.749453
     86          1           0       -8.245652    3.008033   -4.981389
     87          1           0       -8.409442   -1.104763   -4.679564
     88          1           0       -8.277965   -2.706487   -3.944894
     89          1           0       -9.567343   -1.668750   -3.497028
     90          1           0       -4.231898   -4.029879   -1.309754
     91          1           0        2.546351   -6.131734    0.913005
     92          1           0        2.254548   -5.116836   -0.345051
     93          1           0        3.663417   -4.281961    1.963878
     94          1           0        2.761105   -3.646219   -1.414580
     95          1           0        3.918526   -2.382539   -1.750643
     96          1           0        4.683262   -3.673376   -1.968838
     97          1           0        4.952466   -1.327812    0.577926
     98          1           0        5.451048   -2.725098    1.700489
     99          1           0        6.852191   -3.838984    0.230270
    100          1           0        6.328842   -2.576596   -1.015847
    101          1           0        7.491630   -0.756569    0.627117
    102          1           0        7.827818   -1.991070    1.768518
    103          1           0        8.886567   -2.065074   -1.197625
    104          1           0        9.021710   -4.364746   -0.540984
    105          1           0       10.584425   -3.797477   -0.399392
    106          1           0        9.579546   -3.717573    1.127697
    107          1           0        9.774483    0.002972    0.248365
    108          1           0       10.177533   -1.233474    1.320675
    109          1           0       11.944724   -1.920169   -0.129977
    110          1           0       11.424754   -0.870589   -1.284831
    111          1           0       11.694394    1.205731    0.033708
    112          1           0       12.522603    0.350969    1.324059
    113          1           0       12.889297    0.904527   -1.472053
    114          1           0       14.435974   -1.128209    0.659536
    115          1           0       14.037579   -1.528226   -1.121975
    116          1           0       15.509165   -0.552269   -0.801191
    117          1           0       13.410129    2.547938   -0.038411
    118          1           0       14.609396    1.504478    0.805286
    119          1           0       16.285006    1.650205   -1.030007
    120          1           0       15.129413    2.310182   -2.050478
    121          1           0       15.246152    4.555947   -0.716680
    122          1           0       16.320979    3.469385    0.436254
    123          1           0       17.970181    3.332822   -1.169543
    124          1           0       16.304681    5.183192   -3.117340
    125          1           0       18.067405    4.578868   -3.511632
    126          1           0       16.720550    3.339017   -3.412654
    127          1           0       18.288175    4.924268    0.374639
    128          1           0       18.949798    5.562317   -1.208651
    129          1           0       17.267721    6.177023   -0.817971
    130          1           0       -5.588870   -8.073384   -0.081861
    131          1           0       -6.372905   -6.806462    0.809279
    132          1           0       -4.960619   -6.888414    1.273909
    133          8           0       -8.019699    6.927608   -0.453858
    134          1           0       -9.142519    6.319911   -2.102978
 ---------------------------------------------------------------------

 SCF Done:  E(RCAM-B3LYP) =  -3043.32383074     A.U. after   16 cycles

 Excitation energies and oscillator strengths:

 Excited State   1:      Singlet-A      2.0480 eV  605.40 nm  f=0.1593  <S**2>=0.000
     243 -> 246        0.24584
     244 -> 245        0.64319
     244 -> 246        0.10690
 This state for optimization and/or second-order correction.
 Total Energy, E(TD-HF/TD-KS) =  -3043.24856933
 Copying the excited state density for this state as the 1-particle RhoCI density.

 The electronic state is 1-A.
 Alpha  occ. eigenvalues --  -46.81882 -19.23200 -19.22170 -19.19563 -19.18133
 Alpha  occ. eigenvalues --  -19.17770 -19.16568 -19.16222 -14.40093 -14.37689
 Alpha  occ. eigenvalues --  -14.37011 -14.36992 -10.36801 -10.36244 -10.32068
 Alpha  occ. eigenvalues --  -10.30817 -10.29674 -10.29585 -10.28609 -10.27561
 Alpha  occ. eigenvalues --  -10.27070 -10.26858 -10.26555 -10.26278 -10.26204
 Alpha  occ. eigenvalues --  -10.26142 -10.26102 -10.25949 -10.25926 -10.25833
 Alpha  occ. eigenvalues --  -10.25730 -10.25047 -10.24935 -10.24797 -10.24773
 Alpha  occ. eigenvalues --  -10.24435 -10.24424 -10.24366 -10.24233 -10.23515
 Alpha  occ. eigenvalues --  -10.23158 -10.23104 -10.23020 -10.23017 -10.22830
 Alpha  occ. eigenvalues --  -10.22715 -10.22415 -10.22387 -10.22218 -10.22192
 Alpha  occ. eigenvalues --  -10.22108 -10.22034 -10.21871 -10.21847 -10.21778
 Alpha  occ. eigenvalues --  -10.21752 -10.21702 -10.20999 -10.20969 -10.20915
 Alpha  occ. eigenvalues --  -10.20802 -10.20644 -10.20616 -10.20400 -10.20173
 Alpha  occ. eigenvalues --  -10.19096  -3.10520  -1.85452  -1.84991  -1.84942
 Alpha  occ. eigenvalues --   -1.12496  -1.11341  -1.08796  -1.04066  -1.03584
 Alpha  occ. eigenvalues --   -1.02474  -1.01486  -1.00703  -0.99951  -0.99099
 Alpha  occ. eigenvalues --   -0.97999  -0.89907  -0.87177  -0.86153  -0.85975
 Alpha  occ. eigenvalues --   -0.85815  -0.85244  -0.84930  -0.84561  -0.84394
 Alpha  occ. eigenvalues --   -0.83465  -0.82346  -0.82231  -0.81325  -0.80372
 Alpha  occ. eigenvalues --   -0.79473  -0.79171  -0.78222  -0.77679  -0.77086
 Alpha  occ. eigenvalues --   -0.75908  -0.75587  -0.74825  -0.73807  -0.72911
 Alpha  occ. eigenvalues --   -0.71356  -0.70677  -0.70354  -0.69893  -0.69787
 Alpha  occ. eigenvalues --   -0.69697  -0.69294  -0.68091  -0.67349  -0.66736
 Alpha  occ. eigenvalues --   -0.66045  -0.65174  -0.64763  -0.63252  -0.62942
 Alpha  occ. eigenvalues --   -0.62316  -0.61992  -0.60961  -0.60194  -0.59422
 Alpha  occ. eigenvalues --   -0.59265  -0.58579  -0.58039  -0.57921  -0.57126
 Alpha  occ. eigenvalues --   -0.57042  -0.56989  -0.56422  -0.55218  -0.54331
 Alpha  occ. eigenvalues --   -0.54055  -0.53657  -0.53051  -0.52840  -0.52376
 Alpha  occ. eigenvalues --   -0.52194  -0.52164  -0.51627  -0.51287  -0.51122
 Alpha  occ. eigenvalues --   -0.50677  -0.50396  -0.50156  -0.49860  -0.49600
 Alpha  occ. eigenvalues --   -0.49519  -0.49393  -0.48547  -0.48384  -0.48107
 Alpha  occ. eigenvalues --   -0.47851  -0.47489  -0.47309  -0.47187  -0.47005
 Alpha  occ. eigenvalues --   -0.46943  -0.46646  -0.46482  -0.46333  -0.45980
 Alpha  occ. eigenvalues --   -0.45633  -0.45578  -0.45375  -0.45218  -0.45020
 Alpha  occ. eigenvalues --   -0.44808  -0.44620  -0.44271  -0.44179  -0.44166
 Alpha  occ. eigenvalues --   -0.43945  -0.43804  -0.43361  -0.43287  -0.42907
 Alpha  occ. eigenvalues --   -0.42876  -0.42769  -0.42575  -0.42444  -0.42095
 Alpha  occ. eigenvalues --   -0.41783  -0.41588  -0.41478  -0.41046  -0.40826
 Alpha  occ. eigenvalues --   -0.40633  -0.40563  -0.40288  -0.40183  -0.39869
 Alpha  occ. eigenvalues --   -0.39433  -0.39396  -0.39341  -0.39167  -0.39125
 Alpha  occ. eigenvalues --   -0.38905  -0.38565  -0.38488  -0.38478  -0.38237
 Alpha  occ. eigenvalues --   -0.38050  -0.37763  -0.37521  -0.37260  -0.37059
 Alpha  occ. eigenvalues --   -0.36914  -0.36623  -0.36496  -0.36244  -0.35888
 Alpha  occ. eigenvalues --   -0.35782  -0.35282  -0.35268  -0.35170  -0.34450
 Alpha  occ. eigenvalues --   -0.34368  -0.33851  -0.33483  -0.33412  -0.33074
 Alpha  occ. eigenvalues --   -0.32635  -0.32470  -0.32426  -0.32371  -0.31819
 Alpha  occ. eigenvalues --   -0.31410  -0.31198  -0.30696  -0.30188  -0.30139
 Alpha  occ. eigenvalues --   -0.29440  -0.28941  -0.27912  -0.27489  -0.27155
 Alpha  occ. eigenvalues --   -0.26979  -0.26858  -0.23995  -0.21972
 Alpha virt. eigenvalues --   -0.08759  -0.07375  -0.02872  -0.01524  -0.00407
 Alpha virt. eigenvalues --    0.00308   0.01585   0.02721   0.03403   0.03761
 Alpha virt. eigenvalues --    0.04243   0.05240   0.07534   0.08044   0.08475

 Mulliken charges:
               1
     1  Mg   0.843299
     2  C    0.123048
     3  C   -0.194709
     4  C   -0.149759
     5  C   -0.087822
     6  N   -0.646401
     7  C    0.276580
     8  C   -0.143528
     9  C   -0.135279
    10  C    0.332684
    11  C   -0.291807
    12  C   -0.173918
    13  C   -0.258449
    14  C    0.606123
    15  O   -0.485100
    16  O   -0.455802
    17  N   -0.698995
    18  C    0.338846
    19  C    0.017891
    20  C   -0.045627
    21  C    0.318792
    22  C   -0.381828
    23  C    0.260223
    24  O   -0.451202
    25  N   -0.677140
    26  C    0.279285
    27  C    0.006599
    28  C   -0.015737
    29  C    0.289390
    30  C    0.201815
    31  C   -0.236449
    32  C   -0.311607
    33  N   -0.738498
    34  C    0.321658
    35  C   -0.008861
    36  C    0.099142
    37  C    0.230396
    38  C   -0.390618
    39  C    0.351059
    40  O   -0.437453
    41  C   -0.352948
    42  C    0.593324
    43  O   -0.461839
    44  O   -0.488128
    45  C   -0.034830
    46  C    0.014963
    47  C   -0.126506
    48  C    0.128062
    49  C   -0.405433
    50  C   -0.198424
    51  C   -0.173070
    52  C   -0.163706
    53  C   -0.040102
    54  C   -0.308996
    55  C   -0.158931
    56  C   -0.188650
    57  C   -0.181719
    58  C   -0.051386
    59  C   -0.312819
    60  C   -0.145870
    61  C   -0.174660
    62  C   -0.167282
    63  C   -0.039708
    64  C   -0.295781
    65  C   -0.297716
    66  H    0.103591
    67  H    0.141786
    68  H    0.043488
    69  H    0.138136
    70  H    0.110067
    71  H    0.093716
    72  H    0.092184
    73  H    0.132929
    74  H    0.048488
    75  H    0.143240
    76  H    0.149399
    77  H    0.144892
    78  H    0.120219
    79  H    0.163282
    80  H    0.126047
    81  H    0.089174
    82  H    0.119447
    83  H    0.110486
    84  H    0.088273
    85  H    0.128404
    86  H    0.104314
    87  H    0.136635
    88  H    0.151757
    89  H    0.135147
    90  H    0.166140
    91  H    0.114806
    92  H    0.117772
    93  H    0.076325
    94  H    0.129615
    95  H    0.123346
    96  H    0.120221
    97  H    0.081146
    98  H    0.099654
    99  H    0.106860
   100  H    0.080210
   101  H    0.101208
   102  H    0.069682
   103  H    0.082373
   104  H    0.092812
   105  H    0.083109
   106  H    0.088862
   107  H    0.092777
   108  H    0.103591
   109  H    0.098286
   110  H    0.079804
   111  H    0.078197
   112  H    0.087936
   113  H    0.068004
   114  H    0.083199
   115  H    0.109841
   116  H    0.094242
   117  H    0.080983
   118  H    0.066080
   119  H    0.102304
   120  H    0.095348
   121  H    0.070508
   122  H    0.094706
   123  H    0.103164
   124  H    0.081581
   125  H    0.077413
   126  H    0.118253
   127  H    0.097741
   128  H    0.100060
   129  H    0.047207
   130  H    0.109606
   131  H    0.133486
   132  H    0.110838
   133  O   -0.462843
   134  H    0.080363
 Sum of Mulliken charges =   0.00000

 Dipole moment (field-independent basis, Debye):
    X=              2.5926    Y=             -7.5655    Z=             -1.5179  Tot=              8.1402
 Quadrupole moment (field-independent basis, Debye-Ang):
   XX=           -366.9026   YY=           -456.8868   ZZ=           -395.4533
   XY=             16.3793   XZ=             26.8300   YZ=            -38.1944

 Normal termination of Gaussian 09 at Thu Oct  3 19:51:51 2019.
