 Gaussian 09, Revision D.01,
 Gaussian 09:  ES64L-G09RevD.01 24-Apr-2013

 ----------------------------------------------------------------------
 # td=(NStates=1) iop(3/107=0140000000,3/108=0140000000) iop(3/107=0140
 000000,3/108=0140000000) CAM-B3LYP/6-31G(d,p)
 ----------------------------------------------------------------------

 --
 TD
 --
 Symbolic Z-matrix:
 Charge =  0 Multiplicity = 1

                         Standard orientation:
 ---------------------------------------------------------------------
 Center     Atomic      Atomic             Coordinates (Angstroms)
 Number     Number       Type             X           Y           Z
 ---------------------------------------------------------------------
      1         12           0       -5.667856    1.249493    0.169035
      2          6           0       -5.098602   -2.100477   -0.307351
      3          6           0       -3.433454    1.164775    2.855627
      4          6           0       -6.092383    4.646780    0.567975
      5          6           0       -8.031205    1.060151   -2.387168
      6          7           0       -4.497793   -0.312027    1.164181
      7          6           0       -4.221957   -1.509019    0.698106
      8          6           0       -3.166608   -2.317228    1.417467
      9          6           0       -2.927810   -1.357339    2.646991
     10          6           0       -3.686782   -0.088888    2.148314
     11          6           0       -3.224077   -1.933156    4.070440
     12          6           0       -1.917405   -2.666728    0.584584
     13          6           0       -0.965542   -3.577106    1.394779
     14          6           0        0.343936   -3.894337    0.588964
     15          8           0        0.585649   -3.568658   -0.598696
     16          8           0        1.071482   -4.698240    1.302017
     17          7           0       -4.902251    2.673303    1.489802
     18          6           0       -4.088673    2.305943    2.539681
     19          6           0       -3.726074    3.626179    3.241020
     20          6           0       -4.384139    4.661476    2.494505
     21          6           0       -5.243786    4.010184    1.551472
     22          6           0       -2.751282    3.746763    4.298670
     23          6           0       -4.425805    6.152544    2.799257
     24          8           0       -3.869379    6.650401    3.780649
     25          7           0       -6.867173    2.651533   -0.751393
     26          6           0       -6.917028    3.982809   -0.362360
     27          6           0       -7.810035    4.644225   -1.208633
     28          6           0       -8.426136    3.693465   -2.091835
     29          6           0       -7.730114    2.408796   -1.709245
     30          6           0       -8.205359    5.989545   -1.161945
     31          6           0       -9.507384    3.797081   -3.096350
     32          6           0       -8.890787    4.078492   -4.471270
     33          7           0       -6.357085   -0.112286   -1.108040
     34          6           0       -7.329495   -0.070313   -2.041578
     35          6           0       -7.618677   -1.380095   -2.738749
     36          6           0       -6.715318   -2.142498   -2.053177
     37          6           0       -5.989866   -1.413801   -1.039039
     38          6           0       -8.414917   -1.671022   -3.825124
     39          6           0       -6.261972   -3.557668   -2.030531
     40          8           0       -6.678971   -4.589473   -2.623173
     41          6           0       -5.154382   -3.535981   -0.921015
     42          6           0       -5.230126   -4.718946    0.146214
     43          8           0       -5.761022   -4.539270    1.234703
     44          8           0       -4.733246   -5.857145   -0.333600
     45          6           0       -5.197136   -6.969845    0.599161
     46          6           0        2.234569   -5.126970    0.625067
     47          6           0        3.393676   -4.133372    0.938512
     48          6           0        3.975794   -3.263346    0.123223
     49          6           0        3.691862   -3.076059   -1.288872
     50          6           0        5.032165   -2.317575    0.725990
     51          6           0        6.446096   -2.549226    0.030386
     52          6           0        7.494827   -1.633036    0.502337
     53          6           0        8.914781   -1.981100   -0.142708
     54          6           0        9.481821   -3.279174    0.330339
     55          6           0        9.909970   -0.845939    0.277688
     56          6           0       11.343268   -0.883289   -0.343116
     57          6           0       12.115987    0.378205    0.110038
     58          6           0       13.479527    0.478217   -0.659389
     59          6           0       14.358693   -0.717729   -0.272065
     60          6           0       14.096809    1.790806   -0.281562
     61          6           0       15.351384    2.096489   -0.986962
     62          6           0       16.057638    3.330228   -0.643445
     63          6           0       17.412859    3.814816   -1.286236
     64          6           0       17.211925    4.028001   -2.864552
     65          6           0       17.944443    5.085296   -0.666809
     66          1           0       -2.722366    1.108001    3.526430
     67          1           0       -6.208948    5.827512    0.707482
     68          1           0       -8.747177    0.877808   -3.047678
     69          1           0       -3.764711   -3.368988    1.601813
     70          1           0       -1.857037   -1.399094    2.632371
     71          1           0       -2.814241   -2.747709    4.467522
     72          1           0       -2.779531   -1.182969    4.888068
     73          1           0       -4.384445   -1.923290    4.144277
     74          1           0       -2.205883   -3.372256   -0.344283
     75          1           0       -1.546297   -1.896140    0.058270
     76          1           0       -0.549073   -2.947879    2.280688
     77          1           0       -1.558026   -4.413303    1.790397
     78          1           0       -1.878854    3.527450    3.896335
     79          1           0       -2.855942    4.902225    4.725062
     80          1           0       -2.873975    3.081562    5.277828
     81          1           0       -5.317797    6.615433    2.271642
     82          1           0      -10.199855    2.989508   -3.155861
     83          1           0      -10.093200    4.434666   -2.747368
     84          1           0       -9.633309    4.052332   -5.079695
     85          1           0       -8.362979    5.062687   -4.540034
     86          1           0       -8.140071    3.342606   -4.604618
     87          1           0       -8.231030   -0.986251   -4.530469
     88          1           0       -8.369484   -2.716653   -4.176992
     89          1           0       -9.449307   -1.603338   -3.595453
     90          1           0       -4.213708   -3.826092   -1.319146
     91          1           0        2.571838   -5.994561    1.160897
     92          1           0        1.990014   -5.125967   -0.423024
     93          1           0        3.763979   -4.104346    1.916971
     94          1           0        2.615101   -3.471759   -1.456696
     95          1           0        3.781451   -2.033450   -1.643146
     96          1           0        4.433026   -3.785268   -2.006936
     97          1           0        4.790271   -1.184175    0.663939
     98          1           0        5.285684   -2.667574    1.724657
     99          1           0        6.925509   -3.607899    0.124444
    100          1           0        6.259051   -2.420640   -1.050858
    101          1           0        7.157599   -0.490341    0.207898
    102          1           0        7.434715   -1.801279    1.625767
    103          1           0        8.816351   -1.806174   -1.218904
    104          1           0        8.701315   -4.148326   -0.112743
    105          1           0       10.599445   -3.532204    0.259645
    106          1           0        9.289519   -3.421293    1.479381
    107          1           0        9.394802    0.014758    0.063521
    108          1           0       10.141048   -0.943160    1.376795
    109          1           0       11.899607   -1.678749   -0.075651
    110          1           0       11.248293   -0.876218   -1.464955
    111          1           0       11.406772    1.170785    0.146613
    112          1           0       12.167385    0.282985    1.129851
    113          1           0       13.213065    0.589268   -1.672395
    114          1           0       14.296079   -0.854383    0.959030
    115          1           0       14.202659   -1.707983   -0.737443
    116          1           0       15.426075   -0.572006   -0.620120
    117          1           0       13.401767    2.570712   -0.511560
    118          1           0       14.315059    1.838221    0.751790
    119          1           0       16.203556    1.289668   -0.971300
    120          1           0       15.155147    2.107218   -2.173452
    121          1           0       15.185157    3.962537   -0.714431
    122          1           0       16.166074    3.186335    0.258800
    123          1           0       17.972744    2.992612   -1.287377
    124          1           0       16.486058    4.879724   -3.041934
    125          1           0       18.036873    4.341146   -3.310308
    126          1           0       16.924383    3.171700   -3.486998
    127          1           0       18.092599    5.141701    0.458277
    128          1           0       19.020770    5.500256   -1.019296
    129          1           0       17.333975    5.976507   -1.076060
    130          1           0       -4.490091   -7.775230   -0.019558
    131          1           0       -6.247261   -7.083083    0.423785
    132          1           0       -4.783749   -6.834863    1.502627
    133          8           0       -7.782981    6.906318   -0.449014
    134          1           0       -9.140615    6.177899   -1.913813
 ---------------------------------------------------------------------

 SCF Done:  E(RCAM-B3LYP) =  -3043.38553176     A.U. after   16 cycles

 Excitation energies and oscillator strengths:

 Excited State   1:      Singlet-A      2.0543 eV  603.52 nm  f=0.1004  <S**2>=0.000
     243 -> 245        0.19425
     243 -> 246       -0.27873
     244 -> 245        0.54002
     244 -> 246        0.29055
 This state for optimization and/or second-order correction.
 Total Energy, E(TD-HF/TD-KS) =  -3043.31003621
 Copying the excited state density for this state as the 1-particle RhoCI density.

 The electronic state is 1-A.
 Alpha  occ. eigenvalues --  -46.82214 -19.24420 -19.24138 -19.18001 -19.17747
 Alpha  occ. eigenvalues --  -19.17691 -19.17390 -19.16267 -14.40100 -14.36797
 Alpha  occ. eigenvalues --  -14.36740 -14.36691 -10.36397 -10.35744 -10.32203
 Alpha  occ. eigenvalues --  -10.30811 -10.29714 -10.29047 -10.28511 -10.28196
 Alpha  occ. eigenvalues --  -10.27822 -10.26927 -10.26383 -10.26214 -10.26064
 Alpha  occ. eigenvalues --  -10.25739 -10.25694 -10.25508 -10.25350 -10.25295
 Alpha  occ. eigenvalues --  -10.25155 -10.24936 -10.24552 -10.24304 -10.24233
 Alpha  occ. eigenvalues --  -10.24024 -10.23813 -10.23533 -10.23318 -10.22936
 Alpha  occ. eigenvalues --  -10.22776 -10.22746 -10.22584 -10.22453 -10.22446
 Alpha  occ. eigenvalues --  -10.22320 -10.22254 -10.22100 -10.22043 -10.22000
 Alpha  occ. eigenvalues --  -10.21810 -10.21808 -10.21796 -10.21610 -10.21450
 Alpha  occ. eigenvalues --  -10.21198 -10.21041 -10.20782 -10.20752 -10.20170
 Alpha  occ. eigenvalues --  -10.19856 -10.19556 -10.19508 -10.19188 -10.19067
 Alpha  occ. eigenvalues --  -10.17702  -3.10713  -1.85657  -1.85193  -1.85102
 Alpha  occ. eigenvalues --   -1.16884  -1.14039  -1.05747  -1.05026  -1.04913
 Alpha  occ. eigenvalues --   -1.04883  -1.04512  -1.04017  -1.01081  -0.99631
 Alpha  occ. eigenvalues --   -0.97785  -0.88592  -0.86638  -0.86447  -0.86358
 Alpha  occ. eigenvalues --   -0.85836  -0.85306  -0.84482  -0.84391  -0.83239
 Alpha  occ. eigenvalues --   -0.82887  -0.81938  -0.81786  -0.80394  -0.79850
 Alpha  occ. eigenvalues --   -0.79661  -0.78679  -0.77968  -0.77517  -0.77397
 Alpha  occ. eigenvalues --   -0.75838  -0.75483  -0.74533  -0.73423  -0.72080
 Alpha  occ. eigenvalues --   -0.71167  -0.71094  -0.70419  -0.70372  -0.69585
 Alpha  occ. eigenvalues --   -0.69527  -0.68272  -0.68130  -0.67008  -0.66720
 Alpha  occ. eigenvalues --   -0.65090  -0.64924  -0.64083  -0.62746  -0.62339
 Alpha  occ. eigenvalues --   -0.61638  -0.61184  -0.60730  -0.60207  -0.59577
 Alpha  occ. eigenvalues --   -0.59148  -0.59093  -0.58325  -0.58206  -0.58096
 Alpha  occ. eigenvalues --   -0.57064  -0.56175  -0.55732  -0.55380  -0.54325
 Alpha  occ. eigenvalues --   -0.54149  -0.53517  -0.53321  -0.53119  -0.52516
 Alpha  occ. eigenvalues --   -0.52393  -0.52063  -0.51757  -0.51221  -0.51161
 Alpha  occ. eigenvalues --   -0.50614  -0.50388  -0.50278  -0.50029  -0.49742
 Alpha  occ. eigenvalues --   -0.49097  -0.48856  -0.48689  -0.48464  -0.48197
 Alpha  occ. eigenvalues --   -0.47980  -0.47699  -0.47417  -0.47217  -0.46840
 Alpha  occ. eigenvalues --   -0.46553  -0.46478  -0.46256  -0.46155  -0.45903
 Alpha  occ. eigenvalues --   -0.45818  -0.45488  -0.45371  -0.45177  -0.45022
 Alpha  occ. eigenvalues --   -0.44719  -0.44405  -0.44332  -0.43928  -0.43753
 Alpha  occ. eigenvalues --   -0.43462  -0.43410  -0.43245  -0.43092  -0.43072
 Alpha  occ. eigenvalues --   -0.42656  -0.42639  -0.42462  -0.42321  -0.41976
 Alpha  occ. eigenvalues --   -0.41717  -0.41433  -0.41378  -0.40759  -0.40524
 Alpha  occ. eigenvalues --   -0.40441  -0.40324  -0.40221  -0.40150  -0.40043
 Alpha  occ. eigenvalues --   -0.39848  -0.39704  -0.39541  -0.39429  -0.39269
 Alpha  occ. eigenvalues --   -0.39217  -0.39050  -0.38741  -0.38473  -0.38369
 Alpha  occ. eigenvalues --   -0.38233  -0.38166  -0.37769  -0.37580  -0.37498
 Alpha  occ. eigenvalues --   -0.37293  -0.37259  -0.36299  -0.36183  -0.36074
 Alpha  occ. eigenvalues --   -0.35862  -0.35337  -0.35078  -0.34693  -0.34433
 Alpha  occ. eigenvalues --   -0.34368  -0.34322  -0.34004  -0.33753  -0.33139
 Alpha  occ. eigenvalues --   -0.32940  -0.32677  -0.32061  -0.31947  -0.31670
 Alpha  occ. eigenvalues --   -0.31323  -0.31016  -0.30669  -0.30320  -0.29657
 Alpha  occ. eigenvalues --   -0.28948  -0.28144  -0.27663  -0.27458  -0.27185
 Alpha  occ. eigenvalues --   -0.26844  -0.26416  -0.22844  -0.20663
 Alpha virt. eigenvalues --   -0.07311  -0.06941  -0.02781  -0.00830   0.00576
 Alpha virt. eigenvalues --    0.02207   0.02942   0.03338   0.03586   0.03980
 Alpha virt. eigenvalues --    0.04636   0.05066   0.07660   0.08309   0.08697

 Mulliken charges:
               1
     1  Mg   0.840925
     2  C    0.084218
     3  C   -0.128438
     4  C   -0.183096
     5  C   -0.140136
     6  N   -0.584905
     7  C    0.289976
     8  C   -0.171963
     9  C   -0.142429
    10  C    0.297925
    11  C   -0.299282
    12  C   -0.168117
    13  C   -0.262484
    14  C    0.606759
    15  O   -0.497629
    16  O   -0.402928
    17  N   -0.691534
    18  C    0.341953
    19  C    0.013493
    20  C   -0.033090
    21  C    0.274689
    22  C   -0.404315
    23  C    0.252625
    24  O   -0.411617
    25  N   -0.688628
    26  C    0.307907
    27  C    0.012001
    28  C   -0.023912
    29  C    0.284766
    30  C    0.221656
    31  C   -0.220737
    32  C   -0.305217
    33  N   -0.749225
    34  C    0.269920
    35  C    0.110034
    36  C   -0.030957
    37  C    0.306799
    38  C   -0.417079
    39  C    0.388879
    40  O   -0.483893
    41  C   -0.318392
    42  C    0.600766
    43  O   -0.475372
    44  O   -0.447247
    45  C   -0.092665
    46  C   -0.010697
    47  C   -0.164730
    48  C    0.194650
    49  C   -0.381217
    50  C   -0.241109
    51  C   -0.177763
    52  C   -0.154154
    53  C   -0.042206
    54  C   -0.303452
    55  C   -0.174199
    56  C   -0.181099
    57  C   -0.189736
    58  C   -0.036193
    59  C   -0.310334
    60  C   -0.162137
    61  C   -0.192391
    62  C   -0.133536
    63  C   -0.041935
    64  C   -0.330523
    65  C   -0.307077
    66  H    0.071032
    67  H    0.147823
    68  H    0.061062
    69  H    0.114243
    70  H    0.108504
    71  H    0.131182
    72  H    0.083524
    73  H    0.116424
    74  H    0.097924
    75  H    0.130671
    76  H    0.122339
    77  H    0.141789
    78  H    0.142552
    79  H    0.146877
    80  H    0.101545
    81  H    0.088438
    82  H    0.107507
    83  H    0.115120
    84  H    0.115705
    85  H    0.111906
    86  H    0.117211
    87  H    0.144380
    88  H    0.158238
    89  H    0.141523
    90  H    0.153902
    91  H    0.119477
    92  H    0.141172
    93  H    0.077922
    94  H    0.140854
    95  H    0.113802
    96  H    0.090106
    97  H    0.098345
    98  H    0.096856
    99  H    0.081185
   100  H    0.091591
   101  H    0.060673
   102  H    0.083186
   103  H    0.091564
   104  H    0.070010
   105  H    0.111431
   106  H    0.092890
   107  H    0.089215
   108  H    0.075935
   109  H    0.103529
   110  H    0.073424
   111  H    0.085084
   112  H    0.092166
   113  H    0.094504
   114  H    0.079110
   115  H    0.107519
   116  H    0.101087
   117  H    0.098801
   118  H    0.091316
   119  H    0.061499
   120  H    0.053026
   121  H    0.075643
   122  H    0.092799
   123  H    0.099328
   124  H    0.089873
   125  H    0.111381
   126  H    0.100514
   127  H    0.102789
   128  H    0.079378
   129  H    0.101683
   130  H    0.111191
   131  H    0.164919
   132  H    0.158455
   133  O   -0.447309
   134  H    0.030487
 Sum of Mulliken charges =   0.00000

 Dipole moment (field-independent basis, Debye):
    X=              2.1636    Y=             -7.5311    Z=             -0.8089  Tot=              7.8773
 Quadrupole moment (field-independent basis, Debye-Ang):
   XX=           -376.0184   YY=           -444.2265   ZZ=           -394.6336
   XY=             23.9146   XZ=             29.0357   YZ=            -37.4133

 Normal termination of Gaussian 09 at Thu Oct  3 15:50:20 2019.
