 Gaussian 09, Revision D.01,
 Gaussian 09:  ES64L-G09RevD.01 24-Apr-2013

 ----------------------------------------------------------------------
 # td=(NStates=1) iop(3/107=0140000000,3/108=0140000000) iop(3/107=0140
 000000,3/108=0140000000) CAM-B3LYP/6-31G(d,p)
 ----------------------------------------------------------------------

 --
 TD
 --
 Symbolic Z-matrix:
 Charge =  0 Multiplicity = 1

                         Standard orientation:
 ---------------------------------------------------------------------
 Center     Atomic      Atomic             Coordinates (Angstroms)
 Number     Number       Type             X           Y           Z
 ---------------------------------------------------------------------
      1         12           0       -5.760348    1.239099    0.263761
      2          6           0       -4.956450   -2.206675   -0.361027
      3          6           0       -3.566864    1.124570    2.778408
      4          6           0       -6.317717    4.537081    0.685278
      5          6           0       -8.072563    1.119276   -2.325128
      6          7           0       -4.396651   -0.326628    0.977885
      7          6           0       -4.202657   -1.585242    0.562259
      8          6           0       -3.121898   -2.253199    1.332825
      9          6           0       -2.858586   -1.293101    2.591846
     10          6           0       -3.713268   -0.059742    2.158262
     11          6           0       -3.291753   -1.765646    3.855434
     12          6           0       -1.902778   -2.561629    0.591754
     13          6           0       -0.873645   -3.424778    1.438948
     14          6           0        0.343799   -3.783741    0.690419
     15          8           0        0.535478   -3.338905   -0.476601
     16          8           0        1.171306   -4.604753    1.418176
     17          7           0       -5.094091    2.611447    1.518208
     18          6           0       -4.186701    2.378809    2.478576
     19          6           0       -3.921955    3.687252    3.161202
     20          6           0       -4.544984    4.700823    2.512318
     21          6           0       -5.436573    3.986277    1.462788
     22          6           0       -2.872410    3.928787    4.225680
     23          6           0       -4.614672    6.201928    2.869718
     24          8           0       -4.115639    6.625338    3.812992
     25          7           0       -6.926199    2.534561   -0.742290
     26          6           0       -7.020598    3.907629   -0.384971
     27          6           0       -7.946780    4.620152   -1.271379
     28          6           0       -8.566049    3.582494   -2.101091
     29          6           0       -7.849687    2.358910   -1.731328
     30          6           0       -8.430581    5.993663   -1.147275
     31          6           0       -9.556597    3.666717   -3.264359
     32          6           0       -8.821989    3.715532   -4.551378
     33          7           0       -6.328950   -0.202629   -1.257976
     34          6           0       -7.383751   -0.125059   -2.081254
     35          6           0       -7.583763   -1.355610   -2.718261
     36          6           0       -6.644448   -2.227217   -2.125021
     37          6           0       -5.927187   -1.490708   -1.139151
     38          6           0       -8.658001   -1.745141   -3.689372
     39          6           0       -6.238520   -3.619386   -1.952337
     40          8           0       -6.764721   -4.637934   -2.459952
     41          6           0       -5.008757   -3.581981   -0.931928
     42          6           0       -5.324688   -4.719327    0.143121
     43          8           0       -5.635540   -4.467641    1.257864
     44          8           0       -4.888874   -5.884580   -0.365434
     45          6           0       -5.251013   -6.932587    0.505971
     46          6           0        2.401446   -5.003076    0.714098
     47          6           0        3.467393   -4.040759    1.060016
     48          6           0        4.011991   -3.162529    0.228213
     49          6           0        3.656641   -3.137237   -1.237982
     50          6           0        5.056036   -2.163038    0.646356
     51          6           0        6.627717   -2.540594    0.179422
     52          6           0        7.732406   -1.621537    0.679834
     53          6           0        9.092105   -1.964794   -0.007893
     54          6           0        9.529500   -3.333871    0.293313
     55          6           0       10.082472   -0.925727    0.459661
     56          6           0       11.446080   -0.849641   -0.326438
     57          6           0       12.306240    0.240175    0.205987
     58          6           0       13.757495    0.371494   -0.588178
     59          6           0       14.667093   -0.860334   -0.291992
     60          6           0       14.310035    1.714277   -0.106612
     61          6           0       15.571692    2.117494   -1.048315
     62          6           0       16.098946    3.491834   -0.815353
     63          6           0       17.372776    3.934365   -1.509404
     64          6           0       17.038973    4.038791   -2.980554
     65          6           0       17.988996    5.230789   -0.842410
     66          1           0       -2.681788    1.255667    3.460406
     67          1           0       -6.220371    5.670327    0.754708
     68          1           0       -8.756734    1.047385   -2.962826
     69          1           0       -3.550382   -3.342164    1.823115
     70          1           0       -1.687218   -1.133877    2.428579
     71          1           0       -2.849084   -2.813488    4.008562
     72          1           0       -3.145972   -0.977266    4.719288
     73          1           0       -4.387327   -2.158568    4.009114
     74          1           0       -2.076454   -3.081771   -0.322840
     75          1           0       -1.498186   -1.743550    0.343613
     76          1           0       -0.753322   -2.980456    2.451011
     77          1           0       -1.534061   -4.206873    1.688562
     78          1           0       -1.723717    3.571948    4.184003
     79          1           0       -2.917995    4.841449    4.905176
     80          1           0       -2.989465    3.270159    5.105821
     81          1           0       -5.346310    6.787728    2.432436
     82          1           0      -10.179123    2.764719   -3.215225
     83          1           0      -10.182158    4.433813   -3.155787
     84          1           0       -9.473168    3.864014   -5.290354
     85          1           0       -8.146198    4.569576   -4.614315
     86          1           0       -8.268261    2.697406   -4.990599
     87          1           0       -8.543500   -1.327051   -4.552513
     88          1           0       -8.648510   -2.829906   -3.718553
     89          1           0       -9.718256   -1.468046   -3.274960
     90          1           0       -4.204376   -3.783463   -1.577337
     91          1           0        2.746099   -6.130857    0.701505
     92          1           0        2.202921   -5.012079   -0.222600
     93          1           0        3.658293   -4.078039    2.216217
     94          1           0        2.657445   -3.324693   -1.476947
     95          1           0        3.695537   -1.895640   -1.440934
     96          1           0        4.247141   -3.704347   -1.773545
     97          1           0        4.862617   -1.261010    0.060278
     98          1           0        5.158014   -2.032502    1.764301
     99          1           0        6.915207   -3.638436    0.469054
    100          1           0        6.750175   -2.545457   -0.928854
    101          1           0        7.603495   -0.472745    0.342791
    102          1           0        7.718393   -1.634974    1.808362
    103          1           0        9.106463   -1.892462   -1.131336
    104          1           0        8.876144   -4.208571   -0.112098
    105          1           0       10.611183   -3.584978   -0.034263
    106          1           0        9.580394   -3.377492    1.304299
    107          1           0        9.525496    0.019568    0.285874
    108          1           0       10.348398   -0.882880    1.573182
    109          1           0       12.047777   -1.724956   -0.254529
    110          1           0       11.364164   -0.696661   -1.389576
    111          1           0       11.938862    1.290735   -0.072957
    112          1           0       12.530760    0.301739    1.192901
    113          1           0       13.535352    0.489910   -1.673172
    114          1           0       14.926159   -0.924950    0.640192
    115          1           0       14.289585   -1.687960   -0.515777
    116          1           0       15.625325   -0.784631   -0.719525
    117          1           0       13.521779    2.625915   -0.248375
    118          1           0       14.714603    1.582716    1.011376
    119          1           0       16.515756    1.495344   -0.714696
    120          1           0       15.327886    1.933966   -2.009296
    121          1           0       15.027629    4.072042   -0.972963
    122          1           0       16.237495    3.783562    0.226521
    123          1           0       18.061567    3.056107   -1.428930
    124          1           0       16.444135    4.775023   -3.146838
    125          1           0       17.862881    4.309524   -3.583330
    126          1           0       16.499246    3.162998   -3.305899
    127          1           0       18.479204    4.745140    0.201134
    128          1           0       18.702998    5.664773   -1.524592
    129          1           0       17.075960    5.890707   -0.707389
    130          1           0       -5.082884   -7.712592   -0.035079
    131          1           0       -6.327689   -6.941779    0.982951
    132          1           0       -4.489484   -7.109056    1.270274
    133          8           0       -7.974858    6.782469   -0.427216
    134          1           0       -9.234035    6.262621   -1.869219
 ---------------------------------------------------------------------

 SCF Done:  E(RCAM-B3LYP) =  -3043.37361975     A.U. after   15 cycles

 Excitation energies and oscillator strengths:

 Excited State   1:      Singlet-A      2.1415 eV  578.97 nm  f=0.1928  <S**2>=0.000
     243 -> 245        0.10274
     243 -> 246       -0.26418
     244 -> 245        0.63884
 This state for optimization and/or second-order correction.
 Total Energy, E(TD-HF/TD-KS) =  -3043.29492270
 Copying the excited state density for this state as the 1-particle RhoCI density.

 The electronic state is 1-A.
 Alpha  occ. eigenvalues --  -46.81478 -19.23364 -19.23284 -19.18222 -19.18018
 Alpha  occ. eigenvalues --  -19.17608 -19.17157 -19.15955 -14.38172 -14.37424
 Alpha  occ. eigenvalues --  -14.37256 -14.34937 -10.36055 -10.35238 -10.30726
 Alpha  occ. eigenvalues --  -10.30551 -10.30004 -10.28188 -10.27460 -10.27285
 Alpha  occ. eigenvalues --  -10.26743 -10.26454 -10.26178 -10.26112 -10.25852
 Alpha  occ. eigenvalues --  -10.25462 -10.25329 -10.24798 -10.24552 -10.24542
 Alpha  occ. eigenvalues --  -10.24131 -10.24102 -10.23939 -10.23657 -10.23409
 Alpha  occ. eigenvalues --  -10.23339 -10.23311 -10.23258 -10.23183 -10.23162
 Alpha  occ. eigenvalues --  -10.23087 -10.22971 -10.22945 -10.22775 -10.22692
 Alpha  occ. eigenvalues --  -10.22617 -10.22434 -10.22399 -10.22234 -10.21975
 Alpha  occ. eigenvalues --  -10.21964 -10.21624 -10.21528 -10.21404 -10.21153
 Alpha  occ. eigenvalues --  -10.21077 -10.20839 -10.20608 -10.20501 -10.20469
 Alpha  occ. eigenvalues --  -10.20062 -10.20061 -10.19840 -10.19790 -10.17392
 Alpha  occ. eigenvalues --  -10.16893  -3.10001  -1.84943  -1.84471  -1.84403
 Alpha  occ. eigenvalues --   -1.15121  -1.11974  -1.11917  -1.10238  -1.07139
 Alpha  occ. eigenvalues --   -1.03842  -1.03417  -1.00165  -0.99381  -0.98997
 Alpha  occ. eigenvalues --   -0.97777  -0.88174  -0.86504  -0.85775  -0.85657
 Alpha  occ. eigenvalues --   -0.85145  -0.84766  -0.84561  -0.83832  -0.82978
 Alpha  occ. eigenvalues --   -0.82939  -0.82554  -0.81573  -0.80315  -0.79358
 Alpha  occ. eigenvalues --   -0.79049  -0.78455  -0.77893  -0.77151  -0.76638
 Alpha  occ. eigenvalues --   -0.75684  -0.74340  -0.74245  -0.73187  -0.72085
 Alpha  occ. eigenvalues --   -0.72023  -0.71493  -0.71243  -0.69934  -0.69642
 Alpha  occ. eigenvalues --   -0.69114  -0.68340  -0.67217  -0.66919  -0.66616
 Alpha  occ. eigenvalues --   -0.66389  -0.64824  -0.63464  -0.62413  -0.61752
 Alpha  occ. eigenvalues --   -0.61261  -0.61008  -0.60668  -0.60189  -0.59265
 Alpha  occ. eigenvalues --   -0.58792  -0.58427  -0.58406  -0.58186  -0.57635
 Alpha  occ. eigenvalues --   -0.57125  -0.56227  -0.55456  -0.54976  -0.54720
 Alpha  occ. eigenvalues --   -0.54439  -0.53384  -0.52771  -0.52693  -0.52395
 Alpha  occ. eigenvalues --   -0.51999  -0.51451  -0.51273  -0.51081  -0.50359
 Alpha  occ. eigenvalues --   -0.50248  -0.50094  -0.49370  -0.49250  -0.48723
 Alpha  occ. eigenvalues --   -0.48629  -0.48539  -0.48290  -0.47993  -0.47924
 Alpha  occ. eigenvalues --   -0.47652  -0.47560  -0.47401  -0.47286  -0.47048
 Alpha  occ. eigenvalues --   -0.46824  -0.46630  -0.46453  -0.46100  -0.46083
 Alpha  occ. eigenvalues --   -0.45783  -0.45560  -0.45397  -0.45310  -0.45158
 Alpha  occ. eigenvalues --   -0.45043  -0.44704  -0.44428  -0.44143  -0.43912
 Alpha  occ. eigenvalues --   -0.43763  -0.43663  -0.43482  -0.43253  -0.43140
 Alpha  occ. eigenvalues --   -0.42780  -0.42632  -0.42608  -0.42125  -0.41940
 Alpha  occ. eigenvalues --   -0.41669  -0.41448  -0.41422  -0.41374  -0.40951
 Alpha  occ. eigenvalues --   -0.40606  -0.40474  -0.40316  -0.40055  -0.39796
 Alpha  occ. eigenvalues --   -0.39648  -0.39408  -0.39258  -0.39148  -0.39037
 Alpha  occ. eigenvalues --   -0.38641  -0.38535  -0.38497  -0.38373  -0.38001
 Alpha  occ. eigenvalues --   -0.37846  -0.37666  -0.37162  -0.36947  -0.36767
 Alpha  occ. eigenvalues --   -0.36427  -0.36197  -0.35752  -0.35712  -0.35353
 Alpha  occ. eigenvalues --   -0.35273  -0.35138  -0.34700  -0.34553  -0.34519
 Alpha  occ. eigenvalues --   -0.34269  -0.33947  -0.33658  -0.33555  -0.33275
 Alpha  occ. eigenvalues --   -0.33070  -0.33038  -0.32784  -0.31635  -0.30952
 Alpha  occ. eigenvalues --   -0.30870  -0.30738  -0.30551  -0.30153  -0.29366
 Alpha  occ. eigenvalues --   -0.29195  -0.28378  -0.28080  -0.27707  -0.27051
 Alpha  occ. eigenvalues --   -0.26832  -0.26449  -0.23272  -0.21473
 Alpha virt. eigenvalues --   -0.08084  -0.06340  -0.01146  -0.00534   0.01279
 Alpha virt. eigenvalues --    0.01866   0.03119   0.03648   0.04374   0.05084
 Alpha virt. eigenvalues --    0.05741   0.05976   0.08544   0.09009   0.10006

 Mulliken charges:
               1
     1  Mg   0.839237
     2  C    0.129255
     3  C   -0.181731
     4  C   -0.172978
     5  C   -0.095499
     6  N   -0.642959
     7  C    0.330610
     8  C   -0.182351
     9  C   -0.120257
    10  C    0.322823
    11  C   -0.306912
    12  C   -0.153997
    13  C   -0.290128
    14  C    0.632860
    15  O   -0.482386
    16  O   -0.471191
    17  N   -0.750942
    18  C    0.351128
    19  C    0.032798
    20  C   -0.046574
    21  C    0.309358
    22  C   -0.409108
    23  C    0.266920
    24  O   -0.348397
    25  N   -0.695355
    26  C    0.264408
    27  C   -0.051938
    28  C    0.010814
    29  C    0.314809
    30  C    0.252719
    31  C   -0.226249
    32  C   -0.302257
    33  N   -0.714645
    34  C    0.285596
    35  C   -0.001476
    36  C    0.019891
    37  C    0.264071
    38  C   -0.369927
    39  C    0.338215
    40  O   -0.489467
    41  C   -0.344017
    42  C    0.628504
    43  O   -0.440295
    44  O   -0.421282
    45  C   -0.090316
    46  C    0.006512
    47  C   -0.133205
    48  C    0.140251
    49  C   -0.364736
    50  C   -0.221894
    51  C   -0.188467
    52  C   -0.160476
    53  C   -0.053411
    54  C   -0.297830
    55  C   -0.168085
    56  C   -0.180448
    57  C   -0.174188
    58  C   -0.072786
    59  C   -0.309303
    60  C   -0.168291
    61  C   -0.167153
    62  C   -0.154742
    63  C   -0.062443
    64  C   -0.304258
    65  C   -0.304370
    66  H    0.093878
    67  H    0.130080
    68  H    0.038537
    69  H    0.085114
    70  H    0.100097
    71  H    0.097937
    72  H    0.105920
    73  H    0.124074
    74  H    0.119899
    75  H    0.123153
    76  H    0.136369
    77  H    0.143397
    78  H    0.112781
    79  H    0.151887
    80  H    0.113173
    81  H    0.086643
    82  H    0.115320
    83  H    0.120261
    84  H    0.122837
    85  H    0.119932
    86  H    0.087488
    87  H    0.135698
    88  H    0.151746
    89  H    0.104589
    90  H    0.165934
    91  H    0.103666
    92  H    0.124600
    93  H    0.074044
    94  H    0.160892
    95  H    0.068171
    96  H    0.131774
    97  H    0.103996
    98  H    0.095862
    99  H    0.088144
   100  H    0.094023
   101  H    0.071112
   102  H    0.091020
   103  H    0.084779
   104  H    0.087675
   105  H    0.084400
   106  H    0.111162
   107  H    0.087485
   108  H    0.080302
   109  H    0.098211
   110  H    0.093066
   111  H    0.072238
   112  H    0.096725
   113  H    0.076948
   114  H    0.108774
   115  H    0.108011
   116  H    0.101512
   117  H    0.074159
   118  H    0.078645
   119  H    0.069628
   120  H    0.105068
   121  H    0.040751
   122  H    0.083286
   123  H    0.081360
   124  H    0.113050
   125  H    0.089136
   126  H    0.097695
   127  H    0.084756
   128  H    0.110399
   129  H    0.110420
   130  H    0.127704
   131  H    0.129324
   132  H    0.110269
   133  O   -0.389862
   134  H    0.046819
 Sum of Mulliken charges =   0.00000

 Dipole moment (field-independent basis, Debye):
    X=              1.4935    Y=             -2.2939    Z=             -0.1775  Tot=              2.7430
 Quadrupole moment (field-independent basis, Debye-Ang):
   XX=           -370.9656   YY=           -421.8465   ZZ=           -391.1359
   XY=            -12.9690   XZ=             15.5624   YZ=            -29.5783

 Normal termination of Gaussian 09 at Sat Oct  5 04:01:37 2019.
