 Gaussian 09, Revision D.01,
 Gaussian 09:  ES64L-G09RevD.01 24-Apr-2013

 ----------------------------------------------------------------------
 # td=(NStates=1) iop(3/107=0140000000,3/108=0140000000) iop(3/107=0140
 000000,3/108=0140000000) CAM-B3LYP/6-31G(d,p)
 ----------------------------------------------------------------------

 --
 TD
 --
 Symbolic Z-matrix:
 Charge =  0 Multiplicity = 1

                         Standard orientation:
 ---------------------------------------------------------------------
 Center     Atomic      Atomic             Coordinates (Angstroms)
 Number     Number       Type             X           Y           Z
 ---------------------------------------------------------------------
      1         12           0       -5.656670    1.259977    0.078593
      2          6           0       -5.039413   -2.180284   -0.390637
      3          6           0       -3.401077    1.228906    2.728155
      4          6           0       -6.191073    4.514737    0.671032
      5          6           0       -7.969490    1.169391   -2.391200
      6          7           0       -4.392274   -0.370213    1.068288
      7          6           0       -4.266541   -1.655945    0.764594
      8          6           0       -3.234140   -2.366772    1.572009
      9          6           0       -2.913980   -1.386763    2.681570
     10          6           0       -3.589380   -0.088536    2.151023
     11          6           0       -3.340253   -1.770555    4.029734
     12          6           0       -2.022281   -2.701126    0.745434
     13          6           0       -0.980789   -3.490217    1.446573
     14          6           0        0.238482   -3.918975    0.582400
     15          8           0        0.481203   -3.519492   -0.539134
     16          8           0        1.059389   -4.732506    1.294702
     17          7           0       -4.926917    2.645072    1.481709
     18          6           0       -4.025854    2.469716    2.505238
     19          6           0       -3.716838    3.656523    3.138698
     20          6           0       -4.555767    4.650785    2.560141
     21          6           0       -5.304344    3.909504    1.515686
     22          6           0       -2.823671    3.774345    4.366893
     23          6           0       -4.654302    5.990329    2.971036
     24          8           0       -4.029331    6.559680    3.804756
     25          7           0       -6.842445    2.656199   -0.736948
     26          6           0       -6.934819    3.878314   -0.395213
     27          6           0       -7.932257    4.651171   -1.184110
     28          6           0       -8.392802    3.655924   -2.047462
     29          6           0       -7.785131    2.402660   -1.754336
     30          6           0       -8.456439    6.007806   -1.072324
     31          6           0       -9.513697    3.784448   -3.132053
     32          6           0       -9.111036    3.987581   -4.481226
     33          7           0       -6.394429   -0.151214   -1.074508
     34          6           0       -7.299892   -0.073936   -2.123354
     35          6           0       -7.433634   -1.324096   -2.802044
     36          6           0       -6.590258   -2.160546   -2.212411
     37          6           0       -5.922896   -1.491870   -1.231849
     38          6           0       -8.406265   -1.557337   -3.844818
     39          6           0       -6.135408   -3.522365   -2.057757
     40          8           0       -6.618000   -4.525076   -2.654506
     41          6           0       -5.046404   -3.535515   -0.968244
     42          6           0       -5.285261   -4.654944    0.060497
     43          8           0       -5.712908   -4.414222    1.192289
     44          8           0       -4.984160   -5.980134   -0.422441
     45          6           0       -5.246081   -7.013600    0.570361
     46          6           0        2.301099   -5.020021    0.734120
     47          6           0        3.439776   -4.020988    1.065223
     48          6           0        4.121527   -3.308403    0.264532
     49          6           0        3.812081   -3.287200   -1.258877
     50          6           0        5.091753   -2.335107    0.652831
     51          6           0        6.582374   -2.648618    0.074638
     52          6           0        7.637879   -1.779259    0.669637
     53          6           0        9.035262   -1.904513   -0.028618
     54          6           0        9.711969   -3.310130    0.301420
     55          6           0        9.907342   -0.740571    0.398012
     56          6           0       11.237767   -0.702971   -0.301781
     57          6           0       12.095143    0.384767    0.071876
     58          6           0       13.547393    0.637281   -0.567769
     59          6           0       14.438043   -0.636288   -0.392721
     60          6           0       14.195806    1.878811   -0.192973
     61          6           0       15.373157    2.110227   -1.022274
     62          6           0       16.083554    3.496260   -0.617822
     63          6           0       17.435659    3.806857   -1.416585
     64          6           0       17.193762    3.916698   -2.943399
     65          6           0       18.014756    5.067368   -0.784498
     66          1           0       -2.846037    1.038693    3.520103
     67          1           0       -6.490179    5.651736    0.572321
     68          1           0       -8.679130    0.986276   -3.282091
     69          1           0       -3.834425   -3.355772    1.992081
     70          1           0       -1.719801   -1.080765    2.645121
     71          1           0       -3.063851   -2.653893    4.206017
     72          1           0       -3.182962   -1.044968    4.769805
     73          1           0       -4.339123   -1.978540    3.950923
     74          1           0       -2.259007   -3.159176   -0.187042
     75          1           0       -1.560326   -1.717810    0.413746
     76          1           0       -0.586910   -3.031161    2.295507
     77          1           0       -1.558151   -4.420582    1.753398
     78          1           0       -1.727171    3.246598    4.224065
     79          1           0       -2.901041    4.704479    4.648750
     80          1           0       -3.202879    3.232517    5.199627
     81          1           0       -5.313196    6.467907    2.391273
     82          1           0      -10.239422    2.931204   -3.122829
     83          1           0      -10.192448    4.499438   -2.833916
     84          1           0       -9.889212    4.447367   -5.231925
     85          1           0       -8.552358    5.021230   -4.611870
     86          1           0       -8.435085    3.230940   -4.880090
     87          1           0       -8.487338   -0.747556   -4.736418
     88          1           0       -8.254136   -2.694385   -4.246377
     89          1           0       -9.436074   -1.759186   -3.188747
     90          1           0       -4.159874   -3.858217   -1.592274
     91          1           0        2.512896   -5.900942    1.036945
     92          1           0        2.126928   -5.150760   -0.535627
     93          1           0        3.776509   -4.123565    2.010855
     94          1           0        2.850140   -3.491161   -1.596877
     95          1           0        3.970729   -2.202918   -1.241462
     96          1           0        4.668952   -3.721994   -1.718307
     97          1           0        4.968321   -1.186170    0.338189
     98          1           0        5.206009   -2.580845    1.714954
     99          1           0        6.571372   -3.869244    0.114890
    100          1           0        6.375542   -2.471368   -0.967755
    101          1           0        7.400944   -0.830911    0.355678
    102          1           0        7.730455   -2.238587    1.758801
    103          1           0        8.825649   -1.933144   -1.097517
    104          1           0        8.968507   -4.271658    0.178833
    105          1           0       10.738739   -3.485754   -0.114663
    106          1           0        9.954046   -3.085818    1.438627
    107          1           0        9.316689    0.183294    0.138216
    108          1           0       10.104467   -0.705324    1.458636
    109          1           0       11.701321   -1.830023   -0.201727
    110          1           0       11.223551   -0.721177   -1.338005
    111          1           0       11.523363    1.318011   -0.284818
    112          1           0       12.243975    0.252956    1.153018
    113          1           0       13.545293    0.713288   -1.705658
    114          1           0       14.725453   -0.741028    0.811397
    115          1           0       14.034578   -1.537426   -0.755182
    116          1           0       15.353805   -0.513745   -0.793871
    117          1           0       13.560882    2.553528   -0.244386
    118          1           0       14.442511    1.793608    0.800192
    119          1           0       16.204342    1.617556   -0.656348
    120          1           0       15.249504    2.168964   -2.118428
    121          1           0       15.383092    4.306922   -0.861538
    122          1           0       16.333265    3.429665    0.353755
    123          1           0       18.159708    2.975991   -1.441941
    124          1           0       16.399060    4.641652   -3.160204
    125          1           0       17.990696    4.391377   -3.674772
    126          1           0       16.979174    2.807586   -3.370396
    127          1           0       18.441558    4.831420    0.352919
    128          1           0       18.849710    5.554051   -1.360032
    129          1           0       17.116584    5.966804   -0.752518
    130          1           0       -4.768486   -7.812150    0.031194
    131          1           0       -6.258376   -7.136778    0.704955
    132          1           0       -4.729236   -6.926405    1.489709
    133          8           0       -7.927743    6.802160   -0.311177
    134          1           0       -9.075824    6.246194   -2.009758
 ---------------------------------------------------------------------

 SCF Done:  E(RCAM-B3LYP) =  -3043.35514600     A.U. after   16 cycles

 Excitation energies and oscillator strengths:

 Excited State   1:      Singlet-A      1.9908 eV  622.78 nm  f=0.1491  <S**2>=0.000
     243 -> 245       -0.13175
     243 -> 246        0.28262
     244 -> 245        0.61196
     244 -> 246        0.13588
 This state for optimization and/or second-order correction.
 Total Energy, E(TD-HF/TD-KS) =  -3043.28198429
 Copying the excited state density for this state as the 1-particle RhoCI density.

 The electronic state is 1-A.
 Alpha  occ. eigenvalues --  -46.82156 -19.22852 -19.22685 -19.18954 -19.18203
 Alpha  occ. eigenvalues --  -19.17919 -19.16995 -19.15863 -14.39319 -14.37135
 Alpha  occ. eigenvalues --  -14.36762 -14.36356 -10.36543 -10.35702 -10.31804
 Alpha  occ. eigenvalues --  -10.31571 -10.28429 -10.27981 -10.27419 -10.27252
 Alpha  occ. eigenvalues --  -10.26572 -10.26366 -10.26115 -10.26098 -10.26091
 Alpha  occ. eigenvalues --  -10.26075 -10.26075 -10.25724 -10.25622 -10.25502
 Alpha  occ. eigenvalues --  -10.25423 -10.25244 -10.24930 -10.24592 -10.24579
 Alpha  occ. eigenvalues --  -10.24040 -10.24016 -10.23350 -10.23280 -10.23167
 Alpha  occ. eigenvalues --  -10.23052 -10.22762 -10.22717 -10.22509 -10.22485
 Alpha  occ. eigenvalues --  -10.22405 -10.22324 -10.22260 -10.22248 -10.22108
 Alpha  occ. eigenvalues --  -10.21994 -10.21823 -10.21758 -10.21706 -10.21418
 Alpha  occ. eigenvalues --  -10.21338 -10.21132 -10.20969 -10.20272 -10.20203
 Alpha  occ. eigenvalues --  -10.19832 -10.19704 -10.19675 -10.19582 -10.19345
 Alpha  occ. eigenvalues --  -10.17368  -3.10692  -1.85623  -1.85174  -1.85093
 Alpha  occ. eigenvalues --   -1.14306  -1.11226  -1.07731  -1.07442  -1.05667
 Alpha  occ. eigenvalues --   -1.04770  -1.04482  -1.01771  -1.01068  -1.00520
 Alpha  occ. eigenvalues --   -0.99392  -0.89858  -0.87588  -0.87274  -0.86744
 Alpha  occ. eigenvalues --   -0.85890  -0.85317  -0.85009  -0.84477  -0.83751
 Alpha  occ. eigenvalues --   -0.82977  -0.82765  -0.82388  -0.81345  -0.80142
 Alpha  occ. eigenvalues --   -0.79932  -0.79110  -0.78220  -0.77180  -0.76574
 Alpha  occ. eigenvalues --   -0.75745  -0.75210  -0.74818  -0.73465  -0.72596
 Alpha  occ. eigenvalues --   -0.72352  -0.71290  -0.70495  -0.70129  -0.69764
 Alpha  occ. eigenvalues --   -0.69502  -0.69399  -0.68130  -0.67295  -0.66696
 Alpha  occ. eigenvalues --   -0.66349  -0.64824  -0.64728  -0.62772  -0.62440
 Alpha  occ. eigenvalues --   -0.61747  -0.60922  -0.60674  -0.59138  -0.59017
 Alpha  occ. eigenvalues --   -0.58740  -0.58421  -0.58068  -0.57758  -0.57597
 Alpha  occ. eigenvalues --   -0.56769  -0.56299  -0.55472  -0.55327  -0.54695
 Alpha  occ. eigenvalues --   -0.54114  -0.53741  -0.53528  -0.52973  -0.52789
 Alpha  occ. eigenvalues --   -0.52672  -0.52377  -0.52097  -0.51871  -0.51565
 Alpha  occ. eigenvalues --   -0.50413  -0.50371  -0.50073  -0.50053  -0.49859
 Alpha  occ. eigenvalues --   -0.49378  -0.49128  -0.48792  -0.48735  -0.48587
 Alpha  occ. eigenvalues --   -0.48138  -0.47841  -0.47723  -0.47285  -0.47096
 Alpha  occ. eigenvalues --   -0.46851  -0.46765  -0.46605  -0.46498  -0.46303
 Alpha  occ. eigenvalues --   -0.46138  -0.46005  -0.45880  -0.45483  -0.44949
 Alpha  occ. eigenvalues --   -0.44875  -0.44766  -0.44512  -0.44343  -0.44105
 Alpha  occ. eigenvalues --   -0.44009  -0.43717  -0.43701  -0.43315  -0.43084
 Alpha  occ. eigenvalues --   -0.42562  -0.42277  -0.42260  -0.42190  -0.42103
 Alpha  occ. eigenvalues --   -0.41827  -0.41703  -0.41263  -0.41080  -0.40976
 Alpha  occ. eigenvalues --   -0.40880  -0.40550  -0.40380  -0.40204  -0.39964
 Alpha  occ. eigenvalues --   -0.39911  -0.39712  -0.39459  -0.39349  -0.39143
 Alpha  occ. eigenvalues --   -0.38967  -0.38903  -0.38893  -0.38852  -0.38697
 Alpha  occ. eigenvalues --   -0.38592  -0.37984  -0.37729  -0.37426  -0.37197
 Alpha  occ. eigenvalues --   -0.36399  -0.36131  -0.35967  -0.35729  -0.35532
 Alpha  occ. eigenvalues --   -0.35370  -0.35106  -0.34621  -0.34521  -0.34469
 Alpha  occ. eigenvalues --   -0.33935  -0.33871  -0.33530  -0.33400  -0.33051
 Alpha  occ. eigenvalues --   -0.32943  -0.32658  -0.32567  -0.32490  -0.31891
 Alpha  occ. eigenvalues --   -0.31665  -0.31544  -0.31187  -0.30809  -0.30073
 Alpha  occ. eigenvalues --   -0.29088  -0.28750  -0.28227  -0.28030  -0.27829
 Alpha  occ. eigenvalues --   -0.27708  -0.27061  -0.22815  -0.21364
 Alpha virt. eigenvalues --   -0.08547  -0.07084  -0.02306  -0.00956   0.00412
 Alpha virt. eigenvalues --    0.01514   0.02842   0.03137   0.04242   0.04691
 Alpha virt. eigenvalues --    0.04946   0.05791   0.07333   0.08540   0.09139

 Mulliken charges:
               1
     1  Mg   0.850167
     2  C    0.080419
     3  C   -0.161748
     4  C   -0.194923
     5  C   -0.183166
     6  N   -0.582649
     7  C    0.328488
     8  C   -0.169149
     9  C   -0.143640
    10  C    0.276879
    11  C   -0.287980
    12  C   -0.169512
    13  C   -0.252528
    14  C    0.594757
    15  O   -0.456288
    16  O   -0.448654
    17  N   -0.705494
    18  C    0.319637
    19  C    0.039372
    20  C   -0.048143
    21  C    0.361691
    22  C   -0.357444
    23  C    0.261325
    24  O   -0.422783
    25  N   -0.716176
    26  C    0.314976
    27  C   -0.025540
    28  C    0.010766
    29  C    0.291526
    30  C    0.239924
    31  C   -0.226744
    32  C   -0.307260
    33  N   -0.733356
    34  C    0.296380
    35  C    0.028541
    36  C    0.148773
    37  C    0.198179
    38  C   -0.406995
    39  C    0.333175
    40  O   -0.480312
    41  C   -0.334796
    42  C    0.631645
    43  O   -0.461757
    44  O   -0.479876
    45  C   -0.085606
    46  C    0.032010
    47  C   -0.163168
    48  C    0.175359
    49  C   -0.357439
    50  C   -0.249717
    51  C   -0.203324
    52  C   -0.134055
    53  C   -0.067863
    54  C   -0.309039
    55  C   -0.161018
    56  C   -0.166523
    57  C   -0.161697
    58  C   -0.080026
    59  C   -0.303822
    60  C   -0.106049
    61  C   -0.203259
    62  C   -0.187608
    63  C   -0.053616
    64  C   -0.306798
    65  C   -0.278998
    66  H    0.056798
    67  H    0.154913
    68  H    0.092699
    69  H    0.118092
    70  H    0.086568
    71  H    0.118864
    72  H    0.118063
    73  H    0.126876
    74  H    0.119865
    75  H    0.111994
    76  H    0.141970
    77  H    0.123143
    78  H    0.098106
    79  H    0.151747
    80  H    0.130364
    81  H    0.061448
    82  H    0.108537
    83  H    0.110835
    84  H    0.104755
    85  H    0.086908
    86  H    0.117643
    87  H    0.120413
    88  H    0.139289
    89  H    0.123373
    90  H    0.168150
    91  H    0.109424
    92  H    0.083836
    93  H    0.068960
    94  H    0.142235
    95  H    0.102484
    96  H    0.120947
    97  H    0.098086
    98  H    0.092220
    99  H    0.072017
   100  H    0.098830
   101  H    0.101551
   102  H    0.090544
   103  H    0.089199
   104  H    0.088344
   105  H    0.109853
   106  H    0.079945
   107  H    0.080664
   108  H    0.097209
   109  H    0.055652
   110  H    0.098402
   111  H    0.076193
   112  H    0.085051
   113  H    0.063761
   114  H    0.049228
   115  H    0.108096
   116  H    0.113605
   117  H    0.089655
   118  H    0.088424
   119  H    0.111613
   120  H    0.096880
   121  H    0.087513
   122  H    0.103186
   123  H    0.091465
   124  H    0.100387
   125  H    0.085727
   126  H    0.086257
   127  H    0.079290
   128  H    0.100946
   129  H    0.067953
   130  H    0.129048
   131  H    0.142622
   132  H    0.126199
   133  O   -0.411066
   134  H    0.078700
 Sum of Mulliken charges =   0.00000

 Dipole moment (field-independent basis, Debye):
    X=              1.8346    Y=             -4.3896    Z=             -0.8376  Tot=              4.8307
 Quadrupole moment (field-independent basis, Debye-Ang):
   XX=           -371.9455   YY=           -442.6032   ZZ=           -393.9617
   XY=              8.4084   XZ=             17.2322   YZ=            -42.9628

 Normal termination of Gaussian 09 at Wed Oct  9 08:41:12 2019.
