 Gaussian 09, Revision D.01,
 Gaussian 09:  ES64L-G09RevD.01 24-Apr-2013

 ----------------------------------------------------------------------
 # td=(NStates=1) iop(3/107=0140000000,3/108=0140000000) iop(3/107=0140
 000000,3/108=0140000000) CAM-B3LYP/6-31G(d,p)
 ----------------------------------------------------------------------

 --
 TD
 --
 Symbolic Z-matrix:
 Charge =  0 Multiplicity = 1

                         Standard orientation:
 ---------------------------------------------------------------------
 Center     Atomic      Atomic             Coordinates (Angstroms)
 Number     Number       Type             X           Y           Z
 ---------------------------------------------------------------------
      1         12           0       -5.720775    1.239718    0.240734
      2          6           0       -5.072029   -2.155633   -0.210208
      3          6           0       -3.258067    1.207087    2.744725
      4          6           0       -6.269135    4.501732    0.686119
      5          6           0       -8.005417    1.091365   -2.402196
      6          7           0       -4.403173   -0.365525    1.022515
      7          6           0       -4.296912   -1.638241    0.712214
      8          6           0       -3.187296   -2.303892    1.534263
      9          6           0       -2.858275   -1.272406    2.660444
     10          6           0       -3.503773   -0.063365    2.066843
     11          6           0       -3.542035   -1.613952    3.981440
     12          6           0       -2.027713   -2.701733    0.713589
     13          6           0       -1.129601   -3.725073    1.404344
     14          6           0        0.270632   -4.042537    0.581644
     15          8           0        0.402325   -3.537853   -0.475009
     16          8           0        1.052746   -4.805394    1.263395
     17          7           0       -4.964770    2.584165    1.496705
     18          6           0       -3.923027    2.421153    2.469622
     19          6           0       -3.511705    3.675033    3.085762
     20          6           0       -4.471288    4.561346    2.557604
     21          6           0       -5.321885    3.894164    1.586963
     22          6           0       -2.629432    3.900857    4.227446
     23          6           0       -4.659981    5.960743    2.995213
     24          8           0       -4.100483    6.534497    3.879196
     25          7           0       -6.885143    2.669865   -0.743382
     26          6           0       -6.959056    4.005819   -0.371980
     27          6           0       -7.911393    4.688208   -1.261966
     28          6           0       -8.471131    3.686699   -2.101321
     29          6           0       -7.721228    2.367287   -1.696515
     30          6           0       -8.287293    6.089032   -1.302076
     31          6           0       -9.356376    3.901376   -3.168141
     32          6           0       -8.677353    4.217303   -4.609121
     33          7           0       -6.438500   -0.155568   -1.056403
     34          6           0       -7.375812   -0.068477   -2.111235
     35          6           0       -7.680686   -1.319006   -2.570709
     36          6           0       -6.708084   -2.187419   -1.970568
     37          6           0       -5.991146   -1.442572   -1.018492
     38          6           0       -8.793434   -1.660712   -3.629796
     39          6           0       -6.288324   -3.564622   -1.971789
     40          8           0       -6.548747   -4.486645   -2.666006
     41          6           0       -5.069262   -3.587458   -0.805567
     42          6           0       -5.251886   -4.666245    0.186696
     43          8           0       -5.666040   -4.611520    1.347661
     44          8           0       -4.816111   -5.807504   -0.393232
     45          6           0       -5.095379   -7.144585    0.392658
     46          6           0        2.344161   -5.112205    0.655361
     47          6           0        3.337250   -4.047605    1.067341
     48          6           0        4.006605   -3.253757    0.150995
     49          6           0        3.673517   -3.140487   -1.380938
     50          6           0        5.147156   -2.353416    0.547841
     51          6           0        6.549957   -2.620217   -0.176419
     52          6           0        7.654589   -1.807760    0.546292
     53          6           0        9.008799   -1.994451   -0.170728
     54          6           0        9.534098   -3.471673   -0.125136
     55          6           0       10.048324   -0.942278    0.467226
     56          6           0       11.264544   -0.884476   -0.320865
     57          6           0       12.160479    0.262674    0.146414
     58          6           0       13.490694    0.510470   -0.594400
     59          6           0       14.471316   -0.771206   -0.519587
     60          6           0       14.222916    1.691654    0.025980
     61          6           0       15.439862    2.174715   -0.802198
     62          6           0       15.966439    3.585712   -0.541170
     63          6           0       17.285875    3.983745   -1.288435
     64          6           0       17.154201    4.069953   -2.771088
     65          6           0       17.842586    5.243330   -0.792584
     66          1           0       -2.450252    1.332454    3.561424
     67          1           0       -6.300210    5.579925    0.678393
     68          1           0       -8.782013    1.232725   -3.121713
     69          1           0       -3.644922   -3.166490    1.936763
     70          1           0       -1.645602   -1.197615    2.715334
     71          1           0       -3.051879   -2.541224    4.507482
     72          1           0       -3.476974   -0.754397    4.805270
     73          1           0       -4.569816   -1.733263    3.783620
     74          1           0       -2.403540   -2.924290   -0.298500
     75          1           0       -1.536560   -1.759946    0.376354
     76          1           0       -1.011704   -3.231655    2.410628
     77          1           0       -1.547957   -4.756146    1.797625
     78          1           0       -1.528755    3.750818    4.137041
     79          1           0       -2.813176    4.879395    4.685880
     80          1           0       -2.944021    3.332400    4.979341
     81          1           0       -5.235026    6.500066    2.235139
     82          1           0      -10.022780    3.142721   -3.358071
     83          1           0       -9.988793    4.776685   -3.098894
     84          1           0       -9.301272    4.534859   -5.502771
     85          1           0       -7.980180    5.249390   -4.481028
     86          1           0       -8.113433    3.246723   -5.023599
     87          1           0       -8.561993   -0.897346   -4.419761
     88          1           0       -8.585638   -2.685880   -3.896302
     89          1           0       -9.900482   -1.581206   -3.268590
     90          1           0       -4.293096   -3.811706   -1.431884
     91          1           0        2.775804   -6.006423    1.027529
     92          1           0        2.168597   -5.249695   -0.351585
     93          1           0        3.738685   -3.943621    2.127180
     94          1           0        2.741759   -3.390336   -1.464192
     95          1           0        4.046429   -2.183280   -1.710369
     96          1           0        4.378219   -3.832471   -1.898948
     97          1           0        4.991486   -1.230707    0.222696
     98          1           0        5.384263   -2.580423    1.646119
     99          1           0        6.731223   -3.643178    0.032350
    100          1           0        6.408094   -2.680912   -1.349500
    101          1           0        7.365724   -0.855633    0.170861
    102          1           0        7.653361   -1.999150    1.586449
    103          1           0        9.117672   -1.694908   -1.242356
    104          1           0        8.911677   -4.149991   -0.532999
    105          1           0       10.476456   -3.702686   -0.574114
    106          1           0        9.744285   -3.985895    1.001467
    107          1           0        9.662600    0.123971    0.436009
    108          1           0       10.205007   -1.348155    1.502502
    109          1           0       11.729093   -1.934910   -0.449085
    110          1           0       11.046382   -0.513710   -1.301440
    111          1           0       11.557404    1.071282   -0.026114
    112          1           0       12.490632    0.428205    1.224295
    113          1           0       13.423719    0.611286   -1.631043
    114          1           0       14.569718   -0.662723    0.644478
    115          1           0       13.903388   -1.738262   -0.915346
    116          1           0       15.360299   -0.514236   -0.999368
    117          1           0       13.576352    2.668761   -0.091491
    118          1           0       14.477767    1.495273    1.072960
    119          1           0       16.159647    1.504720   -0.670845
    120          1           0       15.209824    2.088912   -1.978069
    121          1           0       15.352687    4.461104   -0.726022
    122          1           0       15.981521    3.685037    0.636226
    123          1           0       17.940439    3.094202   -1.179439
    124          1           0       16.591126    4.932349   -3.357792
    125          1           0       18.283905    4.254858   -3.241631
    126          1           0       16.756485    3.165886   -3.049519
    127          1           0       18.221650    5.210966    0.363608
    128          1           0       18.958421    5.578094   -1.294096
    129          1           0       17.203482    6.186377   -0.765208
    130          1           0       -4.867450   -7.911399   -0.370165
    131          1           0       -6.185847   -6.941893    0.800746
    132          1           0       -4.392129   -7.092827    1.302176
    133          8           0       -7.707230    6.911150   -0.506555
    134          1           0       -9.012561    6.324155   -1.915429
 ---------------------------------------------------------------------

 SCF Done:  E(RCAM-B3LYP) =  -3043.47152290     A.U. after   16 cycles

 Excitation energies and oscillator strengths:

 Excited State   1:      Singlet-A      1.9065 eV  650.34 nm  f=0.2090  <S**2>=0.000
     243 -> 246        0.21490
     243 -> 247       -0.10540
     244 -> 245        0.66215
 This state for optimization and/or second-order correction.
 Total Energy, E(TD-HF/TD-KS) =  -3043.40146162
 Copying the excited state density for this state as the 1-particle RhoCI density.

 The electronic state is 1-A.
 Alpha  occ. eigenvalues --  -46.81551 -19.23375 -19.21162 -19.17687 -19.16955
 Alpha  occ. eigenvalues --  -19.16905 -19.16781 -19.15998 -14.38934 -14.37282
 Alpha  occ. eigenvalues --  -14.36981 -14.35989 -10.34992 -10.33853 -10.31348
 Alpha  occ. eigenvalues --  -10.29758 -10.29245 -10.29204 -10.28009 -10.27970
 Alpha  occ. eigenvalues --  -10.27629 -10.26744 -10.26531 -10.26347 -10.25885
 Alpha  occ. eigenvalues --  -10.25606 -10.25520 -10.25383 -10.25303 -10.24950
 Alpha  occ. eigenvalues --  -10.24790 -10.24562 -10.24291 -10.24227 -10.24219
 Alpha  occ. eigenvalues --  -10.24013 -10.23830 -10.23519 -10.23477 -10.23316
 Alpha  occ. eigenvalues --  -10.23122 -10.23010 -10.23000 -10.22926 -10.22824
 Alpha  occ. eigenvalues --  -10.22674 -10.22637 -10.22585 -10.22175 -10.22161
 Alpha  occ. eigenvalues --  -10.22034 -10.22001 -10.21988 -10.21629 -10.21600
 Alpha  occ. eigenvalues --  -10.21336 -10.21202 -10.21186 -10.21116 -10.21093
 Alpha  occ. eigenvalues --  -10.20890 -10.20850 -10.20763 -10.20586 -10.20246
 Alpha  occ. eigenvalues --  -10.20169  -3.10061  -1.85003  -1.84540  -1.84459
 Alpha  occ. eigenvalues --   -1.15690  -1.10518  -1.08961  -1.07608  -1.06940
 Alpha  occ. eigenvalues --   -1.03427  -1.01887  -1.00695  -1.00030  -0.98955
 Alpha  occ. eigenvalues --   -0.98056  -0.88007  -0.86083  -0.85839  -0.85613
 Alpha  occ. eigenvalues --   -0.85309  -0.84719  -0.84434  -0.83546  -0.83461
 Alpha  occ. eigenvalues --   -0.83138  -0.82543  -0.81347  -0.80223  -0.79424
 Alpha  occ. eigenvalues --   -0.79189  -0.77764  -0.77210  -0.76979  -0.76277
 Alpha  occ. eigenvalues --   -0.75329  -0.75299  -0.73291  -0.72099  -0.71738
 Alpha  occ. eigenvalues --   -0.71669  -0.70711  -0.70119  -0.69972  -0.69780
 Alpha  occ. eigenvalues --   -0.69481  -0.69059  -0.67953  -0.66750  -0.66154
 Alpha  occ. eigenvalues --   -0.65449  -0.64554  -0.63833  -0.62543  -0.61864
 Alpha  occ. eigenvalues --   -0.61180  -0.60841  -0.60478  -0.59998  -0.59331
 Alpha  occ. eigenvalues --   -0.59085  -0.58561  -0.58067  -0.57310  -0.56810
 Alpha  occ. eigenvalues --   -0.56248  -0.55956  -0.55375  -0.54944  -0.54505
 Alpha  occ. eigenvalues --   -0.53671  -0.53255  -0.52983  -0.52536  -0.52432
 Alpha  occ. eigenvalues --   -0.51789  -0.51558  -0.51204  -0.50714  -0.50447
 Alpha  occ. eigenvalues --   -0.49941  -0.49785  -0.49291  -0.49074  -0.48992
 Alpha  occ. eigenvalues --   -0.48717  -0.48133  -0.47935  -0.47818  -0.47566
 Alpha  occ. eigenvalues --   -0.47460  -0.47346  -0.46961  -0.46797  -0.46788
 Alpha  occ. eigenvalues --   -0.46712  -0.46526  -0.46159  -0.46023  -0.45796
 Alpha  occ. eigenvalues --   -0.45526  -0.45403  -0.45161  -0.44813  -0.44550
 Alpha  occ. eigenvalues --   -0.44393  -0.44094  -0.44046  -0.43906  -0.43620
 Alpha  occ. eigenvalues --   -0.43444  -0.43249  -0.43168  -0.42946  -0.42863
 Alpha  occ. eigenvalues --   -0.42546  -0.42405  -0.42319  -0.42255  -0.41757
 Alpha  occ. eigenvalues --   -0.41660  -0.41452  -0.41408  -0.41109  -0.40994
 Alpha  occ. eigenvalues --   -0.40806  -0.40577  -0.40474  -0.40211  -0.40135
 Alpha  occ. eigenvalues --   -0.39908  -0.39833  -0.39778  -0.39340  -0.39059
 Alpha  occ. eigenvalues --   -0.38989  -0.38862  -0.38726  -0.38353  -0.38076
 Alpha  occ. eigenvalues --   -0.37808  -0.37499  -0.37349  -0.37211  -0.37075
 Alpha  occ. eigenvalues --   -0.36819  -0.36520  -0.36244  -0.36182  -0.35405
 Alpha  occ. eigenvalues --   -0.35328  -0.35157  -0.34762  -0.34582  -0.34380
 Alpha  occ. eigenvalues --   -0.34363  -0.33944  -0.33841  -0.33733  -0.33190
 Alpha  occ. eigenvalues --   -0.33108  -0.32186  -0.31876  -0.31835  -0.31246
 Alpha  occ. eigenvalues --   -0.31210  -0.30402  -0.30136  -0.30107  -0.29732
 Alpha  occ. eigenvalues --   -0.28395  -0.28089  -0.27661  -0.27497  -0.27295
 Alpha  occ. eigenvalues --   -0.26868  -0.26699  -0.23295  -0.20933
 Alpha virt. eigenvalues --   -0.08786  -0.06630  -0.01800  -0.00901   0.01269
 Alpha virt. eigenvalues --    0.03108   0.03517   0.03887   0.04551   0.04631
 Alpha virt. eigenvalues --    0.05813   0.06355   0.08238   0.08842   0.09447

 Mulliken charges:
               1
     1  Mg   0.828600
     2  C    0.063948
     3  C   -0.185321
     4  C   -0.185367
     5  C   -0.165877
     6  N   -0.621949
     7  C    0.337006
     8  C   -0.148574
     9  C   -0.139455
    10  C    0.301273
    11  C   -0.293763
    12  C   -0.162019
    13  C   -0.272222
    14  C    0.595590
    15  O   -0.440993
    16  O   -0.424646
    17  N   -0.719806
    18  C    0.272973
    19  C    0.081694
    20  C   -0.081974
    21  C    0.346792
    22  C   -0.414222
    23  C    0.259324
    24  O   -0.406974
    25  N   -0.699442
    26  C    0.291636
    27  C   -0.007062
    28  C    0.037136
    29  C    0.314551
    30  C    0.269219
    31  C   -0.297817
    32  C   -0.303130
    33  N   -0.760633
    34  C    0.320461
    35  C    0.027755
    36  C   -0.008411
    37  C    0.327500
    38  C   -0.363614
    39  C    0.327809
    40  O   -0.421257
    41  C   -0.329352
    42  C    0.632100
    43  O   -0.508602
    44  O   -0.480015
    45  C   -0.097419
    46  C   -0.011108
    47  C   -0.162506
    48  C    0.136161
    49  C   -0.354311
    50  C   -0.230215
    51  C   -0.210917
    52  C   -0.148468
    53  C   -0.070542
    54  C   -0.319062
    55  C   -0.156605
    56  C   -0.182239
    57  C   -0.157384
    58  C   -0.081375
    59  C   -0.302163
    60  C   -0.179353
    61  C   -0.178350
    62  C   -0.171629
    63  C   -0.040185
    64  C   -0.283789
    65  C   -0.290383
    66  H    0.098633
    67  H    0.131989
    68  H    0.090720
    69  H    0.128893
    70  H    0.095596
    71  H    0.101185
    72  H    0.093199
    73  H    0.137720
    74  H    0.109591
    75  H    0.111120
    76  H    0.113736
    77  H    0.111508
    78  H    0.120399
    79  H    0.163215
    80  H    0.142691
    81  H    0.070773
    82  H    0.124239
    83  H    0.123752
    84  H    0.115766
    85  H    0.088430
    86  H    0.100470
    87  H    0.123927
    88  H    0.152315
    89  H    0.123928
    90  H    0.166127
    91  H    0.131581
    92  H    0.135141
    93  H    0.085841
    94  H    0.143665
    95  H    0.115252
    96  H    0.110743
    97  H    0.095011
    98  H    0.080782
    99  H    0.104920
   100  H    0.082985
   101  H    0.108650
   102  H    0.109027
   103  H    0.086362
   104  H    0.119545
   105  H    0.107722
   106  H    0.055362
   107  H    0.079259
   108  H    0.090411
   109  H    0.084924
   110  H    0.098806
   111  H    0.100004
   112  H    0.072130
   113  H    0.084898
   114  H    0.082057
   115  H    0.091235
   116  H    0.112820
   117  H    0.080447
   118  H    0.094814
   119  H    0.110777
   120  H    0.069436
   121  H    0.094065
   122  H    0.071869
   123  H    0.095432
   124  H    0.087048
   125  H    0.074209
   126  H    0.106787
   127  H    0.071737
   128  H    0.066849
   129  H    0.106730
   130  H    0.147703
   131  H    0.148969
   132  H    0.136942
   133  O   -0.455367
   134  H    0.081471
 Sum of Mulliken charges =   0.00000

 Dipole moment (field-independent basis, Debye):
    X=              1.7089    Y=             -5.2282    Z=             -1.9785  Tot=              5.8455
 Quadrupole moment (field-independent basis, Debye-Ang):
   XX=           -374.2590   YY=           -432.1817   ZZ=           -392.8173
   XY=             -2.3561   XZ=             26.5735   YZ=            -32.8121

 Normal termination of Gaussian 09 at Tue Oct  8 03:51:55 2019.
