 Gaussian 09, Revision D.01,
 Gaussian 09:  ES64L-G09RevD.01 24-Apr-2013

 ----------------------------------------------------------------------
 # td=(NStates=1) iop(3/107=0140000000,3/108=0140000000) iop(3/107=0140
 000000,3/108=0140000000) CAM-B3LYP/6-31G(d,p)
 ----------------------------------------------------------------------

 --
 TD
 --
 Symbolic Z-matrix:
 Charge =  0 Multiplicity = 1

                         Standard orientation:
 ---------------------------------------------------------------------
 Center     Atomic      Atomic             Coordinates (Angstroms)
 Number     Number       Type             X           Y           Z
 ---------------------------------------------------------------------
      1         12           0       -5.655320    1.210902    0.252581
      2          6           0       -4.944150   -2.120472   -0.410950
      3          6           0       -3.384359    1.117611    2.843652
      4          6           0       -6.074649    4.559134    0.636792
      5          6           0       -7.909754    1.140729   -2.334083
      6          7           0       -4.401629   -0.277882    1.115680
      7          6           0       -4.244235   -1.652425    0.703953
      8          6           0       -3.149163   -2.378069    1.489864
      9          6           0       -2.885838   -1.284007    2.650480
     10          6           0       -3.592091   -0.023088    2.192235
     11          6           0       -3.393443   -1.722599    3.982294
     12          6           0       -2.056156   -2.782676    0.638750
     13          6           0       -0.887958   -3.482829    1.408819
     14          6           0        0.221631   -3.853044    0.552027
     15          8           0        0.529703   -3.565938   -0.580783
     16          8           0        1.002707   -4.712771    1.322287
     17          7           0       -4.877289    2.626589    1.442682
     18          6           0       -3.949421    2.457099    2.489084
     19          6           0       -3.496183    3.683265    3.125012
     20          6           0       -4.266026    4.656417    2.518348
     21          6           0       -5.139597    4.063417    1.469195
     22          6           0       -2.474193    3.877000    4.100970
     23          6           0       -4.428066    6.033880    2.811954
     24          8           0       -3.967522    6.547690    3.875898
     25          7           0       -6.811993    2.723970   -0.681627
     26          6           0       -6.868385    3.980958   -0.417160
     27          6           0       -7.962931    4.618514   -1.194979
     28          6           0       -8.404549    3.649902   -1.978590
     29          6           0       -7.647985    2.357753   -1.662634
     30          6           0       -8.363942    6.014727   -1.022208
     31          6           0       -9.423273    3.778048   -3.125680
     32          6           0       -8.900581    3.851974   -4.628660
     33          7           0       -6.323757   -0.142346   -1.038791
     34          6           0       -7.328147   -0.062575   -2.046182
     35          6           0       -7.514518   -1.251657   -2.771542
     36          6           0       -6.657221   -2.186167   -2.047526
     37          6           0       -5.944228   -1.359677   -1.134799
     38          6           0       -8.364204   -1.521099   -3.934474
     39          6           0       -6.084755   -3.585324   -1.985981
     40          8           0       -6.425888   -4.527792   -2.712162
     41          6           0       -4.988402   -3.577133   -0.894885
     42          6           0       -5.291629   -4.647794    0.040510
     43          8           0       -5.847272   -4.398445    1.154209
     44          8           0       -5.030278   -5.779594   -0.466907
     45          6           0       -5.295805   -6.946272    0.485696
     46          6           0        2.235556   -5.220882    0.708404
     47          6           0        3.338810   -4.282338    0.999307
     48          6           0        3.928128   -3.335008    0.251132
     49          6           0        3.684813   -3.165085   -1.240245
     50          6           0        5.048691   -2.371688    0.764848
     51          6           0        6.407545   -2.715157    0.172139
     52          6           0        7.544098   -1.798985    0.688595
     53          6           0        8.896065   -1.913107   -0.033768
     54          6           0        9.471536   -3.278637    0.237412
     55          6           0        9.870283   -0.824283    0.380039
     56          6           0       11.219405   -0.932957   -0.206983
     57          6           0       12.072757    0.368047    0.299760
     58          6           0       13.452250    0.537795   -0.552755
     59          6           0       14.314919   -0.798002   -0.431262
     60          6           0       14.174073    1.782729   -0.154495
     61          6           0       15.309647    2.268934   -1.064516
     62          6           0       16.048149    3.487846   -0.581815
     63          6           0       17.337808    3.866609   -1.415713
     64          6           0       17.121483    3.766983   -2.968344
     65          6           0       17.924547    5.248822   -1.058118
     66          1           0       -2.648195    1.339693    3.648032
     67          1           0       -6.202840    5.609797    1.109462
     68          1           0       -8.623417    0.975206   -3.190101
     69          1           0       -3.633499   -3.343572    2.085703
     70          1           0       -2.031152   -0.939519    2.753694
     71          1           0       -2.718229   -2.738199    4.311408
     72          1           0       -3.333226   -1.089209    4.637652
     73          1           0       -4.504869   -1.905366    4.063018
     74          1           0       -2.573731   -3.507224   -0.230846
     75          1           0       -1.574407   -1.947175    0.216784
     76          1           0       -0.784439   -2.909483    2.345104
     77          1           0       -1.068067   -4.463162    1.962672
     78          1           0       -1.459576    3.623361    3.630871
     79          1           0       -2.536053    4.969901    4.561109
     80          1           0       -2.736263    3.342759    5.020245
     81          1           0       -4.839803    6.796658    1.983174
     82          1           0      -10.128872    2.901506   -2.900121
     83          1           0      -10.070367    4.725721   -2.988227
     84          1           0       -9.723561    3.903274   -5.350788
     85          1           0       -8.452126    4.850700   -4.733608
     86          1           0       -8.353992    3.099200   -5.088491
     87          1           0       -8.300517   -0.839858   -4.755310
     88          1           0       -8.036432   -2.580811   -4.402577
     89          1           0       -9.503878   -1.651415   -3.609159
     90          1           0       -4.038414   -3.750436   -1.408219
     91          1           0        2.504921   -6.069365    1.321362
     92          1           0        1.963144   -5.256818   -0.215444
     93          1           0        3.746413   -4.199601    2.000295
     94          1           0        2.694070   -3.627281   -1.636578
     95          1           0        3.444484   -2.042233   -1.442317
     96          1           0        4.475868   -3.661329   -1.863571
     97          1           0        4.589491   -1.464543    0.558989
     98          1           0        4.824986   -2.447408    1.791575
     99          1           0        6.616625   -3.857599    0.287191
    100          1           0        6.282875   -2.558425   -0.784484
    101          1           0        7.139679   -0.868454    0.687124
    102          1           0        7.708285   -1.827421    1.794246
    103          1           0        8.608376   -1.864394   -1.189464
    104          1           0        8.638443   -4.111638    0.341742
    105          1           0       10.333820   -3.690764   -0.348979
    106          1           0        9.845155   -3.467905    1.509314
    107          1           0        9.433850    0.124253    0.153723
    108          1           0       10.125434   -0.959916    1.468551
    109          1           0       11.768900   -1.801691    0.202498
    110          1           0       11.317596   -0.976154   -1.251334
    111          1           0       11.647633    1.215105   -0.137461
    112          1           0       12.240656    0.491790    1.469174
    113          1           0       13.214215    0.714780   -1.596307
    114          1           0       14.640646   -0.961902    0.569248
    115          1           0       13.877471   -1.627347   -0.846588
    116          1           0       15.096710   -0.763436   -1.203916
    117          1           0       13.110098    2.607891   -0.148367
    118          1           0       14.480368    1.713741    0.899756
    119          1           0       16.034125    1.476427   -1.304809
    120          1           0       14.931959    2.473336   -2.011469
    121          1           0       15.370410    4.305391   -0.813327
    122          1           0       16.492128    3.433699    0.514068
    123          1           0       18.118937    3.057498   -1.064163
    124          1           0       16.243799    4.671789   -3.203943
    125          1           0       17.840676    4.025639   -3.537395
    126          1           0       16.798328    2.768654   -3.337706
    127          1           0       18.081893    5.059142    0.062899
    128          1           0       18.844043    5.566719   -1.645782
    129          1           0       17.111910    5.939095   -1.327686
    130          1           0       -4.965007   -7.748795   -0.167438
    131          1           0       -6.346799   -7.095102    0.789465
    132          1           0       -5.007225   -6.693832    1.585438
    133          8           0       -7.964223    6.909302   -0.332602
    134          1           0       -9.492903    6.132338   -1.633257
 ---------------------------------------------------------------------

 SCF Done:  E(RCAM-B3LYP) =  -3043.38230309     A.U. after   15 cycles

 Excitation energies and oscillator strengths:

 Excited State   1:      Singlet-A      2.0877 eV  593.89 nm  f=0.2043  <S**2>=0.000
     243 -> 245       -0.25012
     243 -> 246        0.24566
     244 -> 245        0.59218
     244 -> 246        0.11938
 This state for optimization and/or second-order correction.
 Total Energy, E(TD-HF/TD-KS) =  -3043.30558246
 Copying the excited state density for this state as the 1-particle RhoCI density.

 The electronic state is 1-A.
 Alpha  occ. eigenvalues --  -46.81505 -19.24864 -19.20356 -19.18403 -19.17795
 Alpha  occ. eigenvalues --  -19.17180 -19.17057 -19.15976 -14.38236 -14.37935
 Alpha  occ. eigenvalues --  -14.37289 -14.36703 -10.34979 -10.34774 -10.31943
 Alpha  occ. eigenvalues --  -10.31863 -10.31053 -10.29498 -10.27875 -10.27678
 Alpha  occ. eigenvalues --  -10.27188 -10.27020 -10.26735 -10.26630 -10.25799
 Alpha  occ. eigenvalues --  -10.25792 -10.25679 -10.25663 -10.25539 -10.25343
 Alpha  occ. eigenvalues --  -10.25031 -10.25023 -10.24856 -10.24632 -10.24549
 Alpha  occ. eigenvalues --  -10.24409 -10.24206 -10.24147 -10.24121 -10.23640
 Alpha  occ. eigenvalues --  -10.23246 -10.23011 -10.22911 -10.22748 -10.22722
 Alpha  occ. eigenvalues --  -10.22703 -10.22574 -10.22471 -10.22391 -10.22179
 Alpha  occ. eigenvalues --  -10.22041 -10.21710 -10.21567 -10.21451 -10.21413
 Alpha  occ. eigenvalues --  -10.21374 -10.21163 -10.21146 -10.20614 -10.20561
 Alpha  occ. eigenvalues --  -10.20389 -10.20364 -10.20300 -10.20260 -10.20216
 Alpha  occ. eigenvalues --  -10.18955  -3.10128  -1.85062  -1.84594  -1.84552
 Alpha  occ. eigenvalues --   -1.15707  -1.12111  -1.08441  -1.05743  -1.04331
 Alpha  occ. eigenvalues --   -1.04116  -1.02629  -1.02322  -1.01287  -0.97910
 Alpha  occ. eigenvalues --   -0.96866  -0.88333  -0.86506  -0.85985  -0.85687
 Alpha  occ. eigenvalues --   -0.84922  -0.84821  -0.84599  -0.84320  -0.84206
 Alpha  occ. eigenvalues --   -0.83631  -0.82528  -0.82139  -0.81203  -0.80024
 Alpha  occ. eigenvalues --   -0.79172  -0.78242  -0.77985  -0.77540  -0.76774
 Alpha  occ. eigenvalues --   -0.75704  -0.75129  -0.73976  -0.73842  -0.72942
 Alpha  occ. eigenvalues --   -0.71008  -0.70826  -0.70422  -0.69881  -0.69804
 Alpha  occ. eigenvalues --   -0.69128  -0.68925  -0.68322  -0.67604  -0.66211
 Alpha  occ. eigenvalues --   -0.66073  -0.65244  -0.64015  -0.63495  -0.62591
 Alpha  occ. eigenvalues --   -0.61631  -0.61399  -0.61070  -0.59383  -0.58969
 Alpha  occ. eigenvalues --   -0.58317  -0.57707  -0.57283  -0.57154  -0.56823
 Alpha  occ. eigenvalues --   -0.56687  -0.55842  -0.55573  -0.55371  -0.54636
 Alpha  occ. eigenvalues --   -0.54349  -0.53859  -0.52770  -0.52373  -0.51727
 Alpha  occ. eigenvalues --   -0.51499  -0.51140  -0.51007  -0.50767  -0.50334
 Alpha  occ. eigenvalues --   -0.50210  -0.50000  -0.49692  -0.49499  -0.49057
 Alpha  occ. eigenvalues --   -0.48953  -0.48753  -0.48536  -0.48358  -0.48192
 Alpha  occ. eigenvalues --   -0.47974  -0.47874  -0.47103  -0.46946  -0.46544
 Alpha  occ. eigenvalues --   -0.46449  -0.46315  -0.46051  -0.46005  -0.45806
 Alpha  occ. eigenvalues --   -0.45533  -0.45430  -0.45422  -0.45067  -0.45009
 Alpha  occ. eigenvalues --   -0.44529  -0.44348  -0.44094  -0.43944  -0.43709
 Alpha  occ. eigenvalues --   -0.43695  -0.43527  -0.43281  -0.43260  -0.42805
 Alpha  occ. eigenvalues --   -0.42743  -0.42483  -0.42386  -0.42197  -0.41940
 Alpha  occ. eigenvalues --   -0.41787  -0.41429  -0.41364  -0.41168  -0.40838
 Alpha  occ. eigenvalues --   -0.40741  -0.40304  -0.40119  -0.39761  -0.39652
 Alpha  occ. eigenvalues --   -0.39557  -0.39490  -0.39313  -0.39139  -0.39070
 Alpha  occ. eigenvalues --   -0.38812  -0.38781  -0.38473  -0.38261  -0.38074
 Alpha  occ. eigenvalues --   -0.37953  -0.37573  -0.37342  -0.37184  -0.36886
 Alpha  occ. eigenvalues --   -0.36472  -0.36199  -0.35843  -0.35653  -0.35621
 Alpha  occ. eigenvalues --   -0.35396  -0.35162  -0.35081  -0.34837  -0.34347
 Alpha  occ. eigenvalues --   -0.34061  -0.33545  -0.33507  -0.33390  -0.33227
 Alpha  occ. eigenvalues --   -0.32784  -0.32238  -0.32215  -0.31877  -0.31652
 Alpha  occ. eigenvalues --   -0.31538  -0.30829  -0.30099  -0.30038  -0.29996
 Alpha  occ. eigenvalues --   -0.29832  -0.28354  -0.28140  -0.27822  -0.27676
 Alpha  occ. eigenvalues --   -0.27524  -0.27129  -0.22953  -0.22165
 Alpha virt. eigenvalues --   -0.08984  -0.06374  -0.01580  -0.01089   0.00398
 Alpha virt. eigenvalues --    0.02628   0.03302   0.03541   0.04449   0.04479
 Alpha virt. eigenvalues --    0.04715   0.05578   0.07637   0.08151   0.09124

 Mulliken charges:
               1
     1  Mg   0.820233
     2  C    0.031926
     3  C   -0.194216
     4  C   -0.175360
     5  C   -0.158039
     6  N   -0.648247
     7  C    0.305367
     8  C   -0.157782
     9  C   -0.109991
    10  C    0.359232
    11  C   -0.278220
    12  C   -0.144013
    13  C   -0.290802
    14  C    0.630956
    15  O   -0.472189
    16  O   -0.507039
    17  N   -0.688450
    18  C    0.270304
    19  C    0.107968
    20  C    0.033308
    21  C    0.277045
    22  C   -0.425522
    23  C    0.184120
    24  O   -0.436453
    25  N   -0.659722
    26  C    0.278576
    27  C    0.044256
    28  C   -0.023927
    29  C    0.306700
    30  C    0.260473
    31  C   -0.242502
    32  C   -0.322997
    33  N   -0.732703
    34  C    0.264219
    35  C    0.059574
    36  C   -0.012958
    37  C    0.349244
    38  C   -0.402740
    39  C    0.358130
    40  O   -0.467577
    41  C   -0.314552
    42  C    0.642765
    43  O   -0.531026
    44  O   -0.405413
    45  C   -0.117687
    46  C    0.057245
    47  C   -0.127312
    48  C    0.078512
    49  C   -0.372175
    50  C   -0.221464
    51  C   -0.160732
    52  C   -0.173654
    53  C   -0.042550
    54  C   -0.286534
    55  C   -0.146986
    56  C   -0.190798
    57  C   -0.181555
    58  C   -0.074306
    59  C   -0.318040
    60  C   -0.135894
    61  C   -0.179889
    62  C   -0.150506
    63  C   -0.074823
    64  C   -0.283576
    65  C   -0.288328
    66  H    0.080850
    67  H    0.113450
    68  H    0.104453
    69  H    0.115284
    70  H    0.095894
    71  H    0.065363
    72  H    0.118194
    73  H    0.117098
    74  H    0.085585
    75  H    0.131669
    76  H    0.150776
    77  H    0.142847
    78  H    0.130963
    79  H    0.163235
    80  H    0.136350
    81  H    0.093365
    82  H    0.102894
    83  H    0.108397
    84  H    0.112012
    85  H    0.121474
    86  H    0.119695
    87  H    0.134531
    88  H    0.142428
    89  H    0.125695
    90  H    0.167371
    91  H    0.117921
    92  H    0.113719
    93  H    0.067540
    94  H    0.125651
    95  H    0.098201
    96  H    0.115602
    97  H    0.109642
    98  H    0.093283
    99  H    0.089939
   100  H    0.117523
   101  H    0.096172
   102  H    0.083842
   103  H    0.066882
   104  H    0.090229
   105  H    0.110567
   106  H    0.036392
   107  H    0.092158
   108  H    0.092043
   109  H    0.103579
   110  H    0.094875
   111  H    0.103077
   112  H    0.078773
   113  H    0.080789
   114  H    0.106091
   115  H    0.108203
   116  H    0.087465
   117  H    0.021190
   118  H    0.088421
   119  H    0.093954
   120  H    0.109652
   121  H    0.095050
   122  H    0.075969
   123  H    0.063668
   124  H    0.045273
   125  H    0.114634
   126  H    0.096676
   127  H    0.094493
   128  H    0.101728
   129  H    0.102428
   130  H    0.145468
   131  H    0.151366
   132  H    0.149594
   133  O   -0.398271
   134  H   -0.002230
 Sum of Mulliken charges =   0.00000

 Dipole moment (field-independent basis, Debye):
    X=              1.8525    Y=             -4.9886    Z=             -1.2871  Tot=              5.4749
 Quadrupole moment (field-independent basis, Debye-Ang):
   XX=           -385.7866   YY=           -438.0116   ZZ=           -391.0462
   XY=             16.1184   XZ=             15.0100   YZ=            -33.7478

 Normal termination of Gaussian 09 at Mon Oct  7 17:08:10 2019.
