 Gaussian 09, Revision D.01,
 Gaussian 09:  ES64L-G09RevD.01 24-Apr-2013

 ----------------------------------------------------------------------
 # td=(NStates=1) iop(3/107=0140000000,3/108=0140000000) iop(3/107=0140
 000000,3/108=0140000000) CAM-B3LYP/6-31G(d,p)
 ----------------------------------------------------------------------

 --
 TD
 --
 Symbolic Z-matrix:
 Charge =  0 Multiplicity = 1

                         Standard orientation:
 ---------------------------------------------------------------------
 Center     Atomic      Atomic             Coordinates (Angstroms)
 Number     Number       Type             X           Y           Z
 ---------------------------------------------------------------------
      1         12           0       -5.686267    1.305201    0.250262
      2          6           0       -5.019844   -2.109869   -0.355497
      3          6           0       -3.380915    1.238184    2.813232
      4          6           0       -6.308634    4.555069    0.614487
      5          6           0       -7.976985    1.158020   -2.335362
      6          7           0       -4.316526   -0.218115    1.025255
      7          6           0       -4.220919   -1.514480    0.575054
      8          6           0       -3.173042   -2.296172    1.385607
      9          6           0       -2.914118   -1.350981    2.514214
     10          6           0       -3.490636   -0.039717    2.129826
     11          6           0       -3.376315   -1.698969    3.957132
     12          6           0       -1.905491   -2.757208    0.622966
     13          6           0       -0.927993   -3.518648    1.425238
     14          6           0        0.395874   -3.911340    0.669534
     15          8           0        0.571912   -3.478993   -0.468744
     16          8           0        1.038862   -4.775751    1.240364
     17          7           0       -4.907212    2.669881    1.455252
     18          6           0       -3.914755    2.445113    2.370040
     19          6           0       -3.617982    3.679133    3.082653
     20          6           0       -4.475602    4.632640    2.526993
     21          6           0       -5.248787    4.008451    1.483082
     22          6           0       -2.596432    3.910667    4.209440
     23          6           0       -4.635576    6.084505    2.909735
     24          8           0       -3.884065    6.713089    3.634135
     25          7           0       -6.907189    2.580003   -0.615927
     26          6           0       -7.036118    3.934671   -0.340861
     27          6           0       -7.984948    4.551998   -1.205584
     28          6           0       -8.421201    3.563601   -2.096959
     29          6           0       -7.762295    2.309172   -1.663596
     30          6           0       -8.384719    5.950611   -1.126407
     31          6           0       -9.434278    3.775034   -3.180994
     32          6           0       -8.792459    3.816179   -4.480206
     33          7           0       -6.292104   -0.104903   -1.123839
     34          6           0       -7.237160   -0.020639   -2.103105
     35          6           0       -7.482691   -1.294679   -2.747611
     36          6           0       -6.568938   -2.168120   -2.137198
     37          6           0       -5.979305   -1.478375   -1.087567
     38          6           0       -8.567322   -1.628624   -3.776542
     39          6           0       -6.198548   -3.622533   -2.027160
     40          8           0       -6.494972   -4.594668   -2.637127
     41          6           0       -5.111557   -3.602224   -0.842173
     42          6           0       -5.427555   -4.590885    0.214809
     43          8           0       -5.783301   -4.289040    1.280834
     44          8           0       -5.220784   -5.857097   -0.308437
     45          6           0       -5.554691   -6.983537    0.527364
     46          6           0        2.317464   -5.145177    0.692372
     47          6           0        3.441777   -4.147015    1.082480
     48          6           0        4.002520   -3.338578    0.216927
     49          6           0        3.702996   -3.115965   -1.237514
     50          6           0        5.234449   -2.678065    0.806603
     51          6           0        6.523676   -2.778675    0.066807
     52          6           0        7.560947   -1.741141    0.621068
     53          6           0        9.008386   -1.833740   -0.031960
     54          6           0        9.582524   -3.253159    0.211616
     55          6           0        9.980170   -0.802635    0.579048
     56          6           0       11.333409   -0.856840   -0.138176
     57          6           0       12.227550    0.327119    0.211564
     58          6           0       13.458748    0.550669   -0.534763
     59          6           0       14.489984   -0.616508   -0.222650
     60          6           0       14.026590    1.973679   -0.191330
     61          6           0       15.366295    2.203151   -1.104156
     62          6           0       16.106688    3.557144   -0.670940
     63          6           0       17.319639    3.738019   -1.563718
     64          6           0       16.996197    3.815643   -2.961207
     65          6           0       18.035104    5.061327   -0.897336
     66          1           0       -2.854704    1.222637    3.705174
     67          1           0       -6.503019    5.600656    0.835784
     68          1           0       -8.701974    1.142985   -3.228529
     69          1           0       -3.861839   -3.130341    1.696402
     70          1           0       -1.749088   -1.247519    2.420276
     71          1           0       -2.873721   -2.519336    4.284153
     72          1           0       -2.838258   -0.886604    4.598712
     73          1           0       -4.426378   -1.925324    4.034243
     74          1           0       -2.351589   -3.452883   -0.190784
     75          1           0       -1.523822   -1.887356    0.210494
     76          1           0       -0.808418   -2.865401    2.484614
     77          1           0       -1.255131   -4.346131    1.496142
     78          1           0       -1.668259    3.678072    3.981675
     79          1           0       -2.804863    4.990425    4.366749
     80          1           0       -2.875334    3.113251    5.030177
     81          1           0       -5.297950    6.626286    2.220264
     82          1           0       -9.883272    2.781632   -3.126522
     83          1           0      -10.104943    4.570005   -2.974333
     84          1           0       -9.361464    3.889775   -5.324643
     85          1           0       -8.142427    4.710781   -4.556615
     86          1           0       -8.072483    3.004971   -4.496645
     87          1           0       -8.699728   -1.052851   -4.904155
     88          1           0       -8.543079   -2.552128   -4.165593
     89          1           0       -9.406653   -1.528144   -3.145284
     90          1           0       -4.200908   -3.927246   -1.414354
     91          1           0        2.429988   -6.056483    0.922439
     92          1           0        2.366295   -5.032788   -0.520023
     93          1           0        3.988522   -4.190917    1.983937
     94          1           0        2.642410   -3.426083   -1.509330
     95          1           0        3.848770   -2.021353   -1.642935
     96          1           0        4.395398   -3.841909   -1.804015
     97          1           0        4.928605   -1.582127    0.869127
     98          1           0        5.181462   -2.883799    1.855906
     99          1           0        7.026780   -3.725342   -0.010786
    100          1           0        6.395278   -2.505214   -0.968715
    101          1           0        7.193939   -0.684220    0.305523
    102          1           0        7.544188   -1.852909    1.564290
    103          1           0        8.834221   -1.798233   -0.986517
    104          1           0        8.901331   -4.002405   -0.418598
    105          1           0       10.543491   -3.427799   -0.211722
    106          1           0        9.693459   -3.576053    1.359912
    107          1           0        9.481078    0.269665    0.370936
    108          1           0       10.025344   -1.074160    1.718492
    109          1           0       11.960974   -1.603913   -0.093759
    110          1           0       11.266893   -0.848576   -1.167591
    111          1           0       11.693301    1.197421    0.082480
    112          1           0       12.501791    0.350857    1.201163
    113          1           0       13.263394    0.752465   -1.595784
    114          1           0       14.781862   -0.621209    0.867563
    115          1           0       13.822908   -1.556024   -0.441471
    116          1           0       15.283326   -0.416479   -0.924949
    117          1           0       13.118968    2.521599   -0.532687
    118          1           0       14.200010    1.890292    0.805903
    119          1           0       16.126254    1.200649   -1.151431
    120          1           0       15.133654    2.315730   -2.171192
    121          1           0       15.152520    4.322076   -0.801487
    122          1           0       16.332935    3.528897    0.389345
    123          1           0       17.950152    2.729587   -1.239411
    124          1           0       16.432883    4.796228   -3.010529
    125          1           0       18.024987    3.798343   -3.637066
    126          1           0       16.520077    2.883149   -3.334194
    127          1           0       18.234142    4.890498    0.122467
    128          1           0       19.120990    5.129536   -1.541032
    129          1           0       17.421072    5.758459   -0.954249
    130          1           0       -5.314183   -7.805031   -0.272369
    131          1           0       -6.628456   -6.883692    0.903333
    132          1           0       -4.689177   -7.135552    1.373614
    133          8           0       -7.928872    6.785671   -0.337272
    134          1           0       -9.415400    6.358632   -1.766241
 ---------------------------------------------------------------------

 SCF Done:  E(RCAM-B3LYP) =  -3043.36345396     A.U. after   16 cycles

 Excitation energies and oscillator strengths:

 Excited State   1:      Singlet-A      1.9533 eV  634.76 nm  f=0.2088  <S**2>=0.000
     243 -> 246        0.24030
     244 -> 245        0.65187
 This state for optimization and/or second-order correction.
 Total Energy, E(TD-HF/TD-KS) =  -3043.29167296
 Copying the excited state density for this state as the 1-particle RhoCI density.

 The electronic state is 1-A.
 Alpha  occ. eigenvalues --  -46.80086 -19.24424 -19.22116 -19.18284 -19.17995
 Alpha  occ. eigenvalues --  -19.17501 -19.17256 -19.15127 -14.38852 -14.36607
 Alpha  occ. eigenvalues --  -14.36202 -14.35971 -10.34921 -10.34257 -10.32080
 Alpha  occ. eigenvalues --  -10.31900 -10.30191 -10.29660 -10.28213 -10.27668
 Alpha  occ. eigenvalues --  -10.26710 -10.26670 -10.26144 -10.25925 -10.25842
 Alpha  occ. eigenvalues --  -10.25711 -10.25127 -10.25003 -10.24741 -10.24723
 Alpha  occ. eigenvalues --  -10.24144 -10.24030 -10.23992 -10.23329 -10.23172
 Alpha  occ. eigenvalues --  -10.23128 -10.23100 -10.23015 -10.23002 -10.22963
 Alpha  occ. eigenvalues --  -10.22853 -10.22729 -10.22708 -10.22675 -10.22673
 Alpha  occ. eigenvalues --  -10.22637 -10.22268 -10.22256 -10.22248 -10.22181
 Alpha  occ. eigenvalues --  -10.21912 -10.21781 -10.21673 -10.21531 -10.21378
 Alpha  occ. eigenvalues --  -10.20989 -10.20883 -10.20869 -10.20858 -10.20484
 Alpha  occ. eigenvalues --  -10.20469 -10.20254 -10.20183 -10.20129 -10.18785
 Alpha  occ. eigenvalues --  -10.17734  -3.08883  -1.83806  -1.83362  -1.83299
 Alpha  occ. eigenvalues --   -1.18779  -1.14180  -1.09242  -1.06847  -1.06629
 Alpha  occ. eigenvalues --   -1.06130  -1.03702  -0.99927  -0.99098  -0.98887
 Alpha  occ. eigenvalues --   -0.98002  -0.88410  -0.87204  -0.86391  -0.86179
 Alpha  occ. eigenvalues --   -0.85996  -0.84459  -0.84173  -0.83893  -0.83691
 Alpha  occ. eigenvalues --   -0.82557  -0.82317  -0.82058  -0.80718  -0.79746
 Alpha  occ. eigenvalues --   -0.79611  -0.78850  -0.77751  -0.77200  -0.76860
 Alpha  occ. eigenvalues --   -0.74788  -0.74408  -0.74207  -0.72344  -0.72164
 Alpha  occ. eigenvalues --   -0.72146  -0.72011  -0.70383  -0.70052  -0.69616
 Alpha  occ. eigenvalues --   -0.69350  -0.69204  -0.67734  -0.66685  -0.66324
 Alpha  occ. eigenvalues --   -0.65864  -0.65495  -0.63782  -0.63301  -0.61973
 Alpha  occ. eigenvalues --   -0.61643  -0.61071  -0.60614  -0.60375  -0.59768
 Alpha  occ. eigenvalues --   -0.58190  -0.58097  -0.57531  -0.56702  -0.56448
 Alpha  occ. eigenvalues --   -0.55903  -0.55807  -0.55652  -0.55302  -0.54680
 Alpha  occ. eigenvalues --   -0.54487  -0.53867  -0.53682  -0.52535  -0.52426
 Alpha  occ. eigenvalues --   -0.52164  -0.51871  -0.51497  -0.51018  -0.50789
 Alpha  occ. eigenvalues --   -0.50312  -0.50159  -0.49864  -0.49719  -0.49119
 Alpha  occ. eigenvalues --   -0.49056  -0.48927  -0.48325  -0.48126  -0.48063
 Alpha  occ. eigenvalues --   -0.47446  -0.47422  -0.47203  -0.47153  -0.46886
 Alpha  occ. eigenvalues --   -0.46750  -0.46508  -0.46189  -0.46054  -0.45986
 Alpha  occ. eigenvalues --   -0.45833  -0.45640  -0.45138  -0.45049  -0.44860
 Alpha  occ. eigenvalues --   -0.44695  -0.44309  -0.43983  -0.43784  -0.43618
 Alpha  occ. eigenvalues --   -0.43413  -0.43222  -0.43123  -0.43085  -0.42807
 Alpha  occ. eigenvalues --   -0.42792  -0.42568  -0.42347  -0.42187  -0.42154
 Alpha  occ. eigenvalues --   -0.41872  -0.41546  -0.41373  -0.41244  -0.41115
 Alpha  occ. eigenvalues --   -0.40954  -0.40850  -0.40445  -0.40321  -0.40199
 Alpha  occ. eigenvalues --   -0.39940  -0.39894  -0.39785  -0.39441  -0.39395
 Alpha  occ. eigenvalues --   -0.39358  -0.39063  -0.38756  -0.38559  -0.38430
 Alpha  occ. eigenvalues --   -0.38339  -0.37747  -0.37587  -0.37283  -0.36928
 Alpha  occ. eigenvalues --   -0.36818  -0.36695  -0.36214  -0.36076  -0.35843
 Alpha  occ. eigenvalues --   -0.35700  -0.35261  -0.34880  -0.34722  -0.34482
 Alpha  occ. eigenvalues --   -0.34362  -0.34168  -0.34122  -0.33390  -0.33327
 Alpha  occ. eigenvalues --   -0.33056  -0.32819  -0.31982  -0.31669  -0.31558
 Alpha  occ. eigenvalues --   -0.31209  -0.30960  -0.29941  -0.29224  -0.28920
 Alpha  occ. eigenvalues --   -0.28690  -0.28163  -0.27966  -0.27848  -0.27819
 Alpha  occ. eigenvalues --   -0.27601  -0.27139  -0.22692  -0.21023
 Alpha virt. eigenvalues --   -0.08511  -0.06033  -0.01523  -0.00723   0.00968
 Alpha virt. eigenvalues --    0.03549   0.03956   0.03987   0.04567   0.05214
 Alpha virt. eigenvalues --    0.05445   0.06127   0.08248   0.08619   0.09771

 Mulliken charges:
               1
     1  Mg   0.836215
     2  C    0.102192
     3  C   -0.169369
     4  C   -0.199662
     5  C   -0.190726
     6  N   -0.612983
     7  C    0.269754
     8  C   -0.161955
     9  C   -0.173241
    10  C    0.329214
    11  C   -0.302169
    12  C   -0.165761
    13  C   -0.212402
    14  C    0.561026
    15  O   -0.495447
    16  O   -0.373804
    17  N   -0.726895
    18  C    0.322108
    19  C    0.008433
    20  C   -0.053386
    21  C    0.297791
    22  C   -0.364212
    23  C    0.249540
    24  O   -0.408613
    25  N   -0.748492
    26  C    0.341702
    27  C    0.019696
    28  C   -0.011598
    29  C    0.356310
    30  C    0.228610
    31  C   -0.221738
    32  C   -0.310519
    33  N   -0.699057
    34  C    0.296461
    35  C   -0.005894
    36  C   -0.003303
    37  C    0.252931
    38  C   -0.363322
    39  C    0.377742
    40  O   -0.418260
    41  C   -0.341059
    42  C    0.629928
    43  O   -0.432757
    44  O   -0.461701
    45  C   -0.081581
    46  C    0.001459
    47  C   -0.157161
    48  C    0.186043
    49  C   -0.393529
    50  C   -0.236947
    51  C   -0.186550
    52  C   -0.165625
    53  C   -0.049781
    54  C   -0.309649
    55  C   -0.152756
    56  C   -0.168461
    57  C   -0.161712
    58  C   -0.098995
    59  C   -0.298620
    60  C   -0.168832
    61  C   -0.189810
    62  C   -0.154386
    63  C   -0.046103
    64  C   -0.279935
    65  C   -0.292338
    66  H    0.076124
    67  H    0.128213
    68  H    0.101551
    69  H    0.123828
    70  H    0.093585
    71  H    0.122821
    72  H    0.100234
    73  H    0.136951
    74  H    0.092397
    75  H    0.124597
    76  H    0.093020
    77  H    0.123352
    78  H    0.139655
    79  H    0.161631
    80  H    0.101677
    81  H    0.088430
    82  H    0.112823
    83  H    0.115780
    84  H    0.118459
    85  H    0.106279
    86  H    0.112856
    87  H    0.088708
    88  H    0.150793
    89  H    0.142537
    90  H    0.164897
    91  H    0.111371
    92  H    0.117157
    93  H    0.080796
    94  H    0.156727
    95  H    0.109251
    96  H    0.115005
    97  H    0.093404
    98  H    0.095427
    99  H    0.102006
   100  H    0.099545
   101  H    0.072070
   102  H    0.099737
   103  H    0.092161
   104  H    0.075300
   105  H    0.110295
   106  H    0.082566
   107  H    0.074296
   108  H    0.084142
   109  H    0.099544
   110  H    0.093215
   111  H    0.075823
   112  H    0.085832
   113  H    0.074492
   114  H    0.098441
   115  H    0.082523
   116  H    0.106469
   117  H    0.093050
   118  H    0.098025
   119  H    0.055334
   120  H    0.100338
   121  H    0.060982
   122  H    0.098622
   123  H    0.059119
   124  H    0.103450
   125  H    0.075006
   126  H    0.113528
   127  H    0.109382
   128  H    0.065663
   129  H    0.116716
   130  H    0.131391
   131  H    0.137968
   132  H    0.103296
   133  O   -0.414431
   134  H    0.037711
 Sum of Mulliken charges =   0.00000

 Dipole moment (field-independent basis, Debye):
    X=              2.3114    Y=             -6.5038    Z=             -0.7503  Tot=              6.9430
 Quadrupole moment (field-independent basis, Debye-Ang):
   XX=           -376.5063   YY=           -434.5774   ZZ=           -392.5754
   XY=             10.5015   XZ=             20.7460   YZ=            -34.2068

 Normal termination of Gaussian 09 at Mon Oct  7 08:51:19 2019.
