 Gaussian 09, Revision D.01,
 Gaussian 09:  ES64L-G09RevD.01 24-Apr-2013

 ----------------------------------------------------------------------
 # td=(NStates=1) iop(3/107=0140000000,3/108=0140000000) iop(3/107=0140
 000000,3/108=0140000000) CAM-B3LYP/6-31G(d,p)
 ----------------------------------------------------------------------

 --
 TD
 --
 Symbolic Z-matrix:
 Charge =  0 Multiplicity = 1

                         Standard orientation:
 ---------------------------------------------------------------------
 Center     Atomic      Atomic             Coordinates (Angstroms)
 Number     Number       Type             X           Y           Z
 ---------------------------------------------------------------------
      1         12           0       -5.570576    1.332044    0.291809
      2          6           0       -4.860619   -2.165181   -0.351711
      3          6           0       -3.289056    1.240248    2.796073
      4          6           0       -6.197769    4.549435    0.599707
      5          6           0       -7.984239    1.137899   -2.287144
      6          7           0       -4.313783   -0.267463    1.043914
      7          6           0       -4.275903   -1.621533    0.634049
      8          6           0       -3.171480   -2.363847    1.555330
      9          6           0       -2.863048   -1.205418    2.600008
     10          6           0       -3.495097   -0.008787    2.102481
     11          6           0       -3.396256   -1.682987    3.946246
     12          6           0       -1.955123   -2.774218    0.662151
     13          6           0       -1.003741   -3.708706    1.433897
     14          6           0        0.253936   -4.075394    0.636429
     15          8           0        0.474461   -3.521994   -0.451766
     16          8           0        1.018033   -5.036276    1.185669
     17          7           0       -4.908849    2.665213    1.448511
     18          6           0       -3.900375    2.468532    2.460487
     19          6           0       -3.748156    3.601976    3.248334
     20          6           0       -4.500435    4.602389    2.594393
     21          6           0       -5.266487    3.942393    1.468078
     22          6           0       -2.730662    3.755636    4.446308
     23          6           0       -4.625226    6.064754    2.893558
     24          8           0       -4.065025    6.577826    3.797107
     25          7           0       -6.769038    2.615653   -0.681287
     26          6           0       -6.910396    3.908596   -0.328876
     27          6           0       -7.838576    4.671613   -1.211828
     28          6           0       -8.430089    3.696462   -2.078990
     29          6           0       -7.774522    2.405394   -1.715788
     30          6           0       -8.252465    6.067170   -1.223274
     31          6           0       -9.420332    3.892967   -3.168400
     32          6           0       -8.726014    3.972044   -4.535327
     33          7           0       -6.221685   -0.181935   -1.041767
     34          6           0       -7.220472   -0.005889   -1.997470
     35          6           0       -7.556279   -1.252049   -2.651240
     36          6           0       -6.631151   -2.204923   -2.134068
     37          6           0       -5.851191   -1.431373   -1.071769
     38          6           0       -8.567369   -1.503930   -3.789765
     39          6           0       -6.149347   -3.458917   -1.981448
     40          8           0       -6.544652   -4.450860   -2.553908
     41          6           0       -4.965245   -3.519888   -0.957329
     42          6           0       -5.261590   -4.674363    0.061412
     43          8           0       -5.746453   -4.516176    1.133656
     44          8           0       -4.873151   -5.886281   -0.426210
     45          6           0       -5.393106   -6.986842    0.326395
     46          6           0        2.317575   -5.245327    0.529834
     47          6           0        3.365360   -4.330091    0.933881
     48          6           0        4.024872   -3.333766    0.219463
     49          6           0        3.830706   -3.207732   -1.299453
     50          6           0        5.163163   -2.534882    0.858376
     51          6           0        6.514774   -2.837338    0.130529
     52          6           0        7.567805   -1.910489    0.634099
     53          6           0        8.961465   -2.055479   -0.036902
     54          6           0        9.501156   -3.415382    0.428514
     55          6           0        9.935206   -0.945219    0.244532
     56          6           0       11.281700   -1.003046   -0.426467
     57          6           0       12.097153    0.208464   -0.021183
     58          6           0       13.476525    0.457967   -0.672349
     59          6           0       14.539965   -0.709525   -0.533616
     60          6           0       14.184848    1.807519   -0.080601
     61          6           0       15.322902    2.303380   -0.974182
     62          6           0       15.822418    3.726365   -0.557098
     63          6           0       17.101460    4.108406   -1.317542
     64          6           0       17.052325    4.326384   -2.881438
     65          6           0       17.680621    5.405442   -0.689911
     66          1           0       -2.892436    1.021579    3.833475
     67          1           0       -6.254933    5.554831    0.857450
     68          1           0       -8.839682    0.945214   -3.161206
     69          1           0       -3.534882   -3.249001    2.033627
     70          1           0       -1.819688   -1.151561    2.667999
     71          1           0       -2.885233   -2.546193    4.491844
     72          1           0       -3.338161   -0.993736    4.722999
     73          1           0       -4.518961   -1.461073    3.786298
     74          1           0       -2.354669   -3.225193   -0.421841
     75          1           0       -1.443030   -1.755269    0.281955
     76          1           0       -0.638656   -3.182816    2.343942
     77          1           0       -1.812382   -4.569581    1.711360
     78          1           0       -1.799008    3.407469    4.227771
     79          1           0       -2.976467    4.882628    4.774136
     80          1           0       -2.943914    3.068973    5.267050
     81          1           0       -5.231000    6.604606    2.084034
     82          1           0      -10.145484    3.033087   -3.360687
     83          1           0       -9.987608    4.737167   -2.922872
     84          1           0       -9.425695    4.031102   -5.417917
     85          1           0       -8.215623    4.953147   -4.524925
     86          1           0       -8.108660    3.226793   -4.772733
     87          1           0       -8.188791   -1.084987   -4.764205
     88          1           0       -8.718726   -2.612069   -3.935468
     89          1           0       -9.506637   -1.150962   -3.308525
     90          1           0       -4.053401   -3.791812   -1.526824
     91          1           0        2.559498   -6.400249    0.807107
     92          1           0        2.327366   -5.057279   -0.564257
     93          1           0        3.650768   -4.424393    2.070395
     94          1           0        2.775559   -3.398934   -1.779356
     95          1           0        3.948727   -2.191780   -1.585000
     96          1           0        4.681042   -3.638898   -1.841077
     97          1           0        4.722596   -1.606617    0.520744
     98          1           0        5.221289   -2.491938    1.862678
     99          1           0        6.792139   -3.883900    0.514835
    100          1           0        6.372304   -2.852907   -1.036903
    101          1           0        7.262216   -0.789957    0.271509
    102          1           0        7.668246   -1.987391    1.782166
    103          1           0        8.874173   -2.076237   -1.197911
    104          1           0        8.961358   -4.451677    0.056739
    105          1           0       10.488243   -3.678257   -0.260577
    106          1           0        9.857478   -3.418647    1.655783
    107          1           0        9.404205    0.014778    0.207770
    108          1           0        9.988843   -0.839740    1.428191
    109          1           0       11.755220   -1.814516    0.058429
    110          1           0       11.090766   -1.105996   -1.646502
    111          1           0       11.454159    1.096508   -0.094200
    112          1           0       12.241425    0.259644    1.072780
    113          1           0       13.333991    0.543987   -1.728645
    114          1           0       14.624919   -1.033658    0.594900
    115          1           0       14.190518   -1.786566   -1.581099
    116          1           0       15.514512   -0.382850   -0.866983
    117          1           0       13.379664    2.516817   -0.435545
    118          1           0       14.425975    1.813902    1.045082
    119          1           0       15.980480    1.561054   -0.860420
    120          1           0       14.883061    2.189726   -2.000538
    121          1           0       14.933498    4.454074   -0.932618
    122          1           0       15.784342    3.858437    0.488947
    123          1           0       17.905741    3.319689   -1.059267
    124          1           0       16.539773    5.141707   -2.979568
    125          1           0       18.015785    4.330152   -3.297758
    126          1           0       16.457657    3.408509   -3.189281
    127          1           0       17.971275    5.186667    0.382447
    128          1           0       18.555125    5.760591   -1.301491
    129          1           0       16.934130    6.292837   -0.730571
    130          1           0       -4.703202   -7.688708   -0.103582
    131          1           0       -6.475614   -7.148869    0.262062
    132          1           0       -5.134306   -6.747510    1.458882
    133          8           0       -7.880046    7.015847   -0.440358
    134          1           0       -9.010853    6.301066   -2.092240
 ---------------------------------------------------------------------

 SCF Done:  E(RCAM-B3LYP) =  -3043.41574018     A.U. after   16 cycles

 Excitation energies and oscillator strengths:

 Excited State   1:      Singlet-A      1.9210 eV  645.42 nm  f=0.2278  <S**2>=0.000
     243 -> 246       -0.18755
     244 -> 245        0.67669
 This state for optimization and/or second-order correction.
 Total Energy, E(TD-HF/TD-KS) =  -3043.34514489
 Copying the excited state density for this state as the 1-particle RhoCI density.

 The electronic state is 1-A.
 Alpha  occ. eigenvalues --  -46.80757 -19.22890 -19.21895 -19.18032 -19.17492
 Alpha  occ. eigenvalues --  -19.17042 -19.16694 -19.14792 -14.39301 -14.38031
 Alpha  occ. eigenvalues --  -14.37077 -14.36917 -10.35252 -10.34787 -10.31365
 Alpha  occ. eigenvalues --  -10.30929 -10.29161 -10.28342 -10.28117 -10.27543
 Alpha  occ. eigenvalues --  -10.27351 -10.27057 -10.26942 -10.26919 -10.26731
 Alpha  occ. eigenvalues --  -10.26654 -10.26455 -10.26442 -10.25864 -10.25784
 Alpha  occ. eigenvalues --  -10.25354 -10.25006 -10.24740 -10.24709 -10.24551
 Alpha  occ. eigenvalues --  -10.24480 -10.24451 -10.24276 -10.24184 -10.24143
 Alpha  occ. eigenvalues --  -10.24014 -10.23990 -10.23694 -10.23266 -10.23083
 Alpha  occ. eigenvalues --  -10.22902 -10.22896 -10.22855 -10.22781 -10.22708
 Alpha  occ. eigenvalues --  -10.22535 -10.22382 -10.22317 -10.22024 -10.22007
 Alpha  occ. eigenvalues --  -10.21897 -10.21893 -10.21878 -10.21752 -10.21604
 Alpha  occ. eigenvalues --  -10.21511 -10.21425 -10.20955 -10.20894 -10.20101
 Alpha  occ. eigenvalues --  -10.19303  -3.09665  -1.84571  -1.84135  -1.84112
 Alpha  occ. eigenvalues --   -1.13740  -1.12610  -1.09546  -1.05935  -1.05661
 Alpha  occ. eigenvalues --   -1.03456  -1.02869  -1.00567  -0.99901  -0.98833
 Alpha  occ. eigenvalues --   -0.98108  -0.89247  -0.86347  -0.86257  -0.85259
 Alpha  occ. eigenvalues --   -0.85122  -0.84794  -0.84226  -0.83908  -0.83709
 Alpha  occ. eigenvalues --   -0.82590  -0.82360  -0.81219  -0.80459  -0.79445
 Alpha  occ. eigenvalues --   -0.79350  -0.78713  -0.78352  -0.76917  -0.76562
 Alpha  occ. eigenvalues --   -0.75014  -0.74775  -0.73698  -0.72879  -0.72454
 Alpha  occ. eigenvalues --   -0.71534  -0.71118  -0.70676  -0.69778  -0.69208
 Alpha  occ. eigenvalues --   -0.68714  -0.68645  -0.67707  -0.67422  -0.66002
 Alpha  occ. eigenvalues --   -0.65576  -0.64492  -0.64020  -0.62440  -0.62160
 Alpha  occ. eigenvalues --   -0.60966  -0.60866  -0.60119  -0.58788  -0.58738
 Alpha  occ. eigenvalues --   -0.58578  -0.58104  -0.58002  -0.57195  -0.57111
 Alpha  occ. eigenvalues --   -0.56288  -0.55796  -0.55272  -0.54815  -0.54391
 Alpha  occ. eigenvalues --   -0.54057  -0.53235  -0.52651  -0.52219  -0.51967
 Alpha  occ. eigenvalues --   -0.51635  -0.51508  -0.51024  -0.50710  -0.50432
 Alpha  occ. eigenvalues --   -0.50267  -0.50114  -0.49979  -0.49417  -0.48902
 Alpha  occ. eigenvalues --   -0.48822  -0.48789  -0.48302  -0.48221  -0.47665
 Alpha  occ. eigenvalues --   -0.47548  -0.47419  -0.47228  -0.47059  -0.46900
 Alpha  occ. eigenvalues --   -0.46615  -0.46579  -0.46037  -0.45999  -0.45737
 Alpha  occ. eigenvalues --   -0.45348  -0.45155  -0.45110  -0.44677  -0.44575
 Alpha  occ. eigenvalues --   -0.44270  -0.44205  -0.44112  -0.43868  -0.43563
 Alpha  occ. eigenvalues --   -0.43531  -0.43376  -0.43203  -0.42842  -0.42758
 Alpha  occ. eigenvalues --   -0.42491  -0.42428  -0.42367  -0.42121  -0.41794
 Alpha  occ. eigenvalues --   -0.41752  -0.41364  -0.41174  -0.41060  -0.40968
 Alpha  occ. eigenvalues --   -0.40468  -0.40428  -0.40276  -0.40162  -0.39903
 Alpha  occ. eigenvalues --   -0.39749  -0.39549  -0.39470  -0.39177  -0.39141
 Alpha  occ. eigenvalues --   -0.38981  -0.38578  -0.38475  -0.38443  -0.38066
 Alpha  occ. eigenvalues --   -0.37844  -0.37660  -0.37421  -0.37321  -0.37069
 Alpha  occ. eigenvalues --   -0.36574  -0.36286  -0.35924  -0.35877  -0.35567
 Alpha  occ. eigenvalues --   -0.35564  -0.35418  -0.35051  -0.34555  -0.34263
 Alpha  occ. eigenvalues --   -0.33874  -0.33843  -0.33745  -0.33180  -0.33097
 Alpha  occ. eigenvalues --   -0.32904  -0.32578  -0.32184  -0.31709  -0.31464
 Alpha  occ. eigenvalues --   -0.31407  -0.31038  -0.30317  -0.30180  -0.30123
 Alpha  occ. eigenvalues --   -0.28872  -0.28497  -0.28208  -0.27926  -0.27867
 Alpha  occ. eigenvalues --   -0.26724  -0.26595  -0.23987  -0.21710
 Alpha virt. eigenvalues --   -0.09449  -0.06849  -0.01556  -0.00827   0.00838
 Alpha virt. eigenvalues --    0.02444   0.03250   0.03509   0.03978   0.04201
 Alpha virt. eigenvalues --    0.04729   0.05582   0.05852   0.07589   0.08313

 Mulliken charges:
               1
     1  Mg   0.846801
     2  C    0.208514
     3  C   -0.191715
     4  C   -0.135636
     5  C   -0.173494
     6  N   -0.640476
     7  C    0.239218
     8  C   -0.142310
     9  C   -0.152424
    10  C    0.352136
    11  C   -0.324978
    12  C   -0.156740
    13  C   -0.258967
    14  C    0.612321
    15  O   -0.474709
    16  O   -0.453282
    17  N   -0.772441
    18  C    0.288734
    19  C    0.051848
    20  C   -0.085226
    21  C    0.334082
    22  C   -0.375935
    23  C    0.257286
    24  O   -0.392461
    25  N   -0.701796
    26  C    0.358062
    27  C    0.012128
    28  C    0.043640
    29  C    0.248087
    30  C    0.219181
    31  C   -0.256164
    32  C   -0.312305
    33  N   -0.690630
    34  C    0.285317
    35  C    0.000449
    36  C    0.103731
    37  C    0.216201
    38  C   -0.373426
    39  C    0.290886
    40  O   -0.481106
    41  C   -0.339719
    42  C    0.618124
    43  O   -0.451523
    44  O   -0.449368
    45  C   -0.089064
    46  C   -0.004735
    47  C   -0.115621
    48  C    0.106110
    49  C   -0.399505
    50  C   -0.201851
    51  C   -0.164968
    52  C   -0.150135
    53  C   -0.038905
    54  C   -0.288015
    55  C   -0.171041
    56  C   -0.146008
    57  C   -0.178918
    58  C   -0.060741
    59  C   -0.261633
    60  C   -0.205029
    61  C   -0.174220
    62  C   -0.158078
    63  C   -0.059410
    64  C   -0.304352
    65  C   -0.306958
    66  H    0.100410
    67  H    0.107136
    68  H    0.103352
    69  H    0.120768
    70  H    0.110568
    71  H    0.120396
    72  H    0.110442
    73  H    0.117194
    74  H    0.091815
    75  H    0.098661
    76  H    0.132195
    77  H    0.121011
    78  H    0.139062
    79  H    0.156168
    80  H    0.117884
    81  H    0.081065
    82  H    0.111022
    83  H    0.122041
    84  H    0.102912
    85  H    0.113676
    86  H    0.130798
    87  H    0.138105
    88  H    0.149812
    89  H    0.127996
    90  H    0.160039
    91  H    0.102893
    92  H    0.129656
    93  H    0.058443
    94  H    0.145701
    95  H    0.116256
    96  H    0.126842
    97  H    0.110894
    98  H    0.106714
    99  H    0.101363
   100  H    0.087356
   101  H    0.063059
   102  H    0.087276
   103  H    0.073837
   104  H    0.090619
   105  H    0.075600
   106  H    0.076184
   107  H    0.088224
   108  H    0.061007
   109  H    0.125154
   110  H    0.068963
   111  H    0.087649
   112  H    0.087752
   113  H    0.094337
   114  H    0.094150
   115  H   -0.001040
   116  H    0.120686
   117  H    0.093200
   118  H    0.085554
   119  H    0.101866
   120  H    0.091909
   121  H    0.064474
   122  H    0.105328
   123  H    0.074327
   124  H    0.119774
   125  H    0.115020
   126  H    0.093383
   127  H    0.093360
   128  H    0.090808
   129  H    0.085919
   130  H    0.130759
   131  H    0.141051
   132  H    0.113769
   133  O   -0.455197
   134  H    0.063748
 Sum of Mulliken charges =   0.00000

 Dipole moment (field-independent basis, Debye):
    X=              2.7798    Y=             -3.1043    Z=             -0.4098  Tot=              4.1872
 Quadrupole moment (field-independent basis, Debye-Ang):
   XX=           -370.3069   YY=           -457.3056   ZZ=           -386.2455
   XY=             13.9896   XZ=             24.6602   YZ=            -32.5539

 Normal termination of Gaussian 09 at Fri Oct  4 02:44:20 2019.
