 Gaussian 09, Revision D.01,
 Gaussian 09:  ES64L-G09RevD.01 24-Apr-2013

 ----------------------------------------------------------------------
 # td=(NStates=1) iop(3/107=0140000000,3/108=0140000000) iop(3/107=0140
 000000,3/108=0140000000) CAM-B3LYP/6-31G(d,p)
 ----------------------------------------------------------------------

 --
 TD
 --
 Symbolic Z-matrix:
 Charge =  0 Multiplicity = 1

                         Standard orientation:
 ---------------------------------------------------------------------
 Center     Atomic      Atomic             Coordinates (Angstroms)
 Number     Number       Type             X           Y           Z
 ---------------------------------------------------------------------
      1         12           0       -5.495338    1.289050    0.178089
      2          6           0       -5.009322   -2.082873   -0.313530
      3          6           0       -3.217076    1.306361    2.684107
      4          6           0       -6.084916    4.679259    0.653253
      5          6           0       -7.827284    1.224522   -2.405594
      6          7           0       -4.302478   -0.175815    0.988772
      7          6           0       -4.237659   -1.602736    0.697600
      8          6           0       -3.193438   -2.263836    1.498679
      9          6           0       -2.891697   -1.342684    2.637625
     10          6           0       -3.508352   -0.031268    2.148245
     11          6           0       -3.465613   -1.950650    3.934690
     12          6           0       -1.936489   -2.787288    0.607694
     13          6           0       -0.993017   -3.644861    1.421122
     14          6           0        0.242357   -3.991456    0.586590
     15          8           0        0.463242   -3.789194   -0.548616
     16          8           0        1.028775   -4.823425    1.275622
     17          7           0       -4.821714    2.704031    1.552589
     18          6           0       -3.817589    2.428782    2.439335
     19          6           0       -3.666197    3.687877    3.188112
     20          6           0       -4.411241    4.663222    2.577365
     21          6           0       -5.116899    4.031846    1.544291
     22          6           0       -2.666691    3.865144    4.343123
     23          6           0       -4.513494    6.089237    2.872673
     24          8           0       -3.805852    6.690396    3.758021
     25          7           0       -6.778881    2.632072   -0.654136
     26          6           0       -6.853708    3.972833   -0.344947
     27          6           0       -7.826186    4.641062   -1.244390
     28          6           0       -8.359177    3.685419   -2.048803
     29          6           0       -7.594295    2.427441   -1.739188
     30          6           0       -8.354992    5.998288   -1.178614
     31          6           0       -9.297126    3.809064   -3.112464
     32          6           0       -8.868812    3.886691   -4.540717
     33          7           0       -6.261820   -0.121405   -1.139124
     34          6           0       -7.232229   -0.037363   -2.155404
     35          6           0       -7.596807   -1.330884   -2.656009
     36          6           0       -6.672873   -2.186233   -2.012892
     37          6           0       -6.003049   -1.378262   -1.149260
     38          6           0       -8.632944   -1.607906   -3.731356
     39          6           0       -6.153277   -3.522772   -2.019361
     40          8           0       -6.624721   -4.457656   -2.693786
     41          6           0       -5.026798   -3.519011   -0.920680
     42          6           0       -5.292550   -4.567096    0.274767
     43          8           0       -5.732349   -4.305827    1.339849
     44          8           0       -5.124001   -5.784243   -0.256466
     45          6           0       -5.434229   -6.879421    0.639584
     46          6           0        2.271818   -5.253474    0.718053
     47          6           0        3.445863   -4.295676    0.927134
     48          6           0        3.963492   -3.373642    0.088951
     49          6           0        3.711593   -3.137748   -1.354201
     50          6           0        5.105060   -2.486065    0.611497
     51          6           0        6.543693   -2.786929    0.093972
     52          6           0        7.558932   -1.838868    0.554056
     53          6           0        8.947029   -2.038096   -0.018788
     54          6           0        9.578743   -3.497167    0.217227
     55          6           0        9.866356   -0.936894    0.364136
     56          6           0       11.248384   -0.881483   -0.318474
     57          6           0       12.119322    0.315847    0.106049
     58          6           0       13.421599    0.446326   -0.690883
     59          6           0       14.298220   -0.758869   -0.540582
     60          6           0       14.135201    1.715042   -0.194160
     61          6           0       15.504043    2.081575   -1.022198
     62          6           0       15.840406    3.587216   -0.527889
     63          6           0       17.147149    4.066225   -1.329345
     64          6           0       16.920082    4.167909   -2.791437
     65          6           0       17.605512    5.341606   -0.679608
     66          1           0       -2.473284    1.338082    3.351973
     67          1           0       -6.434707    5.736993    0.785968
     68          1           0       -8.661624    1.123122   -3.091524
     69          1           0       -3.707285   -3.119480    1.883699
     70          1           0       -1.880045   -1.134559    2.749936
     71          1           0       -2.807040   -2.873812    4.256114
     72          1           0       -3.536174   -1.066466    4.695220
     73          1           0       -4.469625   -2.229269    3.633762
     74          1           0       -2.280797   -3.477792   -0.191608
     75          1           0       -1.581025   -1.971126    0.045514
     76          1           0       -0.556056   -3.105144    2.334093
     77          1           0       -1.566276   -4.652472    1.750803
     78          1           0       -1.558742    3.562195    4.071222
     79          1           0       -2.945259    4.846232    4.769600
     80          1           0       -3.139183    3.284325    5.111095
     81          1           0       -5.321189    6.626970    2.156778
     82          1           0      -10.084514    2.998289   -3.104049
     83          1           0       -9.862584    4.790684   -2.854630
     84          1           0       -9.683311    3.721279   -5.269784
     85          1           0       -8.063755    4.671104   -4.953744
     86          1           0       -8.292304    2.858888   -4.782266
     87          1           0       -8.655932   -0.985317   -4.651668
     88          1           0       -8.360116   -2.804052   -4.020074
     89          1           0       -9.587227   -1.528980   -3.161978
     90          1           0       -4.072172   -3.684362   -1.476818
     91          1           0        2.545107   -6.180778    1.194942
     92          1           0        2.098131   -5.334496   -0.320159
     93          1           0        3.695742   -4.540367    1.936746
     94          1           0        2.724871   -3.392687   -1.624006
     95          1           0        3.714759   -2.195307   -1.681110
     96          1           0        4.254083   -3.817297   -1.821176
     97          1           0        5.042939   -1.445775    0.385498
     98          1           0        5.263668   -2.602064    1.703782
     99          1           0        6.688790   -3.936530    0.280499
    100          1           0        6.641761   -2.674686   -1.018867
    101          1           0        6.973191   -0.804072    0.428035
    102          1           0        7.508430   -1.965609    1.637764
    103          1           0        8.954008   -1.819246   -1.064832
    104          1           0        9.171195   -4.317462   -0.275891
    105          1           0       10.663748   -3.666204   -0.311315
    106          1           0        9.608739   -3.928614    1.258507
    107          1           0        9.319993   -0.043842    0.398659
    108          1           0       10.068686   -0.958301    1.604689
    109          1           0       11.720864   -1.791322   -0.310796
    110          1           0       10.957667   -0.744818   -1.268540
    111          1           0       11.242039    1.221332    0.175959
    112          1           0       12.346736    0.358838    0.950166
    113          1           0       13.320246    0.775824   -1.820274
    114          1           0       14.544060   -1.087475    0.484244
    115          1           0       13.908145   -1.663046   -0.951014
    116          1           0       15.397038   -0.685321   -0.985449
    117          1           0       13.475995    2.525473   -0.235731
    118          1           0       14.395226    1.862431    0.821138
    119          1           0       16.334803    1.502269   -0.632899
    120          1           0       15.259025    2.007427   -1.974819
    121          1           0       15.003314    4.212631   -1.030721
    122          1           0       16.013695    3.741510    0.556964
    123          1           0       17.855170    3.310622   -1.089466
    124          1           0       16.395316    4.933081   -3.109667
    125          1           0       18.000979    4.325511   -3.420123
    126          1           0       16.590590    3.270175   -3.305552
    127          1           0       18.113996    5.129959    0.378558
    128          1           0       18.413877    5.925775   -1.286240
    129          1           0       16.805102    6.013979   -0.722025
    130          1           0       -5.262600   -7.538873   -0.072859
    131          1           0       -6.498875   -6.888322    0.785620
    132          1           0       -4.738747   -6.574758    1.562495
    133          8           0       -7.827926    6.830018   -0.399049
    134          1           0       -9.183285    6.290055   -1.761677
 ---------------------------------------------------------------------

 SCF Done:  E(RCAM-B3LYP) =  -3043.42301062     A.U. after   16 cycles

 Excitation energies and oscillator strengths:

 Excited State   1:      Singlet-A      1.9548 eV  634.26 nm  f=0.2324  <S**2>=0.000
     243 -> 246       -0.18447
     244 -> 245        0.67657
 This state for optimization and/or second-order correction.
 Total Energy, E(TD-HF/TD-KS) =  -3043.35117355
 Copying the excited state density for this state as the 1-particle RhoCI density.

 The electronic state is 1-A.
 Alpha  occ. eigenvalues --  -46.81352 -19.22582 -19.21271 -19.18734 -19.17377
 Alpha  occ. eigenvalues --  -19.17135 -19.17074 -19.16347 -14.39694 -14.37463
 Alpha  occ. eigenvalues --  -14.36043 -14.35863 -10.35626 -10.34790 -10.31242
 Alpha  occ. eigenvalues --  -10.30826 -10.30438 -10.29390 -10.27373 -10.27366
 Alpha  occ. eigenvalues --  -10.26745 -10.26651 -10.26419 -10.26250 -10.26026
 Alpha  occ. eigenvalues --  -10.25773 -10.25416 -10.25173 -10.24693 -10.24600
 Alpha  occ. eigenvalues --  -10.24523 -10.24480 -10.24466 -10.24406 -10.24290
 Alpha  occ. eigenvalues --  -10.24245 -10.24133 -10.24092 -10.23827 -10.23823
 Alpha  occ. eigenvalues --  -10.23694 -10.23631 -10.23552 -10.23103 -10.22551
 Alpha  occ. eigenvalues --  -10.22504 -10.22330 -10.22229 -10.22226 -10.21787
 Alpha  occ. eigenvalues --  -10.21695 -10.21637 -10.21353 -10.21339 -10.21310
 Alpha  occ. eigenvalues --  -10.20907 -10.20859 -10.20666 -10.20610 -10.20544
 Alpha  occ. eigenvalues --  -10.20108 -10.20026 -10.19983 -10.19195 -10.18950
 Alpha  occ. eigenvalues --  -10.18534  -3.09912  -1.84860  -1.84387  -1.84312
 Alpha  occ. eigenvalues --   -1.14997  -1.14962  -1.07188  -1.05813  -1.05096
 Alpha  occ. eigenvalues --   -1.04758  -1.03043  -1.01220  -1.00096  -0.98979
 Alpha  occ. eigenvalues --   -0.97773  -0.87580  -0.86550  -0.86510  -0.86224
 Alpha  occ. eigenvalues --   -0.85425  -0.84991  -0.84405  -0.83424  -0.83347
 Alpha  occ. eigenvalues --   -0.83070  -0.82821  -0.82278  -0.80702  -0.79602
 Alpha  occ. eigenvalues --   -0.79325  -0.78526  -0.77831  -0.77628  -0.77273
 Alpha  occ. eigenvalues --   -0.75200  -0.74911  -0.74114  -0.72689  -0.72313
 Alpha  occ. eigenvalues --   -0.71624  -0.71198  -0.71171  -0.70215  -0.69366
 Alpha  occ. eigenvalues --   -0.69261  -0.68904  -0.67832  -0.66904  -0.66602
 Alpha  occ. eigenvalues --   -0.65955  -0.65548  -0.64008  -0.62882  -0.62410
 Alpha  occ. eigenvalues --   -0.61499  -0.60753  -0.60250  -0.60012  -0.59366
 Alpha  occ. eigenvalues --   -0.58907  -0.58730  -0.58402  -0.57837  -0.57222
 Alpha  occ. eigenvalues --   -0.57018  -0.56153  -0.55694  -0.55199  -0.54893
 Alpha  occ. eigenvalues --   -0.54494  -0.53743  -0.52955  -0.52616  -0.52533
 Alpha  occ. eigenvalues --   -0.52057  -0.51918  -0.51486  -0.51353  -0.50662
 Alpha  occ. eigenvalues --   -0.50592  -0.50200  -0.49886  -0.49706  -0.49416
 Alpha  occ. eigenvalues --   -0.49021  -0.48850  -0.48285  -0.48035  -0.47848
 Alpha  occ. eigenvalues --   -0.47837  -0.47696  -0.47672  -0.46986  -0.46954
 Alpha  occ. eigenvalues --   -0.46517  -0.46196  -0.46060  -0.45850  -0.45709
 Alpha  occ. eigenvalues --   -0.45467  -0.45250  -0.45054  -0.44854  -0.44666
 Alpha  occ. eigenvalues --   -0.44499  -0.44345  -0.44294  -0.44130  -0.43988
 Alpha  occ. eigenvalues --   -0.43752  -0.43316  -0.43194  -0.43174  -0.43088
 Alpha  occ. eigenvalues --   -0.42854  -0.42679  -0.42502  -0.42405  -0.41762
 Alpha  occ. eigenvalues --   -0.41552  -0.41320  -0.41269  -0.41129  -0.40895
 Alpha  occ. eigenvalues --   -0.40869  -0.40485  -0.40316  -0.40039  -0.39789
 Alpha  occ. eigenvalues --   -0.39704  -0.39596  -0.39421  -0.39165  -0.38786
 Alpha  occ. eigenvalues --   -0.38727  -0.38421  -0.38256  -0.38240  -0.37861
 Alpha  occ. eigenvalues --   -0.37744  -0.37615  -0.37473  -0.37392  -0.37373
 Alpha  occ. eigenvalues --   -0.37266  -0.36988  -0.36368  -0.36176  -0.35999
 Alpha  occ. eigenvalues --   -0.35545  -0.35288  -0.35075  -0.34845  -0.34448
 Alpha  occ. eigenvalues --   -0.34316  -0.34287  -0.34034  -0.33911  -0.33490
 Alpha  occ. eigenvalues --   -0.33095  -0.32700  -0.32005  -0.31945  -0.31723
 Alpha  occ. eigenvalues --   -0.31687  -0.31460  -0.31192  -0.29328  -0.29203
 Alpha  occ. eigenvalues --   -0.28976  -0.28164  -0.27812  -0.27660  -0.27492
 Alpha  occ. eigenvalues --   -0.27470  -0.27223  -0.23215  -0.21059
 Alpha virt. eigenvalues --   -0.08682  -0.06064  -0.02146  -0.01204  -0.00096
 Alpha virt. eigenvalues --    0.02904   0.03112   0.03554   0.03960   0.04141
 Alpha virt. eigenvalues --    0.04591   0.05698   0.07708   0.07963   0.09122

 Mulliken charges:
               1
     1  Mg   0.815921
     2  C    0.041825
     3  C   -0.201680
     4  C   -0.190696
     5  C   -0.173893
     6  N   -0.609217
     7  C    0.274495
     8  C   -0.155479
     9  C   -0.133893
    10  C    0.312142
    11  C   -0.301217
    12  C   -0.173791
    13  C   -0.263174
    14  C    0.594962
    15  O   -0.444184
    16  O   -0.460461
    17  N   -0.739996
    18  C    0.394845
    19  C   -0.011937
    20  C    0.024837
    21  C    0.316322
    22  C   -0.378276
    23  C    0.231213
    24  O   -0.445781
    25  N   -0.694595
    26  C    0.299266
    27  C   -0.027364
    28  C    0.083322
    29  C    0.293044
    30  C    0.240566
    31  C   -0.260884
    32  C   -0.300380
    33  N   -0.699400
    34  C    0.233205
    35  C    0.011405
    36  C    0.061829
    37  C    0.321947
    38  C   -0.380939
    39  C    0.345955
    40  O   -0.480874
    41  C   -0.325436
    42  C    0.607070
    43  O   -0.442753
    44  O   -0.444801
    45  C   -0.081621
    46  C    0.004697
    47  C   -0.155448
    48  C    0.126993
    49  C   -0.375422
    50  C   -0.228218
    51  C   -0.171958
    52  C   -0.168734
    53  C   -0.033277
    54  C   -0.326652
    55  C   -0.172545
    56  C   -0.179208
    57  C   -0.122101
    58  C   -0.052653
    59  C   -0.316879
    60  C   -0.196548
    61  C   -0.179936
    62  C   -0.188220
    63  C   -0.039304
    64  C   -0.304660
    65  C   -0.302874
    66  H    0.069193
    67  H    0.147866
    68  H    0.085683
    69  H    0.122987
    70  H    0.113656
    71  H    0.112095
    72  H    0.101943
    73  H    0.140926
    74  H    0.116599
    75  H    0.129642
    76  H    0.127460
    77  H    0.129804
    78  H    0.122715
    79  H    0.160074
    80  H    0.126503
    81  H    0.086628
    82  H    0.117147
    83  H    0.093566
    84  H    0.120235
    85  H    0.110540
    86  H    0.084156
    87  H    0.128807
    88  H    0.132986
    89  H    0.133571
    90  H    0.155922
    91  H    0.109841
    92  H    0.117267
    93  H    0.087725
    94  H    0.140760
    95  H    0.120779
    96  H    0.141943
    97  H    0.095029
    98  H    0.093600
    99  H    0.078699
   100  H    0.081081
   101  H    0.073750
   102  H    0.095000
   103  H    0.092224
   104  H    0.116260
   105  H    0.076551
   106  H    0.105753
   107  H    0.096803
   108  H    0.029844
   109  H    0.102823
   110  H    0.103706
   111  H    0.042006
   112  H    0.100338
   113  H    0.069721
   114  H    0.103658
   115  H    0.107001
   116  H    0.088960
   117  H    0.093880
   118  H    0.084384
   119  H    0.100768
   120  H    0.103395
   121  H    0.079479
   122  H    0.095862
   123  H    0.088504
   124  H    0.117291
   125  H    0.056088
   126  H    0.107321
   127  H    0.084512
   128  H    0.078551
   129  H    0.110246
   130  H    0.144902
   131  H    0.141016
   132  H    0.122098
   133  O   -0.441204
   134  H    0.092578
 Sum of Mulliken charges =   0.00000

 Dipole moment (field-independent basis, Debye):
    X=              1.4212    Y=             -5.6251    Z=             -0.8165  Tot=              5.8590
 Quadrupole moment (field-independent basis, Debye-Ang):
   XX=           -381.7175   YY=           -441.4307   ZZ=           -395.3505
   XY=             -0.7695   XZ=             17.7414   YZ=            -40.7714

 Normal termination of Gaussian 09 at Tue Oct  8 10:06:27 2019.
