 Gaussian 09, Revision D.01,
 Gaussian 09:  ES64L-G09RevD.01 24-Apr-2013

 ----------------------------------------------------------------------
 # td=(NStates=1) iop(3/107=0140000000,3/108=0140000000) iop(3/107=0140
 000000,3/108=0140000000) CAM-B3LYP/6-31G(d,p)
 ----------------------------------------------------------------------

 --
 TD
 --
 Symbolic Z-matrix:
 Charge =  0 Multiplicity = 1

                         Standard orientation:
 ---------------------------------------------------------------------
 Center     Atomic      Atomic             Coordinates (Angstroms)
 Number     Number       Type             X           Y           Z
 ---------------------------------------------------------------------
      1         12           0       -5.614655    1.169517    0.233588
      2          6           0       -4.890031   -2.106554   -0.488991
      3          6           0       -3.460903    1.274922    2.695588
      4          6           0       -6.361349    4.527239    0.702471
      5          6           0       -8.095751    1.088049   -2.370610
      6          7           0       -4.364239   -0.313512    0.992653
      7          6           0       -4.270234   -1.613495    0.672930
      8          6           0       -3.132746   -2.309800    1.546380
      9          6           0       -2.755321   -1.283981    2.639226
     10          6           0       -3.517780   -0.003836    2.019936
     11          6           0       -3.344939   -1.607565    4.034674
     12          6           0       -1.861957   -2.709936    0.735329
     13          6           0       -0.905254   -3.621815    1.478091
     14          6           0        0.302266   -3.868545    0.608776
     15          8           0        0.475164   -3.576824   -0.529666
     16          8           0        1.164268   -4.728987    1.344840
     17          7           0       -4.890802    2.653798    1.414771
     18          6           0       -3.961315    2.507821    2.383386
     19          6           0       -3.692804    3.716189    3.043808
     20          6           0       -4.618405    4.693843    2.458142
     21          6           0       -5.281516    4.024701    1.351198
     22          6           0       -2.763147    4.014168    4.065242
     23          6           0       -4.739624    6.166916    2.851212
     24          8           0       -4.209587    6.660881    3.812109
     25          7           0       -6.937784    2.619029   -0.673506
     26          6           0       -7.121474    3.913439   -0.318170
     27          6           0       -8.073510    4.558733   -1.212025
     28          6           0       -8.478708    3.592993   -2.033913
     29          6           0       -7.804062    2.288541   -1.628213
     30          6           0       -8.597144    5.909811   -1.111742
     31          6           0       -9.477519    3.745332   -3.173089
     32          6           0       -8.755297    4.091778   -4.628173
     33          7           0       -6.267310   -0.176164   -1.188363
     34          6           0       -7.282771   -0.163529   -2.137295
     35          6           0       -7.539498   -1.449499   -2.692811
     36          6           0       -6.560292   -2.277719   -2.063499
     37          6           0       -5.849700   -1.472611   -1.164921
     38          6           0       -8.405212   -1.860485   -3.808560
     39          6           0       -6.124620   -3.669665   -1.920440
     40          8           0       -6.517413   -4.688753   -2.569338
     41          6           0       -4.909090   -3.632661   -0.912049
     42          6           0       -5.238365   -4.623811    0.177240
     43          8           0       -5.635357   -4.416757    1.306655
     44          8           0       -4.933805   -5.817512   -0.390958
     45          6           0       -5.263298   -7.030676    0.526603
     46          6           0        2.377963   -5.091999    0.627357
     47          6           0        3.413658   -4.099909    0.967712
     48          6           0        4.068643   -3.289247    0.166473
     49          6           0        3.794400   -3.124123   -1.352547
     50          6           0        5.159534   -2.359127    0.708734
     51          6           0        6.652057   -2.784977    0.110378
     52          6           0        7.708988   -1.909981    0.661283
     53          6           0        9.019674   -2.054310    0.109838
     54          6           0        9.590263   -3.434069    0.280044
     55          6           0       10.023938   -0.912397    0.462229
     56          6           0       11.273228   -0.864474   -0.244718
     57          6           0       12.180365    0.345592    0.184992
     58          6           0       13.635205    0.462634   -0.605765
     59          6           0       14.441957   -0.737892   -0.307017
     60          6           0       14.262664    1.779230   -0.278776
     61          6           0       15.461597    2.254595   -1.171454
     62          6           0       15.860538    3.650963   -0.729838
     63          6           0       17.158821    4.080583   -1.396304
     64          6           0       17.081926    4.206849   -2.904068
     65          6           0       17.646814    5.427333   -0.807501
     66          1           0       -2.877990    1.321398    3.663500
     67          1           0       -6.890164    5.693726    1.068075
     68          1           0       -8.669062    1.288846   -3.229900
     69          1           0       -3.811613   -3.124097    2.097010
     70          1           0       -1.624115   -1.067971    2.713635
     71          1           0       -2.686796   -2.562742    4.429262
     72          1           0       -3.361578   -0.815367    4.863300
     73          1           0       -4.345586   -1.828195    3.916607
     74          1           0       -2.140211   -3.456595   -0.125776
     75          1           0       -1.456000   -1.894129    0.132238
     76          1           0       -0.517244   -3.215483    2.436349
     77          1           0       -1.184336   -4.703307    1.851608
     78          1           0       -1.589949    3.837420    3.835677
     79          1           0       -3.024719    4.965186    4.681325
     80          1           0       -2.890524    3.316978    4.935238
     81          1           0       -5.258182    6.943212    2.311068
     82          1           0      -10.137648    2.745853   -3.127079
     83          1           0      -10.194483    4.523930   -2.969746
     84          1           0       -9.379910    3.933758   -5.525044
     85          1           0       -8.429434    5.102749   -4.566488
     86          1           0       -7.878080    3.384841   -4.797390
     87          1           0       -8.370140   -1.262774   -4.789600
     88          1           0       -8.365226   -2.910039   -3.860769
     89          1           0       -9.522657   -1.519361   -3.451888
     90          1           0       -3.981544   -3.882088   -1.514188
     91          1           0        2.564095   -6.058445    1.223265
     92          1           0        2.021354   -5.276757   -0.394514
     93          1           0        3.691513   -4.045849    2.129764
     94          1           0        2.757107   -3.380122   -1.491591
     95          1           0        3.934771   -2.152784   -1.558857
     96          1           0        4.673069   -3.640996   -2.103352
     97          1           0        4.808724   -1.446895    0.269711
     98          1           0        5.159725   -2.419544    1.859045
     99          1           0        6.850844   -3.815054    0.267203
    100          1           0        6.823049   -2.389803   -0.900820
    101          1           0        7.425287   -0.757242    0.630724
    102          1           0        7.734581   -2.258374    1.775152
    103          1           0        8.887640   -1.913661   -0.974454
    104          1           0        8.971670   -4.329486   -0.084681
    105          1           0       10.378032   -3.424718   -0.482457
    106          1           0        9.817519   -3.609882    1.417350
    107          1           0        9.243137    0.064656    0.317113
    108          1           0       10.269108   -0.840224    1.636366
    109          1           0       11.952170   -1.733644   -0.060374
    110          1           0       11.104222   -0.943394   -1.329158
    111          1           0       11.882827    1.400254    0.113596
    112          1           0       12.435828    0.403929    1.417310
    113          1           0       13.252285    0.501226   -1.685412
    114          1           0       14.702791   -0.781941    0.716985
    115          1           0       14.040363   -1.849037   -0.614247
    116          1           0       15.541713   -0.804468   -0.827047
    117          1           0       13.496315    2.639161   -0.453894
    118          1           0       14.503339    1.888806    0.859750
    119          1           0       16.328066    1.433603   -1.035647
    120          1           0       15.205951    1.950832   -2.159170
    121          1           0       15.052423    4.270002   -1.007070
    122          1           0       16.080276    3.542288    0.416981
    123          1           0       18.036300    3.220568   -1.093365
    124          1           0       16.240308    5.032724   -3.012151
    125          1           0       17.938908    4.535923   -3.251622
    126          1           0       16.726732    3.350437   -3.296274
    127          1           0       17.741420    5.440527    0.245676
    128          1           0       18.539559    5.864712   -1.227296
    129          1           0       16.779067    6.147162   -0.847351
    130          1           0       -4.896220   -7.789193    0.049536
    131          1           0       -6.354387   -6.944447    0.890678
    132          1           0       -4.697931   -6.850871    1.525030
    133          8           0       -8.243422    6.712370   -0.270433
    134          1           0       -9.143523    6.161286   -1.935769
 ---------------------------------------------------------------------

 SCF Done:  E(RCAM-B3LYP) =  -3043.45713518     A.U. after   16 cycles

 Excitation energies and oscillator strengths:

 Excited State   1:      Singlet-A      1.9835 eV  625.07 nm  f=0.2041  <S**2>=0.000
     243 -> 246       -0.27607
     244 -> 245        0.64217
 This state for optimization and/or second-order correction.
 Total Energy, E(TD-HF/TD-KS) =  -3043.38424235
 Copying the excited state density for this state as the 1-particle RhoCI density.

 The electronic state is 1-A.
 Alpha  occ. eigenvalues --  -46.81934 -19.22729 -19.20420 -19.18674 -19.17985
 Alpha  occ. eigenvalues --  -19.17896 -19.16512 -19.16503 -14.39555 -14.37178
 Alpha  occ. eigenvalues --  -14.36499 -14.36170 -10.35410 -10.34999 -10.31275
 Alpha  occ. eigenvalues --  -10.30189 -10.29922 -10.28463 -10.28136 -10.27711
 Alpha  occ. eigenvalues --  -10.27194 -10.26832 -10.26730 -10.26318 -10.26072
 Alpha  occ. eigenvalues --  -10.25557 -10.25478 -10.25453 -10.25380 -10.25280
 Alpha  occ. eigenvalues --  -10.25109 -10.24955 -10.24671 -10.24597 -10.24579
 Alpha  occ. eigenvalues --  -10.24515 -10.24481 -10.24129 -10.23748 -10.23589
 Alpha  occ. eigenvalues --  -10.23445 -10.23441 -10.23341 -10.23229 -10.22891
 Alpha  occ. eigenvalues --  -10.22783 -10.22658 -10.22580 -10.22531 -10.22482
 Alpha  occ. eigenvalues --  -10.22432 -10.22216 -10.21960 -10.21913 -10.21868
 Alpha  occ. eigenvalues --  -10.21752 -10.21481 -10.21429 -10.21399 -10.21378
 Alpha  occ. eigenvalues --  -10.21317 -10.21227 -10.21096 -10.20946 -10.19539
 Alpha  occ. eigenvalues --  -10.18815  -3.10381  -1.85330  -1.84861  -1.84771
 Alpha  occ. eigenvalues --   -1.12643  -1.12217  -1.07737  -1.07261  -1.04899
 Alpha  occ. eigenvalues --   -1.04505  -1.03441  -1.00792  -1.00378  -0.99153
 Alpha  occ. eigenvalues --   -0.98284  -0.88256  -0.86963  -0.85570  -0.85159
 Alpha  occ. eigenvalues --   -0.85136  -0.84509  -0.84430  -0.83317  -0.83258
 Alpha  occ. eigenvalues --   -0.82456  -0.82326  -0.81436  -0.80614  -0.79415
 Alpha  occ. eigenvalues --   -0.78356  -0.77683  -0.76997  -0.76784  -0.76504
 Alpha  occ. eigenvalues --   -0.75257  -0.74164  -0.73446  -0.72939  -0.71856
 Alpha  occ. eigenvalues --   -0.71544  -0.70998  -0.70141  -0.69878  -0.69486
 Alpha  occ. eigenvalues --   -0.68912  -0.68564  -0.67947  -0.66948  -0.66350
 Alpha  occ. eigenvalues --   -0.65403  -0.64833  -0.63693  -0.62337  -0.61689
 Alpha  occ. eigenvalues --   -0.61173  -0.60194  -0.59505  -0.58663  -0.58516
 Alpha  occ. eigenvalues --   -0.57706  -0.57650  -0.57515  -0.57213  -0.56811
 Alpha  occ. eigenvalues --   -0.56033  -0.55419  -0.55139  -0.54943  -0.54452
 Alpha  occ. eigenvalues --   -0.54034  -0.53184  -0.52435  -0.52045  -0.51933
 Alpha  occ. eigenvalues --   -0.51565  -0.51171  -0.50872  -0.50540  -0.50423
 Alpha  occ. eigenvalues --   -0.50330  -0.49552  -0.49383  -0.49250  -0.49193
 Alpha  occ. eigenvalues --   -0.48286  -0.48174  -0.48014  -0.47843  -0.47617
 Alpha  occ. eigenvalues --   -0.47384  -0.47238  -0.47126  -0.46855  -0.46598
 Alpha  occ. eigenvalues --   -0.46479  -0.46371  -0.46013  -0.45883  -0.45847
 Alpha  occ. eigenvalues --   -0.45591  -0.45500  -0.45331  -0.45223  -0.44606
 Alpha  occ. eigenvalues --   -0.44352  -0.44230  -0.44206  -0.43865  -0.43442
 Alpha  occ. eigenvalues --   -0.43185  -0.43052  -0.42948  -0.42479  -0.42413
 Alpha  occ. eigenvalues --   -0.42381  -0.42119  -0.41961  -0.41864  -0.41692
 Alpha  occ. eigenvalues --   -0.41395  -0.41135  -0.40921  -0.40882  -0.40784
 Alpha  occ. eigenvalues --   -0.40585  -0.40345  -0.40249  -0.39841  -0.39823
 Alpha  occ. eigenvalues --   -0.39607  -0.39506  -0.39475  -0.39327  -0.39198
 Alpha  occ. eigenvalues --   -0.38869  -0.38771  -0.38616  -0.38550  -0.38378
 Alpha  occ. eigenvalues --   -0.38072  -0.37828  -0.37455  -0.37285  -0.37283
 Alpha  occ. eigenvalues --   -0.36940  -0.36349  -0.36189  -0.35282  -0.35042
 Alpha  occ. eigenvalues --   -0.34966  -0.34764  -0.34758  -0.34382  -0.34364
 Alpha  occ. eigenvalues --   -0.34224  -0.33857  -0.33801  -0.33393  -0.33371
 Alpha  occ. eigenvalues --   -0.32530  -0.32381  -0.32252  -0.32027  -0.31866
 Alpha  occ. eigenvalues --   -0.31692  -0.31239  -0.31180  -0.30023  -0.29879
 Alpha  occ. eigenvalues --   -0.29053  -0.28530  -0.27436  -0.27180  -0.27158
 Alpha  occ. eigenvalues --   -0.26896  -0.26489  -0.22519  -0.21442
 Alpha virt. eigenvalues --   -0.08688  -0.06196  -0.02391  -0.01072   0.00450
 Alpha virt. eigenvalues --    0.03133   0.03376   0.03594   0.04360   0.04583
 Alpha virt. eigenvalues --    0.04708   0.05464   0.07921   0.08582   0.09283

 Mulliken charges:
               1
     1  Mg   0.831006
     2  C    0.008583
     3  C   -0.207912
     4  C   -0.179681
     5  C   -0.160753
     6  N   -0.590611
     7  C    0.270895
     8  C   -0.167803
     9  C   -0.117991
    10  C    0.291933
    11  C   -0.299834
    12  C   -0.181841
    13  C   -0.264116
    14  C    0.608967
    15  O   -0.443938
    16  O   -0.505927
    17  N   -0.722521
    18  C    0.384322
    19  C    0.088870
    20  C   -0.067954
    21  C    0.280552
    22  C   -0.437005
    23  C    0.248704
    24  O   -0.401098
    25  N   -0.674576
    26  C    0.269536
    27  C    0.013307
    28  C   -0.013550
    29  C    0.328919
    30  C    0.270992
    31  C   -0.268189
    32  C   -0.321468
    33  N   -0.713016
    34  C    0.243744
    35  C    0.038198
    36  C    0.022739
    37  C    0.342696
    38  C   -0.376703
    39  C    0.346204
    40  O   -0.484628
    41  C   -0.294707
    42  C    0.638280
    43  O   -0.482746
    44  O   -0.455577
    45  C   -0.089129
    46  C   -0.008819
    47  C   -0.119893
    48  C    0.125176
    49  C   -0.354653
    50  C   -0.226289
    51  C   -0.163789
    52  C   -0.150554
    53  C   -0.055148
    54  C   -0.301881
    55  C   -0.134601
    56  C   -0.172185
    57  C   -0.174538
    58  C   -0.050417
    59  C   -0.290291
    60  C   -0.174369
    61  C   -0.179614
    62  C   -0.149334
    63  C   -0.049404
    64  C   -0.277361
    65  C   -0.314317
    66  H    0.078389
    67  H    0.140427
    68  H    0.101452
    69  H    0.133945
    70  H    0.108266
    71  H    0.087311
    72  H    0.110222
    73  H    0.136402
    74  H    0.105380
    75  H    0.140972
    76  H    0.134797
    77  H    0.146864
    78  H    0.115731
    79  H    0.162597
    80  H    0.113799
    81  H    0.086798
    82  H    0.097242
    83  H    0.116381
    84  H    0.118711
    85  H    0.127497
    86  H    0.114122
    87  H    0.130304
    88  H    0.157737
    89  H    0.096575
    90  H    0.171303
    91  H    0.108763
    92  H    0.129772
    93  H    0.070501
    94  H    0.142032
    95  H    0.119958
    96  H    0.086762
    97  H    0.106942
    98  H    0.090289
    99  H    0.110579
   100  H    0.089087
   101  H    0.067241
   102  H    0.059674
   103  H    0.073813
   104  H    0.093356
   105  H    0.103895
   106  H    0.095727
   107  H    0.055223
   108  H    0.071870
   109  H    0.110846
   110  H    0.092890
   111  H    0.094421
   112  H    0.049679
   113  H    0.079755
   114  H    0.116814
   115  H    0.082874
   116  H    0.070429
   117  H    0.075808
   118  H    0.076521
   119  H    0.068652
   120  H    0.103592
   121  H    0.101264
   122  H    0.092391
   123  H    0.041220
   124  H    0.072842
   125  H    0.113950
   126  H    0.110975
   127  H    0.102541
   128  H    0.101709
   129  H    0.085309
   130  H    0.140941
   131  H    0.148370
   132  H    0.123689
   133  O   -0.421482
   134  H    0.072401
 Sum of Mulliken charges =   0.00000

 Dipole moment (field-independent basis, Debye):
    X=              1.6277    Y=             -3.4011    Z=             -1.1749  Tot=              3.9493
 Quadrupole moment (field-independent basis, Debye-Ang):
   XX=           -379.1871   YY=           -429.3037   ZZ=           -394.7772
   XY=              2.5928   XZ=             16.2930   YZ=            -39.4208

 Normal termination of Gaussian 09 at Tue Oct  8 10:29:07 2019.
