 Gaussian 09, Revision D.01,
 Gaussian 09:  ES64L-G09RevD.01 24-Apr-2013

 ----------------------------------------------------------------------
 # td=(NStates=1) iop(3/107=0140000000,3/108=0140000000) iop(3/107=0140
 000000,3/108=0140000000) CAM-B3LYP/6-31G(d,p)
 ----------------------------------------------------------------------

 --
 TD
 --
 Symbolic Z-matrix:
 Charge =  0 Multiplicity = 1

                         Standard orientation:
 ---------------------------------------------------------------------
 Center     Atomic      Atomic             Coordinates (Angstroms)
 Number     Number       Type             X           Y           Z
 ---------------------------------------------------------------------
      1         12           0       -5.710286    1.250993    0.214181
      2          6           0       -4.925214   -2.177420   -0.324449
      3          6           0       -3.455900    1.214396    2.788526
      4          6           0       -6.306131    4.497145    0.646426
      5          6           0       -7.928736    1.147852   -2.324996
      6          7           0       -4.488813   -0.297489    1.016211
      7          6           0       -4.242572   -1.653383    0.700749
      8          6           0       -3.225666   -2.263430    1.532480
      9          6           0       -2.920730   -1.249236    2.672836
     10          6           0       -3.609927   -0.006109    2.115978
     11          6           0       -3.535251   -1.614508    4.042351
     12          6           0       -2.030682   -2.631897    0.635100
     13          6           0       -0.943087   -3.523003    1.471297
     14          6           0        0.228694   -3.881713    0.602192
     15          8           0        0.465732   -3.446686   -0.565179
     16          8           0        1.166314   -4.656612    1.296625
     17          7           0       -5.021778    2.634390    1.541462
     18          6           0       -4.074539    2.429434    2.504336
     19          6           0       -3.822738    3.615204    3.163900
     20          6           0       -4.568612    4.594302    2.590147
     21          6           0       -5.326919    3.931426    1.541241
     22          6           0       -2.920504    3.783548    4.343661
     23          6           0       -4.618369    6.007336    2.863119
     24          8           0       -3.993425    6.519750    3.768442
     25          7           0       -6.908924    2.546717   -0.711329
     26          6           0       -6.987454    3.938004   -0.363410
     27          6           0       -8.065101    4.556479   -1.200834
     28          6           0       -8.466749    3.558426   -2.082187
     29          6           0       -7.787291    2.361496   -1.641522
     30          6           0       -8.356090    5.941445   -1.189648
     31          6           0       -9.444727    3.780233   -3.235532
     32          6           0       -8.724620    4.074899   -4.521633
     33          7           0       -6.406262   -0.201140   -1.007530
     34          6           0       -7.372044   -0.048299   -2.115116
     35          6           0       -7.543295   -1.354230   -2.737168
     36          6           0       -6.628081   -2.207520   -2.079501
     37          6           0       -5.921761   -1.489007   -1.110591
     38          6           0       -8.473002   -1.772121   -3.947373
     39          6           0       -6.211453   -3.597650   -2.001788
     40          8           0       -6.534358   -4.654924   -2.647316
     41          6           0       -4.972648   -3.544930   -0.843670
     42          6           0       -5.257442   -4.619717    0.126089
     43          8           0       -5.648556   -4.463021    1.310206
     44          8           0       -5.039654   -5.798008   -0.330692
     45          6           0       -5.236264   -6.973293    0.506713
     46          6           0        2.315444   -5.002949    0.649548
     47          6           0        3.440298   -4.080913    1.012704
     48          6           0        4.007840   -3.222868    0.181349
     49          6           0        3.676020   -3.008055   -1.325274
     50          6           0        5.213500   -2.259681    0.606978
     51          6           0        6.523118   -2.669223   -0.080435
     52          6           0        7.579943   -1.713644    0.351143
     53          6           0        9.096318   -2.016338   -0.048643
     54          6           0        9.698959   -3.347616    0.283913
     55          6           0       10.151349   -0.945473    0.434538
     56          6           0       11.430418   -0.969621   -0.349990
     57          6           0       12.248868    0.227551    0.199854
     58          6           0       13.585143    0.517997   -0.432052
     59          6           0       14.524920   -0.706156   -0.312941
     60          6           0       14.357669    1.854736   -0.122104
     61          6           0       15.527101    2.052521   -0.912706
     62          6           0       16.134768    3.477602   -0.675297
     63          6           0       17.318373    3.928141   -1.373729
     64          6           0       16.954433    4.101012   -2.941661
     65          6           0       17.735038    5.335750   -0.831570
     66          1           0       -2.674155    1.269214    3.485240
     67          1           0       -6.724699    5.590906    0.568212
     68          1           0       -8.684238    1.041644   -3.257139
     69          1           0       -3.555239   -3.132628    2.050178
     70          1           0       -1.781264   -1.081382    2.938251
     71          1           0       -2.798815   -2.430826    4.509540
     72          1           0       -3.200551   -0.784652    4.749300
     73          1           0       -4.509166   -1.767998    4.027466
     74          1           0       -2.097124   -3.426610   -0.233669
     75          1           0       -1.356512   -1.937938    0.214012
     76          1           0       -0.793687   -3.334079    2.550711
     77          1           0       -1.331456   -4.488129    1.569174
     78          1           0       -2.012587    3.488299    4.132322
     79          1           0       -3.061602    4.749672    4.921753
     80          1           0       -3.353406    2.994594    5.014373
     81          1           0       -5.377971    6.601306    2.428939
     82          1           0      -10.004291    2.775333   -3.619482
     83          1           0      -10.338051    4.469711   -2.995999
     84          1           0       -9.232181    4.075306   -5.508565
     85          1           0       -8.090328    5.014755   -4.408635
     86          1           0       -7.897235    3.379233   -4.759632
     87          1           0       -8.129384   -1.167479   -4.739456
     88          1           0       -8.453466   -2.896294   -4.165678
     89          1           0       -9.528189   -1.470769   -3.837958
     90          1           0       -4.203979   -3.946354   -1.413705
     91          1           0        2.437628   -6.067086    1.066620
     92          1           0        2.210332   -5.102991   -0.513231
     93          1           0        3.795824   -4.011814    2.167841
     94          1           0        2.758293   -3.528448   -1.527352
     95          1           0        3.665355   -1.869504   -1.466778
     96          1           0        4.764565   -3.419784   -1.796639
     97          1           0        4.839641   -1.138052    0.424638
     98          1           0        5.098205   -2.422862    1.823594
     99          1           0        6.659876   -3.727804    0.130704
    100          1           0        6.645609   -2.892148   -1.198016
    101          1           0        7.264269   -0.677909    0.083010
    102          1           0        7.520387   -1.763058    1.441849
    103          1           0        9.166749   -1.954686   -1.287976
    104          1           0        9.075043   -4.176533   -0.020900
    105          1           0       10.609604   -3.357919   -0.299435
    106          1           0        9.965612   -3.564087    1.244016
    107          1           0        9.782794   -0.039880    0.184045
    108          1           0       10.236853   -1.114762    1.704049
    109          1           0       11.903464   -1.960855   -0.263074
    110          1           0       11.369159   -0.856241   -1.313167
    111          1           0       11.605418    0.943740    0.373360
    112          1           0       12.380131   -0.110023    1.271547
    113          1           0       13.203181    0.364724   -1.414463
    114          1           0       14.608815   -0.983275    0.808861
    115          1           0       14.194991   -1.580844   -0.947266
    116          1           0       15.552190   -0.414880   -0.720057
    117          1           0       13.571241    2.777086   -0.173409
    118          1           0       14.431786    1.905598    0.929868
    119          1           0       16.351577    1.446713   -0.477727
    120          1           0       15.146994    1.899467   -1.860522
    121          1           0       15.357266    4.198658   -0.973910
    122          1           0       16.373470    3.731186    0.358324
    123          1           0       18.183889    3.127540   -1.297418
    124          1           0       16.358262    4.978922   -3.214743
    125          1           0       18.046522    4.173585   -3.445115
    126          1           0       16.726442    3.071379   -3.157085
    127          1           0       18.052386    5.237034    0.293149
    128          1           0       18.484457    5.720988   -1.624606
    129          1           0       16.840455    6.027014   -0.758528
    130          1           0       -5.154018   -7.967924   -0.093021
    131          1           0       -6.287775   -6.806448    0.938694
    132          1           0       -4.522465   -7.113252    1.266726
    133          8           0       -7.867888    6.897133   -0.592645
    134          1           0       -9.234067    6.202670   -1.891507
 ---------------------------------------------------------------------

 SCF Done:  E(RCAM-B3LYP) =  -3043.44320806     A.U. after   15 cycles

 Excitation energies and oscillator strengths:

 Excited State   1:      Singlet-A      1.9095 eV  649.30 nm  f=0.2279  <S**2>=0.000
     243 -> 246        0.18833
     244 -> 245        0.67379
 This state for optimization and/or second-order correction.
 Total Energy, E(TD-HF/TD-KS) =  -3043.37303516
 Copying the excited state density for this state as the 1-particle RhoCI density.

 The electronic state is 1-A.
 Alpha  occ. eigenvalues --  -46.80941 -19.22974 -19.22560 -19.18253 -19.18118
 Alpha  occ. eigenvalues --  -19.18026 -19.15994 -19.15046 -14.39319 -14.37617
 Alpha  occ. eigenvalues --  -14.36806 -14.36635 -10.36526 -10.34235 -10.32801
 Alpha  occ. eigenvalues --  -10.31075 -10.28774 -10.28665 -10.28072 -10.27992
 Alpha  occ. eigenvalues --  -10.27351 -10.27171 -10.27093 -10.26876 -10.26776
 Alpha  occ. eigenvalues --  -10.26743 -10.26502 -10.26224 -10.26196 -10.25673
 Alpha  occ. eigenvalues --  -10.25636 -10.25462 -10.24565 -10.24388 -10.24322
 Alpha  occ. eigenvalues --  -10.24320 -10.24287 -10.24217 -10.24056 -10.24042
 Alpha  occ. eigenvalues --  -10.23597 -10.23423 -10.23066 -10.23062 -10.23051
 Alpha  occ. eigenvalues --  -10.22830 -10.22805 -10.22802 -10.22315 -10.22102
 Alpha  occ. eigenvalues --  -10.22015 -10.21967 -10.21858 -10.21758 -10.21402
 Alpha  occ. eigenvalues --  -10.21192 -10.20985 -10.20939 -10.20932 -10.20879
 Alpha  occ. eigenvalues --  -10.20751 -10.20271 -10.19790 -10.19438 -10.19091
 Alpha  occ. eigenvalues --  -10.18749  -3.09676  -1.84605  -1.84173  -1.84075
 Alpha  occ. eigenvalues --   -1.14902  -1.13162  -1.07146  -1.06311  -1.03959
 Alpha  occ. eigenvalues --   -1.03926  -1.01742  -1.01605  -1.00921  -0.98771
 Alpha  occ. eigenvalues --   -0.97379  -0.88849  -0.86332  -0.85939  -0.85848
 Alpha  occ. eigenvalues --   -0.85694  -0.85263  -0.84604  -0.84475  -0.83796
 Alpha  occ. eigenvalues --   -0.83075  -0.82721  -0.82171  -0.81120  -0.80789
 Alpha  occ. eigenvalues --   -0.80059  -0.78999  -0.78677  -0.78322  -0.76511
 Alpha  occ. eigenvalues --   -0.75743  -0.75569  -0.74393  -0.73473  -0.72897
 Alpha  occ. eigenvalues --   -0.70733  -0.70610  -0.70344  -0.69966  -0.69820
 Alpha  occ. eigenvalues --   -0.69357  -0.69227  -0.67931  -0.67020  -0.66564
 Alpha  occ. eigenvalues --   -0.66421  -0.65232  -0.64898  -0.62902  -0.62833
 Alpha  occ. eigenvalues --   -0.62150  -0.61781  -0.61139  -0.59724  -0.58962
 Alpha  occ. eigenvalues --   -0.58879  -0.58278  -0.57816  -0.57497  -0.56991
 Alpha  occ. eigenvalues --   -0.56580  -0.55936  -0.55474  -0.54811  -0.54599
 Alpha  occ. eigenvalues --   -0.54087  -0.53967  -0.53429  -0.53176  -0.52420
 Alpha  occ. eigenvalues --   -0.51757  -0.51630  -0.51477  -0.51205  -0.50916
 Alpha  occ. eigenvalues --   -0.50516  -0.49775  -0.49595  -0.49324  -0.49281
 Alpha  occ. eigenvalues --   -0.48823  -0.48719  -0.48603  -0.48392  -0.48042
 Alpha  occ. eigenvalues --   -0.47485  -0.47392  -0.47184  -0.47028  -0.46914
 Alpha  occ. eigenvalues --   -0.46765  -0.46652  -0.46438  -0.46011  -0.45826
 Alpha  occ. eigenvalues --   -0.45512  -0.45418  -0.45298  -0.45054  -0.44953
 Alpha  occ. eigenvalues --   -0.44754  -0.44460  -0.44178  -0.44041  -0.43949
 Alpha  occ. eigenvalues --   -0.43598  -0.43529  -0.43387  -0.43070  -0.42895
 Alpha  occ. eigenvalues --   -0.42705  -0.42565  -0.42555  -0.42171  -0.42090
 Alpha  occ. eigenvalues --   -0.41742  -0.41609  -0.41362  -0.40994  -0.40715
 Alpha  occ. eigenvalues --   -0.40552  -0.40418  -0.40203  -0.39969  -0.39798
 Alpha  occ. eigenvalues --   -0.39674  -0.39529  -0.39236  -0.39164  -0.38912
 Alpha  occ. eigenvalues --   -0.38876  -0.38655  -0.38540  -0.38437  -0.38403
 Alpha  occ. eigenvalues --   -0.38201  -0.38014  -0.37472  -0.37309  -0.37138
 Alpha  occ. eigenvalues --   -0.36832  -0.36580  -0.36329  -0.36119  -0.35681
 Alpha  occ. eigenvalues --   -0.35601  -0.35271  -0.34994  -0.34819  -0.34598
 Alpha  occ. eigenvalues --   -0.34232  -0.33824  -0.33016  -0.32724  -0.32682
 Alpha  occ. eigenvalues --   -0.32576  -0.32036  -0.31990  -0.31828  -0.31796
 Alpha  occ. eigenvalues --   -0.31244  -0.30948  -0.30793  -0.30519  -0.29881
 Alpha  occ. eigenvalues --   -0.29188  -0.28378  -0.28271  -0.28094  -0.27860
 Alpha  occ. eigenvalues --   -0.27513  -0.27027  -0.24045  -0.21624
 Alpha virt. eigenvalues --   -0.09516  -0.07186  -0.02072  -0.01000   0.00309
 Alpha virt. eigenvalues --    0.01371   0.03333   0.03723   0.04280   0.04488
 Alpha virt. eigenvalues --    0.05232   0.06084   0.07032   0.08127   0.08470

 Mulliken charges:
               1
     1  Mg   0.820786
     2  C    0.121668
     3  C   -0.182797
     4  C   -0.183994
     5  C   -0.186335
     6  N   -0.634472
     7  C    0.344510
     8  C   -0.144791
     9  C   -0.157938
    10  C    0.333760
    11  C   -0.290878
    12  C   -0.184489
    13  C   -0.291590
    14  C    0.591676
    15  O   -0.484503
    16  O   -0.441546
    17  N   -0.721727
    18  C    0.339315
    19  C    0.022206
    20  C   -0.013438
    21  C    0.290622
    22  C   -0.366098
    23  C    0.231371
    24  O   -0.419188
    25  N   -0.696655
    26  C    0.265958
    27  C    0.007797
    28  C    0.054097
    29  C    0.334612
    30  C    0.229583
    31  C   -0.244987
    32  C   -0.318527
    33  N   -0.723015
    34  C    0.275751
    35  C    0.033397
    36  C    0.052468
    37  C    0.283922
    38  C   -0.380277
    39  C    0.335190
    40  O   -0.479983
    41  C   -0.358606
    42  C    0.610393
    43  O   -0.533246
    44  O   -0.410709
    45  C   -0.088109
    46  C   -0.005504
    47  C   -0.118190
    48  C    0.099273
    49  C   -0.325142
    50  C   -0.212922
    51  C   -0.169902
    52  C   -0.166684
    53  C   -0.068015
    54  C   -0.304740
    55  C   -0.151212
    56  C   -0.190351
    57  C   -0.175529
    58  C   -0.061840
    59  C   -0.310984
    60  C   -0.169102
    61  C   -0.160609
    62  C   -0.156180
    63  C   -0.059700
    64  C   -0.314366
    65  C   -0.302033
    66  H    0.079451
    67  H    0.140558
    68  H    0.085666
    69  H    0.142302
    70  H    0.101030
    71  H    0.091448
    72  H    0.109288
    73  H    0.142423
    74  H    0.114814
    75  H    0.148210
    76  H    0.139298
    77  H    0.150601
    78  H    0.131575
    79  H    0.159883
    80  H    0.108420
    81  H    0.086056
    82  H    0.092737
    83  H    0.123600
    84  H    0.116532
    85  H    0.105956
    86  H    0.115409
    87  H    0.141604
    88  H    0.154555
    89  H    0.128926
    90  H    0.161735
    91  H    0.097304
    92  H    0.112789
    93  H    0.064466
    94  H    0.137006
    95  H    0.111644
    96  H    0.088426
    97  H    0.088152
    98  H    0.079466
    99  H    0.108602
   100  H    0.092391
   101  H    0.092244
   102  H    0.094629
   103  H    0.041174
   104  H    0.090896
   105  H    0.105832
   106  H    0.109846
   107  H    0.099668
   108  H    0.058811
   109  H    0.096538
   110  H    0.104874
   111  H    0.093741
   112  H    0.069225
   113  H    0.082811
   114  H    0.089187
   115  H    0.096447
   116  H    0.093550
   117  H    0.057538
   118  H    0.100093
   119  H    0.105050
   120  H    0.110326
   121  H    0.081405
   122  H    0.081850
   123  H    0.065416
   124  H    0.114125
   125  H    0.071654
   126  H    0.115044
   127  H    0.088586
   128  H    0.097124
   129  H    0.099590
   130  H    0.123103
   131  H    0.140967
   132  H    0.136160
   133  O   -0.425216
   134  H    0.047937
 Sum of Mulliken charges =   0.00000

 Dipole moment (field-independent basis, Debye):
    X=              0.7061    Y=             -4.5891    Z=             -1.2716  Tot=              4.8141
 Quadrupole moment (field-independent basis, Debye-Ang):
   XX=           -381.9690   YY=           -441.9641   ZZ=           -392.1528
   XY=              8.0843   XZ=             25.5910   YZ=            -32.9842

 Normal termination of Gaussian 09 at Fri Oct  4 02:39:43 2019.
