 Gaussian 09, Revision D.01,
 Gaussian 09:  ES64L-G09RevD.01 24-Apr-2013

 ----------------------------------------------------------------------
 # td=(NStates=1) iop(3/107=0140000000,3/108=0140000000) iop(3/107=0140
 000000,3/108=0140000000) CAM-B3LYP/6-31G(d,p)
 ----------------------------------------------------------------------

 --
 TD
 --
 Symbolic Z-matrix:
 Charge =  0 Multiplicity = 1

                         Standard orientation:
 ---------------------------------------------------------------------
 Center     Atomic      Atomic             Coordinates (Angstroms)
 Number     Number       Type             X           Y           Z
 ---------------------------------------------------------------------
      1         12           0       -5.607991    1.144194    0.148493
      2          6           0       -4.970067   -2.051767   -0.336862
      3          6           0       -3.437400    1.185011    2.667871
      4          6           0       -6.162062    4.644220    0.581342
      5          6           0       -8.018307    1.096616   -2.418733
      6          7           0       -4.444207   -0.192221    1.063283
      7          6           0       -4.221340   -1.519706    0.664217
      8          6           0       -3.197371   -2.379575    1.458293
      9          6           0       -2.950142   -1.341507    2.594059
     10          6           0       -3.592106   -0.043908    2.075790
     11          6           0       -3.563987   -1.720495    4.075128
     12          6           0       -1.920977   -2.691698    0.643916
     13          6           0       -0.964300   -3.481916    1.411782
     14          6           0        0.294679   -3.829986    0.591165
     15          8           0        0.544066   -3.462975   -0.540144
     16          8           0        1.042470   -4.646306    1.413366
     17          7           0       -4.863267    2.646257    1.372817
     18          6           0       -3.952220    2.471551    2.352217
     19          6           0       -3.752506    3.696641    3.093772
     20          6           0       -4.457078    4.646293    2.432414
     21          6           0       -5.249947    3.992856    1.426090
     22          6           0       -2.666241    3.873185    4.270697
     23          6           0       -4.563353    6.062804    2.868497
     24          8           0       -3.952187    6.575970    3.705790
     25          7           0       -6.949010    2.539798   -0.719538
     26          6           0       -6.928168    3.914489   -0.407199
     27          6           0       -7.971763    4.592667   -1.077263
     28          6           0       -8.560876    3.594662   -1.966319
     29          6           0       -7.879774    2.308968   -1.696304
     30          6           0       -8.421222    5.968964   -1.060749
     31          6           0       -9.548545    3.894885   -3.052702
     32          6           0       -8.895971    4.010120   -4.531515
     33          7           0       -6.459558   -0.157969   -1.138401
     34          6           0       -7.530724   -0.107779   -2.047615
     35          6           0       -7.610187   -1.439373   -2.671093
     36          6           0       -6.651481   -2.273222   -2.029502
     37          6           0       -6.016442   -1.380999   -1.129802
     38          6           0       -8.631905   -1.878908   -3.724296
     39          6           0       -6.239250   -3.586904   -2.026883
     40          8           0       -6.474386   -4.593703   -2.626726
     41          6           0       -4.955057   -3.542010   -0.937181
     42          6           0       -5.200757   -4.597554    0.147783
     43          8           0       -5.762455   -4.397548    1.184981
     44          8           0       -4.976500   -5.850978   -0.415726
     45          6           0       -5.262527   -6.914329    0.611742
     46          6           0        2.328481   -5.037048    0.734813
     47          6           0        3.389637   -4.120861    1.125870
     48          6           0        4.008376   -3.296550    0.259069
     49          6           0        3.764826   -3.144467   -1.248432
     50          6           0        5.201105   -2.411014    0.736480
     51          6           0        6.543783   -2.655618    0.010334
     52          6           0        7.703905   -1.878077    0.617952
     53          6           0        9.023567   -2.035837    0.033801
     54          6           0        9.651569   -3.393124    0.275572
     55          6           0        9.925001   -0.854446    0.437056
     56          6           0       11.343276   -0.808558   -0.313575
     57          6           0       12.191944    0.392807    0.185694
     58          6           0       13.445280    0.479439   -0.593295
     59          6           0       14.441413   -0.674710   -0.485209
     60          6           0       14.134064    1.792966   -0.258748
     61          6           0       15.436240    2.267797   -1.115403
     62          6           0       16.099976    3.490078   -0.590406
     63          6           0       17.425062    3.897841   -1.320163
     64          6           0       17.212996    3.872339   -2.897252
     65          6           0       17.996047    5.167849   -0.837040
     66          1           0       -2.671388    1.037627    3.519063
     67          1           0       -6.439278    5.664280    0.815001
     68          1           0       -8.785277    1.063058   -3.358396
     69          1           0       -3.531719   -3.306348    1.644450
     70          1           0       -1.898435   -0.986325    2.759124
     71          1           0       -3.080032   -2.557263    4.481602
     72          1           0       -3.337141   -0.993667    4.913177
     73          1           0       -4.690714   -1.796432    3.843340
     74          1           0       -1.984643   -3.256067   -0.160513
     75          1           0       -1.338484   -1.764191    0.286277
     76          1           0       -0.759125   -3.038202    2.399991
     77          1           0       -1.630331   -4.326540    1.636363
     78          1           0       -1.677524    3.196225    4.130226
     79          1           0       -2.378951    4.873608    4.438936
     80          1           0       -3.382574    3.477318    5.298487
     81          1           0       -5.362321    6.832792    2.292966
     82          1           0      -10.401992    2.968879   -2.951710
     83          1           0      -10.192644    4.844709   -2.838366
     84          1           0       -9.705464    4.327474   -5.190492
     85          1           0       -7.956182    4.617448   -4.485201
     86          1           0       -8.450033    2.842814   -4.596185
     87          1           0       -8.175146   -1.656643   -4.775477
     88          1           0       -8.991183   -3.021777   -3.735564
     89          1           0       -9.556235   -1.198835   -3.602682
     90          1           0       -4.022113   -3.650658   -1.442713
     91          1           0        2.586861   -5.948136    1.228596
     92          1           0        2.208887   -4.990396   -0.213835
     93          1           0        3.726417   -4.096270    2.091256
     94          1           0        2.920375   -3.700506   -1.562182
     95          1           0        3.942118   -2.164542   -1.510479
     96          1           0        4.631761   -3.574063   -2.083554
     97          1           0        4.852890   -1.205766    0.537776
     98          1           0        5.444580   -2.538592    1.987240
     99          1           0        6.857109   -3.629651   -0.027952
    100          1           0        6.567541   -2.346376   -1.189335
    101          1           0        7.796105   -0.713528    0.577938
    102          1           0        7.858146   -2.384137    1.570230
    103          1           0        8.763674   -1.929919   -1.036672
    104          1           0        9.174355   -4.289725   -0.160820
    105          1           0       10.501548   -3.438511   -0.273779
    106          1           0        9.936207   -3.717071    1.429566
    107          1           0        9.360674    0.085435    0.222998
    108          1           0       10.195553   -1.098000    1.456635
    109          1           0       11.911461   -1.740091   -0.232705
    110          1           0       11.118010   -0.790389   -1.461831
    111          1           0       11.430217    1.289602    0.142750
    112          1           0       12.344342    0.072053    1.192756
    113          1           0       13.277635    0.413604   -1.569646
    114          1           0       14.688515   -0.581969    0.650411
    115          1           0       13.839280   -1.652235   -0.558233
    116          1           0       15.318256   -0.448845   -0.986458
    117          1           0       13.501691    2.623415   -0.462030
    118          1           0       14.359286    1.676766    0.732340
    119          1           0       16.111172    1.435748   -0.943271
    120          1           0       15.109734    2.311041   -2.140992
    121          1           0       15.320963    4.333416   -0.499424
    122          1           0       16.281802    3.542448    0.546405
    123          1           0       18.186177    2.937209   -1.250952
    124          1           0       16.649338    4.927157   -3.317544
    125          1           0       18.424944    3.768458   -3.336907
    126          1           0       16.790860    2.988030   -3.286354
    127          1           0       18.223127    5.446741    0.290078
    128          1           0       18.857241    5.639111   -1.261188
    129          1           0       17.132685    5.858795   -0.958208
    130          1           0       -4.811399   -7.948846    0.135461
    131          1           0       -6.509373   -6.854076    0.669793
    132          1           0       -4.669259   -6.769445    1.493394
    133          8           0       -7.935669    6.857402   -0.413790
    134          1           0       -9.090133    6.233872   -1.903286
 ---------------------------------------------------------------------

 SCF Done:  E(RCAM-B3LYP) =  -3043.37882251     A.U. after   15 cycles

 Excitation energies and oscillator strengths:

 Excited State   1:      Singlet-A      2.0993 eV  590.61 nm  f=0.1606  <S**2>=0.000
     243 -> 245       -0.12237
     243 -> 246        0.24306
     244 -> 245        0.63466
     244 -> 246        0.11110
 This state for optimization and/or second-order correction.
 Total Energy, E(TD-HF/TD-KS) =  -3043.30167576
 Copying the excited state density for this state as the 1-particle RhoCI density.

 The electronic state is 1-A.
 Alpha  occ. eigenvalues --  -46.81322 -19.22458 -19.21760 -19.18729 -19.17716
 Alpha  occ. eigenvalues --  -19.17538 -19.17442 -19.16611 -14.38690 -14.36976
 Alpha  occ. eigenvalues --  -14.36897 -14.36787 -10.35861 -10.34545 -10.31370
 Alpha  occ. eigenvalues --  -10.31083 -10.29569 -10.29430 -10.27236 -10.27182
 Alpha  occ. eigenvalues --  -10.27107 -10.26762 -10.26599 -10.26564 -10.26457
 Alpha  occ. eigenvalues --  -10.26331 -10.26321 -10.26243 -10.26039 -10.25872
 Alpha  occ. eigenvalues --  -10.25591 -10.25518 -10.25302 -10.25231 -10.24921
 Alpha  occ. eigenvalues --  -10.24887 -10.24509 -10.24440 -10.24115 -10.24056
 Alpha  occ. eigenvalues --  -10.23894 -10.23861 -10.23594 -10.23392 -10.23376
 Alpha  occ. eigenvalues --  -10.23163 -10.23015 -10.22503 -10.22367 -10.22360
 Alpha  occ. eigenvalues --  -10.22237 -10.22097 -10.21742 -10.21675 -10.21645
 Alpha  occ. eigenvalues --  -10.21566 -10.21259 -10.21039 -10.20857 -10.20817
 Alpha  occ. eigenvalues --  -10.20790 -10.20784 -10.20700 -10.20292 -10.19670
 Alpha  occ. eigenvalues --  -10.19333  -3.09976  -1.84909  -1.84467  -1.84376
 Alpha  occ. eigenvalues --   -1.12423  -1.11976  -1.10740  -1.08265  -1.07332
 Alpha  occ. eigenvalues --   -1.05187  -1.04155  -1.01358  -1.00493  -0.99535
 Alpha  occ. eigenvalues --   -0.97792  -0.87771  -0.87090  -0.86939  -0.85969
 Alpha  occ. eigenvalues --   -0.85381  -0.84509  -0.83491  -0.83434  -0.83183
 Alpha  occ. eigenvalues --   -0.82941  -0.82494  -0.81602  -0.80264  -0.79300
 Alpha  occ. eigenvalues --   -0.78622  -0.78299  -0.76886  -0.76045  -0.75497
 Alpha  occ. eigenvalues --   -0.75354  -0.74068  -0.73594  -0.71823  -0.71588
 Alpha  occ. eigenvalues --   -0.71178  -0.70754  -0.70648  -0.69934  -0.69264
 Alpha  occ. eigenvalues --   -0.68882  -0.68662  -0.67527  -0.66462  -0.65760
 Alpha  occ. eigenvalues --   -0.65517  -0.64646  -0.64241  -0.63102  -0.62394
 Alpha  occ. eigenvalues --   -0.61581  -0.60325  -0.59988  -0.59854  -0.59706
 Alpha  occ. eigenvalues --   -0.58149  -0.57806  -0.57497  -0.57486  -0.56729
 Alpha  occ. eigenvalues --   -0.56358  -0.55816  -0.55261  -0.54784  -0.54076
 Alpha  occ. eigenvalues --   -0.53611  -0.53235  -0.53151  -0.52545  -0.52408
 Alpha  occ. eigenvalues --   -0.51810  -0.51165  -0.51048  -0.50989  -0.50753
 Alpha  occ. eigenvalues --   -0.50445  -0.50048  -0.49697  -0.49417  -0.48872
 Alpha  occ. eigenvalues --   -0.48804  -0.48488  -0.48216  -0.47754  -0.47700
 Alpha  occ. eigenvalues --   -0.47308  -0.47220  -0.47190  -0.47047  -0.46880
 Alpha  occ. eigenvalues --   -0.46715  -0.46628  -0.46249  -0.46004  -0.45706
 Alpha  occ. eigenvalues --   -0.45486  -0.45054  -0.44780  -0.44680  -0.44562
 Alpha  occ. eigenvalues --   -0.44471  -0.44443  -0.44044  -0.43766  -0.43692
 Alpha  occ. eigenvalues --   -0.43542  -0.43450  -0.43160  -0.42848  -0.42732
 Alpha  occ. eigenvalues --   -0.42704  -0.42421  -0.42298  -0.42249  -0.41873
 Alpha  occ. eigenvalues --   -0.41593  -0.41507  -0.41383  -0.41173  -0.41029
 Alpha  occ. eigenvalues --   -0.40742  -0.40518  -0.40453  -0.40167  -0.40106
 Alpha  occ. eigenvalues --   -0.39701  -0.39387  -0.39272  -0.39236  -0.39128
 Alpha  occ. eigenvalues --   -0.38972  -0.38823  -0.38574  -0.38303  -0.38284
 Alpha  occ. eigenvalues --   -0.37952  -0.37879  -0.37660  -0.37589  -0.37277
 Alpha  occ. eigenvalues --   -0.37123  -0.36552  -0.36116  -0.35704  -0.35670
 Alpha  occ. eigenvalues --   -0.35478  -0.35113  -0.35005  -0.34824  -0.34522
 Alpha  occ. eigenvalues --   -0.34301  -0.33739  -0.33648  -0.33221  -0.33063
 Alpha  occ. eigenvalues --   -0.32846  -0.32743  -0.32130  -0.31996  -0.31798
 Alpha  occ. eigenvalues --   -0.31600  -0.31564  -0.30923  -0.30837  -0.29853
 Alpha  occ. eigenvalues --   -0.28994  -0.28465  -0.27678  -0.27609  -0.27573
 Alpha  occ. eigenvalues --   -0.27553  -0.26715  -0.22933  -0.21945
 Alpha virt. eigenvalues --   -0.08609  -0.06535  -0.01318  -0.00164   0.00947
 Alpha virt. eigenvalues --    0.02390   0.02917   0.03330   0.03709   0.03911
 Alpha virt. eigenvalues --    0.05063   0.06023   0.06889   0.08360   0.08826

 Mulliken charges:
               1
     1  Mg   0.828835
     2  C    0.008193
     3  C   -0.224764
     4  C   -0.156693
     5  C   -0.156901
     6  N   -0.656100
     7  C    0.309373
     8  C   -0.105393
     9  C   -0.160329
    10  C    0.373632
    11  C   -0.310401
    12  C   -0.172274
    13  C   -0.269501
    14  C    0.619261
    15  O   -0.462359
    16  O   -0.480972
    17  N   -0.702457
    18  C    0.338605
    19  C    0.033389
    20  C   -0.044586
    21  C    0.307294
    22  C   -0.332785
    23  C    0.246504
    24  O   -0.363701
    25  N   -0.680907
    26  C    0.279102
    27  C   -0.003978
    28  C    0.002148
    29  C    0.302544
    30  C    0.240044
    31  C   -0.259345
    32  C   -0.290027
    33  N   -0.728056
    34  C    0.257905
    35  C    0.011637
    36  C    0.098723
    37  C    0.342891
    38  C   -0.376734
    39  C    0.324528
    40  O   -0.434743
    41  C   -0.331226
    42  C    0.605437
    43  O   -0.457259
    44  O   -0.462518
    45  C   -0.079905
    46  C    0.022507
    47  C   -0.128979
    48  C    0.147778
    49  C   -0.347990
    50  C   -0.211028
    51  C   -0.155299
    52  C   -0.130785
    53  C   -0.066105
    54  C   -0.322322
    55  C   -0.179532
    56  C   -0.206249
    57  C   -0.152770
    58  C   -0.055562
    59  C   -0.315825
    60  C   -0.181052
    61  C   -0.199413
    62  C   -0.163417
    63  C   -0.026646
    64  C   -0.279190
    65  C   -0.311564
    66  H    0.065433
    67  H    0.144721
    68  H    0.101636
    69  H    0.112642
    70  H    0.109347
    71  H    0.124268
    72  H    0.111966
    73  H    0.129602
    74  H    0.124815
    75  H    0.100373
    76  H    0.129067
    77  H    0.122359
    78  H    0.107431
    79  H    0.162022
    80  H    0.089081
    81  H    0.037635
    82  H    0.076453
    83  H    0.104228
    84  H    0.127961
    85  H    0.129455
    86  H    0.083001
    87  H    0.131363
    88  H    0.142696
    89  H    0.115078
    90  H    0.150840
    91  H    0.119724
    92  H    0.120566
    93  H    0.082953
    94  H    0.139663
    95  H    0.133113
    96  H    0.071469
    97  H    0.077639
    98  H    0.066932
    99  H    0.114698
   100  H    0.056254
   101  H    0.067805
   102  H    0.082560
   103  H    0.073401
   104  H    0.099761
   105  H    0.117268
   106  H    0.074447
   107  H    0.095203
   108  H    0.101212
   109  H    0.096496
   110  H    0.071238
   111  H    0.084138
   112  H    0.097399
   113  H    0.092093
   114  H    0.075084
   115  H    0.097024
   116  H    0.120644
   117  H    0.090596
   118  H    0.092814
   119  H    0.093914
   120  H    0.102793
   121  H    0.073641
   122  H    0.085672
   123  H    0.061472
   124  H    0.073407
   125  H    0.056233
   126  H    0.123388
   127  H    0.086066
   128  H    0.113910
   129  H    0.102106
   130  H    0.107723
   131  H    0.130624
   132  H    0.138754
   133  O   -0.417491
   134  H    0.059434
 Sum of Mulliken charges =   0.00000

 Dipole moment (field-independent basis, Debye):
    X=              2.8009    Y=             -4.6905    Z=             -0.5427  Tot=              5.4900
 Quadrupole moment (field-independent basis, Debye-Ang):
   XX=           -386.3044   YY=           -438.3316   ZZ=           -393.5540
   XY=              3.8573   XZ=             21.6902   YZ=            -30.6147

 Normal termination of Gaussian 09 at Sat Oct  5 07:17:41 2019.
