 Gaussian 09, Revision D.01,
 Gaussian 09:  ES64L-G09RevD.01 24-Apr-2013

 ----------------------------------------------------------------------
 # td=(NStates=1) iop(3/107=0140000000,3/108=0140000000) iop(3/107=0140
 000000,3/108=0140000000) CAM-B3LYP/6-31G(d,p)
 ----------------------------------------------------------------------

 --
 TD
 --
 Symbolic Z-matrix:
 Charge =  0 Multiplicity = 1

                         Standard orientation:
 ---------------------------------------------------------------------
 Center     Atomic      Atomic             Coordinates (Angstroms)
 Number     Number       Type             X           Y           Z
 ---------------------------------------------------------------------
      1         12           0       -5.602335    1.302601    0.197165
      2          6           0       -5.083019   -2.136360   -0.391496
      3          6           0       -3.309677    1.203807    2.717543
      4          6           0       -6.153672    4.673459    0.604589
      5          6           0       -8.054098    1.122206   -2.276248
      6          7           0       -4.383853   -0.289516    1.062943
      7          6           0       -4.221839   -1.580162    0.607149
      8          6           0       -3.231595   -2.304729    1.500804
      9          6           0       -2.976763   -1.379571    2.572915
     10          6           0       -3.541363   -0.081457    2.121596
     11          6           0       -3.496322   -1.731107    3.982629
     12          6           0       -1.948852   -2.690954    0.674803
     13          6           0       -1.017389   -3.696989    1.455103
     14          6           0        0.240509   -3.920520    0.611761
     15          8           0        0.477385   -3.599808   -0.488660
     16          8           0        1.104693   -4.718033    1.380404
     17          7           0       -4.933200    2.701216    1.458393
     18          6           0       -3.936916    2.439260    2.430295
     19          6           0       -3.637894    3.610716    3.097955
     20          6           0       -4.441648    4.624339    2.542670
     21          6           0       -5.223608    3.997148    1.478218
     22          6           0       -2.778948    3.806475    4.324910
     23          6           0       -4.467280    5.973855    2.941069
     24          8           0       -3.849679    6.649127    3.744077
     25          7           0       -6.927803    2.624311   -0.766390
     26          6           0       -6.906434    3.974455   -0.383735
     27          6           0       -7.992082    4.698971   -1.103545
     28          6           0       -8.448715    3.720823   -2.009862
     29          6           0       -7.841645    2.482580   -1.886834
     30          6           0       -8.184193    6.142105   -1.115079
     31          6           0       -9.447492    3.984840   -3.082145
     32          6           0       -8.648182    4.035448   -4.465877
     33          7           0       -6.261361   -0.038360   -1.155674
     34          6           0       -7.373577    0.007998   -2.078225
     35          6           0       -7.739734   -1.283071   -2.588445
     36          6           0       -6.675741   -2.135494   -2.081331
     37          6           0       -5.982895   -1.330072   -1.092030
     38          6           0       -8.635503   -1.662389   -3.784442
     39          6           0       -6.165689   -3.519461   -2.031984
     40          8           0       -6.633785   -4.502609   -2.564421
     41          6           0       -5.043304   -3.596643   -0.921178
     42          6           0       -5.412636   -4.632247    0.145546
     43          8           0       -5.830673   -4.483972    1.161321
     44          8           0       -5.051254   -5.852880   -0.360230
     45          6           0       -5.425880   -6.883704    0.591589
     46          6           0        2.257729   -5.208899    0.607059
     47          6           0        3.391857   -4.267602    0.994340
     48          6           0        4.046700   -3.423290    0.189844
     49          6           0        3.657719   -3.296477   -1.375905
     50          6           0        5.192033   -2.639510    0.724295
     51          6           0        6.610112   -3.007951    0.066823
     52          6           0        7.602211   -1.952198    0.610745
     53          6           0        9.045422   -2.161113   -0.098768
     54          6           0        9.485550   -3.503963    0.018893
     55          6           0        9.934309   -1.009950    0.274630
     56          6           0       11.282736   -0.815480   -0.482076
     57          6           0       12.187563    0.338438    0.189803
     58          6           0       13.460478    0.628665   -0.614616
     59          6           0       14.442726   -0.599261   -0.427402
     60          6           0       14.089018    2.010721   -0.208086
     61          6           0       15.460131    2.130747   -0.868776
     62          6           0       15.969208    3.653030   -0.630883
     63          6           0       17.346269    3.913835   -1.226791
     64          6           0       17.293018    3.971116   -2.758258
     65          6           0       17.907577    5.238516   -0.690536
     66          1           0       -2.433222    1.212144    3.376921
     67          1           0       -6.320649    5.765411    0.764266
     68          1           0       -8.955372    1.026780   -3.112827
     69          1           0       -3.858404   -3.202457    2.043064
     70          1           0       -1.870694   -1.235879    2.434989
     71          1           0       -2.767126   -2.503688    4.569929
     72          1           0       -3.458057   -0.800139    4.609914
     73          1           0       -4.518773   -2.197034    3.842553
     74          1           0       -2.378594   -3.066239   -0.214430
     75          1           0       -1.341693   -1.966859    0.393621
     76          1           0       -0.752924   -3.168678    2.480935
     77          1           0       -1.528664   -4.479239    1.696913
     78          1           0       -1.789033    3.275062    4.183217
     79          1           0       -2.813165    4.921792    4.477275
     80          1           0       -3.343096    3.100192    5.047730
     81          1           0       -5.054525    6.702725    2.330811
     82          1           0      -10.069318    3.173590   -3.043080
     83          1           0       -9.951058    4.953205   -2.917901
     84          1           0       -9.388902    4.188451   -5.212173
     85          1           0       -7.801315    4.705051   -4.264105
     86          1           0       -8.125806    3.066108   -4.567613
     87          1           0       -8.315312   -0.964978   -4.544268
     88          1           0       -8.228645   -2.659012   -3.967376
     89          1           0       -9.583695   -1.537362   -3.575423
     90          1           0       -4.059948   -3.731045   -1.457977
     91          1           0        2.702608   -6.157479    1.166249
     92          1           0        2.066896   -5.295096   -0.409905
     93          1           0        3.645565   -4.353408    2.128033
     94          1           0        2.702883   -3.942604   -1.758077
     95          1           0        3.425946   -2.170004   -1.633986
     96          1           0        4.626436   -3.517283   -1.899164
     97          1           0        4.822863   -1.570824    0.517855
     98          1           0        5.285364   -2.877850    1.679933
     99          1           0        6.578433   -4.103334    0.331714
    100          1           0        6.520325   -3.010678   -1.046069
    101          1           0        7.241742   -0.842915    0.394793
    102          1           0        8.059415   -2.202894    1.786231
    103          1           0        8.876831   -1.940193   -1.239008
    104          1           0        8.724985   -4.251759   -0.168054
    105          1           0       10.481917   -3.786338   -0.493672
    106          1           0        9.746661   -3.713801    1.227440
    107          1           0        9.508386   -0.110397    0.228366
    108          1           0       10.291307   -1.012775    1.272260
    109          1           0       11.902325   -1.961991   -0.594920
    110          1           0       11.166191   -0.394764   -1.554041
    111          1           0       11.542111    1.305738    0.347383
    112          1           0       12.448569    0.115258    1.243263
    113          1           0       13.171143    0.831743   -1.674346
    114          1           0       14.840847   -0.454486    0.704206
    115          1           0       14.110930   -1.511270   -0.833555
    116          1           0       15.189302   -0.343700   -1.105051
    117          1           0       13.622898    2.663331   -0.596073
    118          1           0       13.999801    1.995303    1.087808
    119          1           0       16.187251    1.250235   -0.754030
    120          1           0       15.131597    2.149874   -1.934630
    121          1           0       15.205995    4.207204   -0.842497
    122          1           0       16.030946    3.753350    0.498261
    123          1           0       18.043301    3.158211   -0.936088
    124          1           0       16.620097    4.730282   -2.846587
    125          1           0       18.180778    4.231848   -3.246005
    126          1           0       16.903866    3.081393   -3.214980
    127          1           0       17.956952    5.366735    0.374697
    128          1           0       18.900987    5.489750   -1.173325
    129          1           0       17.311203    6.110907   -1.231222
    130          1           0       -5.536942   -7.855239   -0.082595
    131          1           0       -6.406521   -6.825690    0.684703
    132          1           0       -4.894173   -7.023862    1.482433
    133          8           0       -7.615893    6.943826   -0.427534
    134          1           0       -9.014626    6.513994   -1.801412
 ---------------------------------------------------------------------

 SCF Done:  E(RCAM-B3LYP) =  -3043.38327329     A.U. after   16 cycles

 Excitation energies and oscillator strengths:

 Excited State   1:      Singlet-A      1.9876 eV  623.77 nm  f=0.1304  <S**2>=0.000
     243 -> 246        0.29433
     244 -> 245        0.63173
 This state for optimization and/or second-order correction.
 Total Energy, E(TD-HF/TD-KS) =  -3043.31022870
 Copying the excited state density for this state as the 1-particle RhoCI density.

 The electronic state is 1-A.
 Alpha  occ. eigenvalues --  -46.81630 -19.21895 -19.21443 -19.19159 -19.19054
 Alpha  occ. eigenvalues --  -19.17638 -19.17008 -19.15870 -14.39504 -14.37149
 Alpha  occ. eigenvalues --  -14.37064 -14.36887 -10.35706 -10.35147 -10.32055
 Alpha  occ. eigenvalues --  -10.30374 -10.28737 -10.28223 -10.28221 -10.27649
 Alpha  occ. eigenvalues --  -10.26748 -10.26666 -10.26587 -10.26586 -10.26543
 Alpha  occ. eigenvalues --  -10.26475 -10.26323 -10.26251 -10.25988 -10.25925
 Alpha  occ. eigenvalues --  -10.25073 -10.24843 -10.24634 -10.24438 -10.24393
 Alpha  occ. eigenvalues --  -10.24337 -10.24211 -10.24172 -10.24056 -10.23910
 Alpha  occ. eigenvalues --  -10.23638 -10.23337 -10.23333 -10.22915 -10.22762
 Alpha  occ. eigenvalues --  -10.22736 -10.22720 -10.22635 -10.22521 -10.22310
 Alpha  occ. eigenvalues --  -10.22188 -10.21933 -10.21909 -10.21658 -10.21519
 Alpha  occ. eigenvalues --  -10.21516 -10.21510 -10.21498 -10.21093 -10.21042
 Alpha  occ. eigenvalues --  -10.20689 -10.20509 -10.20223 -10.19963 -10.19241
 Alpha  occ. eigenvalues --  -10.18289  -3.10164  -1.85108  -1.84631  -1.84574
 Alpha  occ. eigenvalues --   -1.18009  -1.14041  -1.07949  -1.07857  -1.07434
 Alpha  occ. eigenvalues --   -1.05948  -1.05479  -1.01080  -1.00015  -0.99671
 Alpha  occ. eigenvalues --   -0.96889  -0.88431  -0.87076  -0.85650  -0.85366
 Alpha  occ. eigenvalues --   -0.85109  -0.84522  -0.84324  -0.84238  -0.83475
 Alpha  occ. eigenvalues --   -0.83045  -0.82791  -0.82178  -0.80011  -0.79389
 Alpha  occ. eigenvalues --   -0.78622  -0.78010  -0.77341  -0.76963  -0.75968
 Alpha  occ. eigenvalues --   -0.75407  -0.74853  -0.73592  -0.73185  -0.72761
 Alpha  occ. eigenvalues --   -0.71373  -0.70822  -0.70296  -0.70146  -0.70082
 Alpha  occ. eigenvalues --   -0.69797  -0.69236  -0.67235  -0.66694  -0.66490
 Alpha  occ. eigenvalues --   -0.65796  -0.64370  -0.64153  -0.62294  -0.62107
 Alpha  occ. eigenvalues --   -0.61729  -0.60960  -0.60013  -0.59691  -0.59422
 Alpha  occ. eigenvalues --   -0.58788  -0.57996  -0.57518  -0.57365  -0.57047
 Alpha  occ. eigenvalues --   -0.56500  -0.56361  -0.55950  -0.55678  -0.54764
 Alpha  occ. eigenvalues --   -0.54394  -0.54059  -0.53485  -0.52695  -0.52275
 Alpha  occ. eigenvalues --   -0.52047  -0.51805  -0.51626  -0.51247  -0.51091
 Alpha  occ. eigenvalues --   -0.50903  -0.50715  -0.50582  -0.49652  -0.49580
 Alpha  occ. eigenvalues --   -0.49321  -0.48976  -0.48593  -0.48235  -0.47753
 Alpha  occ. eigenvalues --   -0.47623  -0.47486  -0.47309  -0.47100  -0.47004
 Alpha  occ. eigenvalues --   -0.46733  -0.46419  -0.46342  -0.46102  -0.45970
 Alpha  occ. eigenvalues --   -0.45671  -0.45452  -0.45307  -0.45053  -0.44895
 Alpha  occ. eigenvalues --   -0.44759  -0.44518  -0.44269  -0.44066  -0.43779
 Alpha  occ. eigenvalues --   -0.43632  -0.43455  -0.43114  -0.42933  -0.42749
 Alpha  occ. eigenvalues --   -0.42695  -0.42374  -0.42298  -0.42115  -0.41813
 Alpha  occ. eigenvalues --   -0.41735  -0.41540  -0.41486  -0.41259  -0.41161
 Alpha  occ. eigenvalues --   -0.40972  -0.40834  -0.40396  -0.40089  -0.39888
 Alpha  occ. eigenvalues --   -0.39878  -0.39608  -0.39543  -0.39301  -0.39208
 Alpha  occ. eigenvalues --   -0.39059  -0.38911  -0.38757  -0.38744  -0.38581
 Alpha  occ. eigenvalues --   -0.38303  -0.38054  -0.38044  -0.37717  -0.37387
 Alpha  occ. eigenvalues --   -0.36834  -0.36773  -0.36701  -0.36526  -0.35940
 Alpha  occ. eigenvalues --   -0.35693  -0.35637  -0.35090  -0.34975  -0.34629
 Alpha  occ. eigenvalues --   -0.34515  -0.34372  -0.34294  -0.33973  -0.33527
 Alpha  occ. eigenvalues --   -0.33343  -0.32911  -0.32565  -0.32305  -0.32118
 Alpha  occ. eigenvalues --   -0.31782  -0.31745  -0.30910  -0.29836  -0.29729
 Alpha  occ. eigenvalues --   -0.28947  -0.28180  -0.27882  -0.27726  -0.27106
 Alpha  occ. eigenvalues --   -0.26559  -0.26130  -0.23242  -0.21957
 Alpha virt. eigenvalues --   -0.09022  -0.07210  -0.02245  -0.00141   0.00659
 Alpha virt. eigenvalues --    0.02829   0.03218   0.03999   0.04354   0.04509
 Alpha virt. eigenvalues --    0.05268   0.05977   0.07828   0.07971   0.08964

 Mulliken charges:
               1
     1  Mg   0.819780
     2  C    0.010955
     3  C   -0.195880
     4  C   -0.154457
     5  C   -0.197198
     6  N   -0.606585
     7  C    0.286222
     8  C   -0.177458
     9  C   -0.119068
    10  C    0.311750
    11  C   -0.302761
    12  C   -0.184590
    13  C   -0.259866
    14  C    0.611092
    15  O   -0.430007
    16  O   -0.486291
    17  N   -0.752125
    18  C    0.316104
    19  C    0.047618
    20  C   -0.013847
    21  C    0.342641
    22  C   -0.374678
    23  C    0.195982
    24  O   -0.434022
    25  N   -0.678405
    26  C    0.287398
    27  C   -0.014349
    28  C   -0.031699
    29  C    0.298248
    30  C    0.250952
    31  C   -0.239070
    32  C   -0.317158
    33  N   -0.715126
    34  C    0.306863
    35  C   -0.011301
    36  C   -0.008799
    37  C    0.363661
    38  C   -0.354671
    39  C    0.350863
    40  O   -0.445141
    41  C   -0.321522
    42  C    0.631380
    43  O   -0.386939
    44  O   -0.465068
    45  C   -0.094788
    46  C    0.006928
    47  C   -0.144081
    48  C    0.122678
    49  C   -0.356329
    50  C   -0.219371
    51  C   -0.189614
    52  C   -0.150915
    53  C   -0.043930
    54  C   -0.289245
    55  C   -0.155018
    56  C   -0.168317
    57  C   -0.169219
    58  C   -0.076521
    59  C   -0.297405
    60  C   -0.110499
    61  C   -0.213182
    62  C   -0.157204
    63  C   -0.056504
    64  C   -0.311788
    65  C   -0.308892
    66  H    0.089947
    67  H    0.160489
    68  H    0.073155
    69  H    0.112738
    70  H    0.108888
    71  H    0.095246
    72  H    0.119882
    73  H    0.129347
    74  H    0.114780
    75  H    0.130761
    76  H    0.123648
    77  H    0.148550
    78  H    0.113703
    79  H    0.165548
    80  H    0.122677
    81  H    0.061367
    82  H    0.114616
    83  H    0.105472
    84  H    0.119736
    85  H    0.121882
    86  H    0.108365
    87  H    0.135299
    88  H    0.157165
    89  H    0.138998
    90  H    0.168276
    91  H    0.106172
    92  H    0.125367
    93  H    0.077362
    94  H    0.119487
    95  H    0.103895
    96  H    0.109729
    97  H    0.088993
    98  H    0.112866
    99  H    0.107807
   100  H    0.101564
   101  H    0.096475
   102  H    0.067505
   103  H    0.064456
   104  H    0.116336
   105  H    0.100291
   106  H    0.051312
   107  H    0.098601
   108  H    0.091519
   109  H    0.048150
   110  H    0.079669
   111  H    0.065789
   112  H    0.088064
   113  H    0.071986
   114  H    0.090811
   115  H    0.109947
   116  H    0.107179
   117  H    0.094758
   118  H    0.038729
   119  H    0.096996
   120  H    0.089239
   121  H    0.095508
   122  H    0.081347
   123  H    0.091710
   124  H    0.107773
   125  H    0.103289
   126  H    0.100731
   127  H    0.108566
   128  H    0.090043
   129  H    0.074038
   130  H    0.102283
   131  H    0.141110
   132  H    0.132960
   133  O   -0.412965
   134  H    0.051808
 Sum of Mulliken charges =   0.00000

 Dipole moment (field-independent basis, Debye):
    X=              1.1680    Y=             -6.0075    Z=             -1.5319  Tot=              6.3088
 Quadrupole moment (field-independent basis, Debye-Ang):
   XX=           -379.3514   YY=           -450.4527   ZZ=           -397.0154
   XY=             19.0113   XZ=             12.3747   YZ=            -37.9359

 Normal termination of Gaussian 09 at Tue Oct  8 22:00:41 2019.
