 Gaussian 09, Revision D.01,
 Gaussian 09:  ES64L-G09RevD.01 24-Apr-2013

 ----------------------------------------------------------------------
 # td=(NStates=1) iop(3/107=0140000000,3/108=0140000000) iop(3/107=0140
 000000,3/108=0140000000) CAM-B3LYP/6-31G(d,p)
 ----------------------------------------------------------------------

 --
 TD
 --
 Symbolic Z-matrix:
 Charge =  0 Multiplicity = 1

                         Standard orientation:
 ---------------------------------------------------------------------
 Center     Atomic      Atomic             Coordinates (Angstroms)
 Number     Number       Type             X           Y           Z
 ---------------------------------------------------------------------
      1         12           0       -5.592546    1.230489    0.134699
      2          6           0       -5.042778   -2.186366   -0.396716
      3          6           0       -3.423180    1.120307    2.785955
      4          6           0       -6.070190    4.529769    0.752427
      5          6           0       -7.826632    1.290252   -2.567059
      6          7           0       -4.352751   -0.268992    1.054178
      7          6           0       -4.322765   -1.570453    0.607352
      8          6           0       -3.323885   -2.318838    1.634677
      9          6           0       -3.059894   -1.303719    2.788547
     10          6           0       -3.568590   -0.111442    2.268603
     11          6           0       -3.759736   -1.796869    4.064135
     12          6           0       -2.101165   -2.708544    0.779468
     13          6           0       -1.026989   -3.576351    1.542567
     14          6           0        0.185593   -3.877217    0.740283
     15          8           0        0.394240   -3.355329   -0.354028
     16          8           0        0.999001   -4.760966    1.304348
     17          7           0       -4.855350    2.624109    1.533697
     18          6           0       -4.002794    2.384967    2.516918
     19          6           0       -3.517935    3.651645    3.194827
     20          6           0       -4.350238    4.685450    2.560866
     21          6           0       -5.208613    4.018985    1.581574
     22          6           0       -2.609569    3.729998    4.349192
     23          6           0       -4.417891    6.086797    2.976164
     24          8           0       -3.763446    6.572361    3.827266
     25          7           0       -6.770125    2.663921   -0.714912
     26          6           0       -6.891479    3.971730   -0.282797
     27          6           0       -7.834543    4.574072   -1.194119
     28          6           0       -8.280057    3.693544   -2.113510
     29          6           0       -7.622110    2.503209   -1.920477
     30          6           0       -8.286219    6.015844   -1.062997
     31          6           0       -9.305627    3.800643   -3.198228
     32          6           0       -8.690523    4.330455   -4.498286
     33          7           0       -6.291007   -0.127628   -1.165683
     34          6           0       -7.215490    0.006220   -2.194232
     35          6           0       -7.492756   -1.235262   -2.811834
     36          6           0       -6.591083   -2.103112   -2.204792
     37          6           0       -5.950269   -1.441945   -1.221196
     38          6           0       -8.601232   -1.538861   -3.865478
     39          6           0       -6.226224   -3.583940   -2.034971
     40          8           0       -6.765202   -4.548829   -2.583362
     41          6           0       -5.123711   -3.593165   -0.915388
     42          6           0       -5.546790   -4.647493   -0.014405
     43          8           0       -5.947877   -4.477655    1.154175
     44          8           0       -5.335674   -5.826031   -0.532575
     45          6           0       -5.451898   -6.948852    0.370723
     46          6           0        2.252928   -5.027801    0.639745
     47          6           0        3.384551   -4.088961    0.983374
     48          6           0        4.023637   -3.205162    0.177823
     49          6           0        3.603652   -3.008386   -1.220567
     50          6           0        5.065544   -2.260600    0.786621
     51          6           0        6.431444   -2.606166   -0.011576
     52          6           0        7.627470   -1.776940    0.595200
     53          6           0        8.984484   -2.015629   -0.098598
     54          6           0        9.425953   -3.492451    0.142982
     55          6           0       10.091040   -1.047060    0.477879
     56          6           0       11.384609   -0.928914   -0.317987
     57          6           0       12.261965    0.170312    0.138720
     58          6           0       13.575290    0.395298   -0.652394
     59          6           0       14.429800   -0.825509   -0.435919
     60          6           0       14.274311    1.683937   -0.205678
     61          6           0       15.474209    2.116456   -0.999596
     62          6           0       16.061119    3.470183   -0.583359
     63          6           0       17.368607    3.795208   -1.364409
     64          6           0       17.190292    4.089879   -2.880711
     65          6           0       17.928825    4.986239   -0.708502
     66          1           0       -2.564372    1.047523    3.477478
     67          1           0       -6.267195    5.510947    0.962862
     68          1           0       -8.538887    1.219647   -3.340329
     69          1           0       -3.829362   -3.274920    2.078982
     70          1           0       -1.872226   -1.114022    3.088935
     71          1           0       -3.475109   -2.751983    4.444325
     72          1           0       -3.928752   -1.024658    4.863676
     73          1           0       -4.895567   -1.995422    3.985781
     74          1           0       -2.251225   -3.070660   -0.259122
     75          1           0       -1.539790   -1.986113    0.542264
     76          1           0       -0.959120   -3.097552    2.585284
     77          1           0       -1.765622   -4.469960    1.838967
     78          1           0       -1.657337    3.168528    4.007738
     79          1           0       -2.599599    4.897254    4.771339
     80          1           0       -3.035484    3.070707    5.199408
     81          1           0       -5.097279    6.716307    2.559500
     82          1           0       -9.812731    2.897745   -3.481453
     83          1           0      -10.055654    4.617460   -2.952463
     84          1           0       -9.567191    4.464572   -5.266606
     85          1           0       -8.035851    5.223054   -4.327860
     86          1           0       -8.119398    3.386835   -5.043793
     87          1           0       -8.325224   -1.076480   -4.736545
     88          1           0       -8.774401   -2.588220   -3.989240
     89          1           0       -9.517164   -1.010893   -3.426892
     90          1           0       -4.345094   -4.158764   -1.442533
     91          1           0        2.681233   -6.079585    0.917643
     92          1           0        2.038647   -5.094722   -0.398807
     93          1           0        3.718366   -4.272941    2.053972
     94          1           0        2.573524   -3.232105   -1.418444
     95          1           0        3.844020   -1.914927   -1.496886
     96          1           0        4.018653   -3.562691   -2.151680
     97          1           0        4.871428   -1.199236    0.544206
     98          1           0        5.004078   -2.332522    1.758902
     99          1           0        6.591195   -3.694648    0.057770
    100          1           0        6.223825   -2.311913   -1.085051
    101          1           0        7.548121   -0.700736    0.363455
    102          1           0        7.757465   -2.071138    1.652659
    103          1           0        8.815998   -1.790257   -1.176097
    104          1           0        8.718255   -4.231198   -0.175560
    105          1           0       10.320909   -3.712463   -0.439102
    106          1           0        9.728016   -3.679427    1.202121
    107          1           0        9.583994   -0.097978    0.365950
    108          1           0       10.204390   -1.194058    1.527077
    109          1           0       11.967765   -1.953219   -0.444101
    110          1           0       11.023712   -0.726530   -1.434849
    111          1           0       11.618679    1.173912    0.152705
    112          1           0       12.368313    0.122967    1.232056
    113          1           0       13.682019    0.256804   -1.682830
    114          1           0       14.789563   -0.928871    0.559892
    115          1           0       14.033480   -1.798908   -0.820087
    116          1           0       15.229023   -0.891737   -1.023323
    117          1           0       13.549608    2.646934   -0.169970
    118          1           0       14.608902    1.531739    0.855714
    119          1           0       16.248050    1.467613   -1.016127
    120          1           0       15.275289    2.247531   -1.939067
    121          1           0       15.224690    4.266096   -0.754923
    122          1           0       16.331478    3.425120    0.431722
    123          1           0       18.061108    2.943785   -1.225935
    124          1           0       16.394781    4.718481   -3.406906
    125          1           0       18.233364    4.277818   -3.425426
    126          1           0       17.116923    3.043420   -3.469863
    127          1           0       18.075334    4.785825    0.400359
    128          1           0       18.851366    5.408348   -1.354197
    129          1           0       17.281577    5.832943   -0.761518
    130          1           0       -5.038595   -7.885660   -0.171988
    131          1           0       -6.444955   -7.227440    0.980454
    132          1           0       -4.779716   -6.605455    1.161629
    133          8           0       -7.693645    6.836780   -0.380724
    134          1           0       -8.913030    6.259379   -1.848465
 ---------------------------------------------------------------------

 SCF Done:  E(RCAM-B3LYP) =  -3043.50416119     A.U. after   16 cycles

 Excitation energies and oscillator strengths:

 Excited State   1:      Singlet-A      2.0833 eV  595.13 nm  f=0.1970  <S**2>=0.000
     243 -> 246        0.22242
     244 -> 245        0.65494
 This state for optimization and/or second-order correction.
 Total Energy, E(TD-HF/TD-KS) =  -3043.42760149
 Copying the excited state density for this state as the 1-particle RhoCI density.

 The electronic state is 1-A.
 Alpha  occ. eigenvalues --  -46.80817 -19.23306 -19.22933 -19.17543 -19.17256
 Alpha  occ. eigenvalues --  -19.17030 -19.16928 -19.15754 -14.38183 -14.37185
 Alpha  occ. eigenvalues --  -14.36841 -14.35741 -10.35498 -10.34243 -10.31954
 Alpha  occ. eigenvalues --  -10.30057 -10.29215 -10.28912 -10.27976 -10.27744
 Alpha  occ. eigenvalues --  -10.27697 -10.27156 -10.26906 -10.26493 -10.26302
 Alpha  occ. eigenvalues --  -10.25907 -10.25741 -10.25653 -10.25339 -10.24853
 Alpha  occ. eigenvalues --  -10.24837 -10.24669 -10.24614 -10.24601 -10.24518
 Alpha  occ. eigenvalues --  -10.24228 -10.24179 -10.23938 -10.23831 -10.23586
 Alpha  occ. eigenvalues --  -10.23257 -10.22828 -10.22624 -10.22609 -10.22595
 Alpha  occ. eigenvalues --  -10.22525 -10.22365 -10.22365 -10.22095 -10.21876
 Alpha  occ. eigenvalues --  -10.21747 -10.21639 -10.21419 -10.21386 -10.21205
 Alpha  occ. eigenvalues --  -10.21108 -10.21045 -10.20997 -10.20978 -10.20901
 Alpha  occ. eigenvalues --  -10.20551 -10.20323 -10.20213 -10.19534 -10.18422
 Alpha  occ. eigenvalues --  -10.17656  -3.09332  -1.84283  -1.83791  -1.83743
 Alpha  occ. eigenvalues --   -1.14887  -1.14072  -1.09217  -1.06844  -1.06011
 Alpha  occ. eigenvalues --   -1.04404  -1.02809  -0.99961  -0.99209  -0.97730
 Alpha  occ. eigenvalues --   -0.97236  -0.88711  -0.86448  -0.85903  -0.85516
 Alpha  occ. eigenvalues --   -0.85286  -0.84628  -0.84371  -0.83512  -0.83258
 Alpha  occ. eigenvalues --   -0.82760  -0.82731  -0.81928  -0.80516  -0.79818
 Alpha  occ. eigenvalues --   -0.79110  -0.78544  -0.78018  -0.77398  -0.76788
 Alpha  occ. eigenvalues --   -0.75229  -0.75093  -0.73362  -0.73270  -0.72353
 Alpha  occ. eigenvalues --   -0.71204  -0.70920  -0.70370  -0.70036  -0.69820
 Alpha  occ. eigenvalues --   -0.69525  -0.68848  -0.67403  -0.66741  -0.65959
 Alpha  occ. eigenvalues --   -0.65303  -0.64760  -0.63868  -0.62988  -0.62173
 Alpha  occ. eigenvalues --   -0.61534  -0.60762  -0.60273  -0.59611  -0.59479
 Alpha  occ. eigenvalues --   -0.58868  -0.58590  -0.58275  -0.57981  -0.57749
 Alpha  occ. eigenvalues --   -0.56528  -0.56016  -0.55740  -0.55410  -0.54903
 Alpha  occ. eigenvalues --   -0.54461  -0.53887  -0.53369  -0.52677  -0.51889
 Alpha  occ. eigenvalues --   -0.51717  -0.51292  -0.51059  -0.50958  -0.50785
 Alpha  occ. eigenvalues --   -0.50439  -0.50062  -0.49968  -0.49457  -0.49211
 Alpha  occ. eigenvalues --   -0.48238  -0.48097  -0.48037  -0.47854  -0.47581
 Alpha  occ. eigenvalues --   -0.47415  -0.47361  -0.47219  -0.46943  -0.46869
 Alpha  occ. eigenvalues --   -0.46431  -0.46318  -0.46279  -0.45895  -0.45738
 Alpha  occ. eigenvalues --   -0.45579  -0.45448  -0.45341  -0.44880  -0.44667
 Alpha  occ. eigenvalues --   -0.44438  -0.44166  -0.44004  -0.43869  -0.43658
 Alpha  occ. eigenvalues --   -0.43234  -0.43193  -0.42923  -0.42871  -0.42789
 Alpha  occ. eigenvalues --   -0.42619  -0.42046  -0.41864  -0.41668  -0.41499
 Alpha  occ. eigenvalues --   -0.41474  -0.41192  -0.41063  -0.40990  -0.40621
 Alpha  occ. eigenvalues --   -0.40251  -0.40172  -0.40030  -0.39938  -0.39804
 Alpha  occ. eigenvalues --   -0.39659  -0.39619  -0.39417  -0.39316  -0.39021
 Alpha  occ. eigenvalues --   -0.38662  -0.38439  -0.38330  -0.38134  -0.37937
 Alpha  occ. eigenvalues --   -0.37862  -0.37525  -0.37072  -0.36943  -0.36715
 Alpha  occ. eigenvalues --   -0.36428  -0.36319  -0.36141  -0.35988  -0.35772
 Alpha  occ. eigenvalues --   -0.35618  -0.35465  -0.35305  -0.35042  -0.34916
 Alpha  occ. eigenvalues --   -0.34662  -0.34124  -0.33557  -0.33374  -0.33240
 Alpha  occ. eigenvalues --   -0.32876  -0.32632  -0.32233  -0.31632  -0.31607
 Alpha  occ. eigenvalues --   -0.31289  -0.30881  -0.30849  -0.30238  -0.29527
 Alpha  occ. eigenvalues --   -0.28491  -0.28057  -0.27880  -0.27604  -0.27350
 Alpha  occ. eigenvalues --   -0.27166  -0.26426  -0.23578  -0.21569
 Alpha virt. eigenvalues --   -0.08574  -0.06589  -0.01429  -0.00922   0.00778
 Alpha virt. eigenvalues --    0.02290   0.03559   0.03812   0.04350   0.04533
 Alpha virt. eigenvalues --    0.04614   0.05832   0.08019   0.08263   0.08920

 Mulliken charges:
               1
     1  Mg   0.811636
     2  C    0.148500
     3  C   -0.211401
     4  C   -0.173020
     5  C   -0.147772
     6  N   -0.655146
     7  C    0.294445
     8  C   -0.177809
     9  C   -0.139212
    10  C    0.372856
    11  C   -0.329936
    12  C   -0.160221
    13  C   -0.294206
    14  C    0.628249
    15  O   -0.477064
    16  O   -0.444941
    17  N   -0.678446
    18  C    0.351072
    19  C    0.060676
    20  C   -0.053000
    21  C    0.336176
    22  C   -0.395054
    23  C    0.262362
    24  O   -0.400841
    25  N   -0.709627
    26  C    0.320569
    27  C   -0.098277
    28  C    0.102724
    29  C    0.262193
    30  C    0.263723
    31  C   -0.251864
    32  C   -0.295012
    33  N   -0.738006
    34  C    0.264211
    35  C   -0.011908
    36  C   -0.002844
    37  C    0.286994
    38  C   -0.361449
    39  C    0.370579
    40  O   -0.458027
    41  C   -0.352660
    42  C    0.639483
    43  O   -0.516397
    44  O   -0.416808
    45  C   -0.085106
    46  C    0.004025
    47  C   -0.161374
    48  C    0.162044
    49  C   -0.394040
    50  C   -0.214563
    51  C   -0.191133
    52  C   -0.157495
    53  C   -0.071933
    54  C   -0.316874
    55  C   -0.171829
    56  C   -0.161302
    57  C   -0.154464
    58  C   -0.047686
    59  C   -0.327644
    60  C   -0.160182
    61  C   -0.173538
    62  C   -0.173936
    63  C   -0.038150
    64  C   -0.320129
    65  C   -0.288872
    66  H    0.069358
    67  H    0.107741
    68  H    0.086438
    69  H    0.118384
    70  H    0.096556
    71  H    0.126578
    72  H    0.109776
    73  H    0.122214
    74  H    0.113037
    75  H    0.130919
    76  H    0.128044
    77  H    0.114788
    78  H    0.125047
    79  H    0.161980
    80  H    0.129980
    81  H    0.077509
    82  H    0.118233
    83  H    0.108813
    84  H    0.100685
    85  H    0.122287
    86  H    0.083457
    87  H    0.139881
    88  H    0.152989
    89  H    0.115101
    90  H    0.175068
    91  H    0.107592
    92  H    0.123654
    93  H    0.078204
    94  H    0.157922
    95  H    0.096587
    96  H    0.103665
    97  H    0.103101
    98  H    0.101697
    99  H    0.106731
   100  H    0.098204
   101  H    0.086466
   102  H    0.089616
   103  H    0.075712
   104  H    0.100105
   105  H    0.098811
   106  H    0.093910
   107  H    0.087427
   108  H    0.091330
   109  H    0.080887
   110  H    0.071543
   111  H    0.064630
   112  H    0.094739
   113  H    0.093394
   114  H    0.097987
   115  H    0.092200
   116  H    0.105763
   117  H    0.064354
   118  H    0.079491
   119  H    0.092667
   120  H    0.106137
   121  H    0.075892
   122  H    0.091997
   123  H    0.093363
   124  H    0.113857
   125  H    0.086954
   126  H    0.074340
   127  H    0.088707
   128  H    0.071582
   129  H    0.110073
   130  H    0.123222
   131  H    0.130146
   132  H    0.126794
   133  O   -0.416775
   134  H    0.069139
 Sum of Mulliken charges =   0.00000

 Dipole moment (field-independent basis, Debye):
    X=              1.8233    Y=             -3.4965    Z=             -0.6990  Tot=              4.0048
 Quadrupole moment (field-independent basis, Debye-Ang):
   XX=           -373.0621   YY=           -431.5163   ZZ=           -386.7150
   XY=            -10.0263   XZ=             14.6159   YZ=            -28.8991

 Normal termination of Gaussian 09 at Mon Oct  7 21:39:51 2019.
