 Gaussian 09, Revision D.01,
 Gaussian 09:  ES64L-G09RevD.01 24-Apr-2013

 ----------------------------------------------------------------------
 # td=(NStates=1) iop(3/107=0140000000,3/108=0140000000) iop(3/107=0140
 000000,3/108=0140000000) CAM-B3LYP/6-31G(d,p)
 ----------------------------------------------------------------------

 --
 TD
 --
 Symbolic Z-matrix:
 Charge =  0 Multiplicity = 1

                         Standard orientation:
 ---------------------------------------------------------------------
 Center     Atomic      Atomic             Coordinates (Angstroms)
 Number     Number       Type             X           Y           Z
 ---------------------------------------------------------------------
      1         12           0       -5.636038    1.251239    0.230445
      2          6           0       -5.035464   -2.156974   -0.441631
      3          6           0       -3.453678    1.067597    2.838406
      4          6           0       -6.344301    4.528327    0.633876
      5          6           0       -7.977242    1.127963   -2.407969
      6          7           0       -4.411931   -0.278216    1.045125
      7          6           0       -4.215688   -1.539184    0.644142
      8          6           0       -3.203227   -2.322033    1.417377
      9          6           0       -2.980561   -1.368260    2.634043
     10          6           0       -3.702317   -0.124358    2.162023
     11          6           0       -3.486917   -1.831736    4.006868
     12          6           0       -1.921676   -2.663644    0.604748
     13          6           0       -0.953752   -3.440106    1.317272
     14          6           0        0.246581   -3.890440    0.467158
     15          8           0        0.527898   -3.490677   -0.665586
     16          8           0        1.021687   -4.824821    1.069831
     17          7           0       -4.911400    2.628195    1.482310
     18          6           0       -3.946712    2.444981    2.466563
     19          6           0       -3.784268    3.630189    3.186713
     20          6           0       -4.547660    4.564914    2.535166
     21          6           0       -5.319423    3.928089    1.486532
     22          6           0       -2.973056    3.683306    4.363627
     23          6           0       -4.593082    5.987142    2.899835
     24          8           0       -3.991171    6.505612    3.925330
     25          7           0       -7.001562    2.625529   -0.691319
     26          6           0       -6.971379    3.927929   -0.349899
     27          6           0       -7.957187    4.575465   -1.229198
     28          6           0       -8.397058    3.563605   -2.098575
     29          6           0       -7.769488    2.436966   -1.775880
     30          6           0       -8.337084    5.937549   -1.133084
     31          6           0       -9.478293    3.822431   -3.128024
     32          6           0       -8.940543    4.097367   -4.600836
     33          7           0       -6.409735   -0.067901   -1.053543
     34          6           0       -7.389514   -0.086716   -2.100186
     35          6           0       -7.643436   -1.401301   -2.640890
     36          6           0       -6.748571   -2.242339   -1.963882
     37          6           0       -5.920320   -1.425562   -1.122645
     38          6           0       -8.448096   -1.750128   -3.815497
     39          6           0       -6.181737   -3.569105   -2.010307
     40          8           0       -6.448918   -4.603687   -2.652495
     41          6           0       -4.957532   -3.533642   -1.035304
     42          6           0       -5.286472   -4.538489    0.136470
     43          8           0       -5.608053   -4.362814    1.295343
     44          8           0       -4.953176   -5.814283   -0.345243
     45          6           0       -5.427210   -6.866886    0.526244
     46          6           0        2.381645   -4.998548    0.498391
     47          6           0        3.301096   -3.976674    1.004528
     48          6           0        4.050545   -3.173904    0.137821
     49          6           0        3.770993   -3.034580   -1.411070
     50          6           0        5.121983   -2.230072    0.807274
     51          6           0        6.591974   -2.711612    0.125622
     52          6           0        7.704848   -1.763999    0.626202
     53          6           0        9.092795   -2.103090    0.090109
     54          6           0        9.580679   -3.519852    0.477034
     55          6           0       10.107299   -0.957176    0.502813
     56          6           0       11.371870   -0.939430   -0.273569
     57          6           0       12.278710    0.261759    0.247473
     58          6           0       13.609928    0.398167   -0.518259
     59          6           0       14.630016   -0.678876   -0.287515
     60          6           0       14.219349    1.786399   -0.191615
     61          6           0       15.451134    2.129959   -1.072961
     62          6           0       16.065389    3.535004   -0.734023
     63          6           0       17.354451    3.991243   -1.425133
     64          6           0       17.102770    4.138621   -2.909063
     65          6           0       17.840611    5.311074   -0.836646
     66          1           0       -2.661612    1.255315    3.690838
     67          1           0       -6.486881    5.723406    0.733758
     68          1           0       -8.697292    1.015353   -3.264520
     69          1           0       -3.497463   -3.173329    1.864882
     70          1           0       -2.004251   -1.167011    2.824060
     71          1           0       -2.931458   -2.874618    4.352208
     72          1           0       -3.353875   -1.161079    5.010786
     73          1           0       -4.485437   -2.218126    4.118629
     74          1           0       -1.942591   -3.178474   -0.413933
     75          1           0       -1.246188   -1.697972    0.463716
     76          1           0       -0.501227   -2.758160    2.240478
     77          1           0       -1.287286   -4.341236    1.795805
     78          1           0       -2.021854    3.135889    4.384146
     79          1           0       -2.696386    4.934344    4.458370
     80          1           0       -3.361315    3.450540    5.532480
     81          1           0       -5.264523    6.658153    2.230816
     82          1           0      -10.263189    2.929279   -3.350850
     83          1           0      -10.085452    4.754857   -2.859925
     84          1           0       -9.714033    4.387033   -5.297083
     85          1           0       -8.045416    5.019883   -4.422525
     86          1           0       -8.469396    3.233840   -5.046326
     87          1           0       -8.280680   -1.183014   -4.664465
     88          1           0       -8.375824   -2.933155   -3.970245
     89          1           0       -9.407147   -1.333232   -3.385876
     90          1           0       -4.060357   -3.854242   -1.557584
     91          1           0        2.570078   -6.000334    0.803486
     92          1           0        2.552999   -4.828563   -0.596055
     93          1           0        3.488553   -3.836094    1.988564
     94          1           0        2.755250   -3.106073   -1.622472
     95          1           0        3.842127   -1.962614   -1.842167
     96          1           0        4.442763   -3.679618   -1.827117
     97          1           0        4.941994   -1.281140    0.383830
     98          1           0        5.179058   -2.276989    1.904955
     99          1           0        6.885978   -3.759768    0.350377
    100          1           0        6.448433   -2.805278   -0.973065
    101          1           0        7.522970   -0.642452    0.484800
    102          1           0        7.868552   -1.888641    1.713575
    103          1           0        9.056461   -2.179838   -0.972857
    104          1           0        8.996197   -4.361460    0.043520
    105          1           0       10.467848   -3.912162   -0.169738
    106          1           0        9.846527   -3.614154    1.554945
    107          1           0        9.385988    0.120933    0.326375
    108          1           0       10.180715   -0.931017    1.672047
    109          1           0       12.032165   -1.831505   -0.410100
    110          1           0       11.185231   -0.723365   -1.379208
    111          1           0       11.545431    1.269502    0.232578
    112          1           0       12.545721    0.052041    1.202406
    113          1           0       13.493211    0.630945   -1.593366
    114          1           0       15.028234   -0.611440    0.784308
    115          1           0       14.048161   -1.757088   -0.606947
    116          1           0       15.461168   -0.544388   -0.949204
    117          1           0       13.591117    2.591133   -0.379166
    118          1           0       14.543780    1.704633    0.847283
    119          1           0       16.203465    1.381739   -0.697765
    120          1           0       15.132784    1.982832   -2.009021
    121          1           0       15.237482    4.336171   -1.054190
    122          1           0       16.056708    3.614536    0.372326
    123          1           0       18.034870    3.081513   -1.281905
    124          1           0       16.173260    4.648244   -3.163586
    125          1           0       17.945859    4.688580   -3.402566
    126          1           0       17.084693    3.180200   -3.410546
    127          1           0       18.055734    5.187707    0.121328
    128          1           0       18.626013    5.717309   -1.272723
    129          1           0       17.005523    6.071005   -1.046889
    130          1           0       -5.523252   -7.922405   -0.089266
    131          1           0       -6.729452   -6.797455    0.811792
    132          1           0       -4.816892   -7.000670    1.478401
    133          8           0       -7.868684    6.791531   -0.418169
    134          1           0       -9.404514    6.172257   -1.694075
 ---------------------------------------------------------------------

 SCF Done:  E(RCAM-B3LYP) =  -3043.42840412     A.U. after   16 cycles

 Excitation energies and oscillator strengths:

 Excited State   1:      Singlet-A      2.0002 eV  619.84 nm  f=0.1456  <S**2>=0.000
     243 -> 245       -0.11355
     243 -> 246        0.30536
     244 -> 245        0.61580
 This state for optimization and/or second-order correction.
 Total Energy, E(TD-HF/TD-KS) =  -3043.35489630
 Copying the excited state density for this state as the 1-particle RhoCI density.

 The electronic state is 1-A.
 Alpha  occ. eigenvalues --  -46.81796 -19.23161 -19.21958 -19.19405 -19.18021
 Alpha  occ. eigenvalues --  -19.17439 -19.17022 -19.16523 -14.40442 -14.37162
 Alpha  occ. eigenvalues --  -14.37148 -14.36773 -10.36702 -10.35210 -10.32433
 Alpha  occ. eigenvalues --  -10.30738 -10.30570 -10.30518 -10.29605 -10.27659
 Alpha  occ. eigenvalues --  -10.27360 -10.26900 -10.26887 -10.26887 -10.26532
 Alpha  occ. eigenvalues --  -10.26405 -10.26344 -10.26324 -10.25432 -10.25294
 Alpha  occ. eigenvalues --  -10.25220 -10.25003 -10.24957 -10.24813 -10.24524
 Alpha  occ. eigenvalues --  -10.24507 -10.24477 -10.24424 -10.24384 -10.24340
 Alpha  occ. eigenvalues --  -10.24313 -10.24158 -10.23728 -10.23617 -10.23614
 Alpha  occ. eigenvalues --  -10.23283 -10.23111 -10.22855 -10.22832 -10.22694
 Alpha  occ. eigenvalues --  -10.22492 -10.22204 -10.21731 -10.21593 -10.21554
 Alpha  occ. eigenvalues --  -10.21471 -10.21432 -10.21356 -10.21341 -10.21271
 Alpha  occ. eigenvalues --  -10.21204 -10.20577 -10.19912 -10.19601 -10.19314
 Alpha  occ. eigenvalues --  -10.18328  -3.10390  -1.85324  -1.84891  -1.84778
 Alpha  occ. eigenvalues --   -1.13128  -1.12284  -1.07679  -1.06295  -1.05334
 Alpha  occ. eigenvalues --   -1.03264  -1.02958  -1.01993  -1.01671  -0.99526
 Alpha  occ. eigenvalues --   -0.98168  -0.90012  -0.87654  -0.85858  -0.85446
 Alpha  occ. eigenvalues --   -0.85069  -0.84756  -0.84128  -0.83986  -0.83574
 Alpha  occ. eigenvalues --   -0.83289  -0.83245  -0.82112  -0.80304  -0.79696
 Alpha  occ. eigenvalues --   -0.78901  -0.78022  -0.77348  -0.76583  -0.76346
 Alpha  occ. eigenvalues --   -0.75621  -0.74789  -0.74092  -0.72836  -0.71976
 Alpha  occ. eigenvalues --   -0.71821  -0.71428  -0.70112  -0.69749  -0.69652
 Alpha  occ. eigenvalues --   -0.69478  -0.68927  -0.67568  -0.66411  -0.65932
 Alpha  occ. eigenvalues --   -0.65746  -0.64853  -0.64255  -0.63431  -0.62593
 Alpha  occ. eigenvalues --   -0.62243  -0.60384  -0.60201  -0.59007  -0.58833
 Alpha  occ. eigenvalues --   -0.58603  -0.58332  -0.58046  -0.57567  -0.57428
 Alpha  occ. eigenvalues --   -0.56926  -0.55984  -0.55572  -0.55081  -0.54785
 Alpha  occ. eigenvalues --   -0.54408  -0.53802  -0.53495  -0.52959  -0.52072
 Alpha  occ. eigenvalues --   -0.51997  -0.51498  -0.51176  -0.50969  -0.50679
 Alpha  occ. eigenvalues --   -0.50238  -0.49998  -0.49517  -0.49477  -0.49205
 Alpha  occ. eigenvalues --   -0.49049  -0.48913  -0.48506  -0.48168  -0.48112
 Alpha  occ. eigenvalues --   -0.47771  -0.47650  -0.47368  -0.47124  -0.46872
 Alpha  occ. eigenvalues --   -0.46350  -0.46207  -0.46100  -0.46063  -0.45884
 Alpha  occ. eigenvalues --   -0.45706  -0.45438  -0.45192  -0.45057  -0.44690
 Alpha  occ. eigenvalues --   -0.44416  -0.44288  -0.44130  -0.43984  -0.43760
 Alpha  occ. eigenvalues --   -0.43647  -0.43424  -0.43037  -0.42849  -0.42756
 Alpha  occ. eigenvalues --   -0.42633  -0.42180  -0.42075  -0.42028  -0.41878
 Alpha  occ. eigenvalues --   -0.41572  -0.41180  -0.40822  -0.40779  -0.40747
 Alpha  occ. eigenvalues --   -0.40579  -0.40544  -0.40374  -0.40189  -0.40027
 Alpha  occ. eigenvalues --   -0.39704  -0.39648  -0.39485  -0.39136  -0.38973
 Alpha  occ. eigenvalues --   -0.38774  -0.38727  -0.38530  -0.38342  -0.38169
 Alpha  occ. eigenvalues --   -0.37933  -0.37584  -0.37460  -0.36955  -0.36789
 Alpha  occ. eigenvalues --   -0.36704  -0.36459  -0.36262  -0.36167  -0.35996
 Alpha  occ. eigenvalues --   -0.35502  -0.35318  -0.35226  -0.34973  -0.34870
 Alpha  occ. eigenvalues --   -0.34606  -0.34406  -0.34302  -0.33733  -0.33618
 Alpha  occ. eigenvalues --   -0.33070  -0.32720  -0.32427  -0.32221  -0.32018
 Alpha  occ. eigenvalues --   -0.31674  -0.31655  -0.30516  -0.30376  -0.29822
 Alpha  occ. eigenvalues --   -0.28997  -0.28608  -0.28009  -0.27856  -0.27576
 Alpha  occ. eigenvalues --   -0.26538  -0.26375  -0.23238  -0.22387
 Alpha virt. eigenvalues --   -0.09371  -0.07582  -0.03299  -0.01131   0.00264
 Alpha virt. eigenvalues --    0.01832   0.02286   0.03280   0.03585   0.03920
 Alpha virt. eigenvalues --    0.04363   0.05148   0.07716   0.07977   0.08690

 Mulliken charges:
               1
     1  Mg   0.824073
     2  C    0.052970
     3  C   -0.171774
     4  C   -0.177936
     5  C   -0.203148
     6  N   -0.608737
     7  C    0.317408
     8  C   -0.141806
     9  C   -0.133639
    10  C    0.344783
    11  C   -0.324506
    12  C   -0.168137
    13  C   -0.256344
    14  C    0.603067
    15  O   -0.479197
    16  O   -0.476809
    17  N   -0.723774
    18  C    0.244976
    19  C    0.132988
    20  C   -0.046379
    21  C    0.316931
    22  C   -0.425003
    23  C    0.223606
    24  O   -0.455047
    25  N   -0.703296
    26  C    0.360640
    27  C   -0.021030
    28  C    0.076807
    29  C    0.308594
    30  C    0.230009
    31  C   -0.255031
    32  C   -0.294827
    33  N   -0.706057
    34  C    0.302438
    35  C    0.044301
    36  C    0.025433
    37  C    0.281572
    38  C   -0.366946
    39  C    0.357457
    40  O   -0.470654
    41  C   -0.327071
    42  C    0.624493
    43  O   -0.443735
    44  O   -0.443429
    45  C   -0.070956
    46  C    0.000909
    47  C   -0.105537
    48  C    0.074811
    49  C   -0.385570
    50  C   -0.216652
    51  C   -0.201110
    52  C   -0.156728
    53  C   -0.050332
    54  C   -0.319689
    55  C   -0.146978
    56  C   -0.176158
    57  C   -0.150129
    58  C   -0.065116
    59  C   -0.296422
    60  C   -0.182095
    61  C   -0.185209
    62  C   -0.156860
    63  C   -0.057375
    64  C   -0.309556
    65  C   -0.292276
    66  H    0.089480
    67  H    0.161737
    68  H    0.079298
    69  H    0.138109
    70  H    0.119923
    71  H    0.075496
    72  H    0.108306
    73  H    0.139362
    74  H    0.126686
    75  H    0.108274
    76  H    0.111232
    77  H    0.134223
    78  H    0.117698
    79  H    0.140326
    80  H    0.110439
    81  H    0.085792
    82  H    0.089958
    83  H    0.115046
    84  H    0.119330
    85  H    0.072181
    86  H    0.115440
    87  H    0.150928
    88  H    0.150706
    89  H    0.129019
    90  H    0.174135
    91  H    0.116456
    92  H    0.129063
    93  H    0.073480
    94  H    0.167577
    95  H    0.101894
    96  H    0.135867
    97  H    0.116625
    98  H    0.104206
    99  H    0.102334
   100  H    0.094067
   101  H    0.082190
   102  H    0.089122
   103  H    0.085395
   104  H    0.100534
   105  H    0.084486
   106  H    0.103283
   107  H    0.045322
   108  H    0.081530
   109  H    0.096622
   110  H    0.090763
   111  H    0.065385
   112  H    0.102877
   113  H    0.076456
   114  H    0.096771
   115  H    0.067994
   116  H    0.121976
   117  H    0.096209
   118  H    0.077508
   119  H    0.082885
   120  H    0.099142
   121  H    0.054042
   122  H    0.084956
   123  H    0.074656
   124  H    0.100879
   125  H    0.090810
   126  H    0.103380
   127  H    0.108766
   128  H    0.108252
   129  H    0.087428
   130  H    0.113543
   131  H    0.084100
   132  H    0.130240
   133  O   -0.420843
   134  H    0.029444
 Sum of Mulliken charges =   0.00000

 Dipole moment (field-independent basis, Debye):
    X=              2.4551    Y=             -5.9600    Z=             -2.2339  Tot=              6.8220
 Quadrupole moment (field-independent basis, Debye-Ang):
   XX=           -365.1024   YY=           -454.4697   ZZ=           -395.9912
   XY=             15.5536   XZ=             25.6966   YZ=            -35.6905

 Normal termination of Gaussian 09 at Thu Oct  3 18:11:27 2019.
