 Gaussian 09, Revision D.01,
 Gaussian 09:  ES64L-G09RevD.01 24-Apr-2013

 ----------------------------------------------------------------------
 # td=(NStates=1) iop(3/107=0140000000,3/108=0140000000) iop(3/107=0140
 000000,3/108=0140000000) CAM-B3LYP/6-31G(d,p)
 ----------------------------------------------------------------------

 --
 TD
 --
 Symbolic Z-matrix:
 Charge =  0 Multiplicity = 1

                         Standard orientation:
 ---------------------------------------------------------------------
 Center     Atomic      Atomic             Coordinates (Angstroms)
 Number     Number       Type             X           Y           Z
 ---------------------------------------------------------------------
      1         12           0       -5.718081    1.194005    0.264450
      2          6           0       -4.898062   -2.141531   -0.422201
      3          6           0       -3.332891    1.275776    2.763407
      4          6           0       -6.192785    4.481184    0.622453
      5          6           0       -8.166360    1.107751   -2.328092
      6          7           0       -4.252277   -0.241863    1.096311
      7          6           0       -4.241610   -1.600865    0.676748
      8          6           0       -3.222994   -2.263635    1.519335
      9          6           0       -2.816199   -1.304081    2.625482
     10          6           0       -3.446494    0.018078    2.185171
     11          6           0       -3.371770   -1.640523    4.001555
     12          6           0       -1.945022   -2.712875    0.742925
     13          6           0       -0.968996   -3.513942    1.531356
     14          6           0        0.286905   -3.841916    0.679011
     15          8           0        0.510217   -3.299422   -0.445203
     16          8           0        1.149678   -4.670866    1.335057
     17          7           0       -4.872868    2.673371    1.398745
     18          6           0       -3.964867    2.526926    2.381120
     19          6           0       -3.671093    3.749541    3.095247
     20          6           0       -4.541678    4.724491    2.525636
     21          6           0       -5.324927    3.962546    1.471521
     22          6           0       -2.682077    3.947824    4.260155
     23          6           0       -4.626330    6.077869    2.837803
     24          8           0       -3.907799    6.774445    3.577402
     25          7           0       -6.911523    2.627652   -0.766693
     26          6           0       -6.998645    3.903631   -0.370724
     27          6           0       -8.007382    4.543046   -1.175711
     28          6           0       -8.595548    3.575973   -2.078116
     29          6           0       -7.880370    2.323708   -1.758123
     30          6           0       -8.429370    5.911016   -1.208727
     31          6           0       -9.603891    3.703579   -3.077973
     32          6           0       -9.006815    3.814893   -4.615402
     33          7           0       -6.436653   -0.202069   -1.070579
     34          6           0       -7.416480   -0.055719   -2.137492
     35          6           0       -7.543758   -1.459229   -2.746997
     36          6           0       -6.642634   -2.229337   -2.091459
     37          6           0       -5.951146   -1.439690   -1.115432
     38          6           0       -8.565045   -1.838887   -3.766120
     39          6           0       -6.111706   -3.579114   -1.932781
     40          8           0       -6.550964   -4.528324   -2.609450
     41          6           0       -4.959815   -3.604675   -0.796074
     42          6           0       -5.359133   -4.657715    0.322465
     43          8           0       -5.869924   -4.347167    1.326976
     44          8           0       -5.135063   -5.865859   -0.207945
     45          6           0       -5.441325   -6.993132    0.744238
     46          6           0        2.298393   -4.986820    0.532387
     47          6           0        3.430631   -4.097882    0.922329
     48          6           0        4.068247   -3.213455    0.063606
     49          6           0        3.658612   -3.060287   -1.308238
     50          6           0        5.226213   -2.330926    0.558123
     51          6           0        6.539703   -2.601393   -0.191396
     52          6           0        7.687590   -1.848955    0.564833
     53          6           0        9.019698   -2.039930   -0.163187
     54          6           0        9.698465   -3.493394    0.044813
     55          6           0        9.997297   -0.920346    0.424328
     56          6           0       11.343208   -0.955764   -0.315117
     57          6           0       12.121665    0.377319    0.084026
     58          6           0       13.522097    0.412202   -0.510268
     59          6           0       14.425401   -0.730881   -0.157244
     60          6           0       14.267432    1.874302   -0.114626
     61          6           0       15.466051    2.184092   -0.912184
     62          6           0       16.051562    3.501129   -0.767384
     63          6           0       17.394031    3.828264   -1.402116
     64          6           0       17.247217    3.939545   -2.905209
     65          6           0       17.997067    5.169209   -0.821755
     66          1           0       -2.993360    1.385085    3.906099
     67          1           0       -6.271366    5.733652    0.556557
     68          1           0       -8.908606    1.002507   -3.215480
     69          1           0       -3.486098   -3.316442    2.170143
     70          1           0       -1.680192   -1.352037    2.782676
     71          1           0       -2.728921   -2.469773    4.303650
     72          1           0       -3.039189   -0.676318    4.687871
     73          1           0       -4.461834   -1.823995    4.027983
     74          1           0       -2.297210   -3.458516    0.056655
     75          1           0       -1.360149   -1.933573    0.182459
     76          1           0       -0.415795   -2.999310    2.348184
     77          1           0       -1.299324   -4.425289    1.817209
     78          1           0       -1.653399    3.215342    4.116273
     79          1           0       -2.678430    4.954454    4.480428
     80          1           0       -2.966996    3.350798    5.091415
     81          1           0       -5.462905    6.885693    2.190838
     82          1           0      -10.149959    3.083165   -3.245450
     83          1           0       -9.931951    4.685221   -2.599493
     84          1           0       -9.683049    3.787974   -5.274112
     85          1           0       -8.290312    4.640570   -4.510163
     86          1           0       -8.541232    2.869397   -4.966261
     87          1           0       -8.443047   -1.538708   -4.640579
     88          1           0       -8.473508   -2.964304   -3.812982
     89          1           0       -9.478334   -1.732193   -3.450108
     90          1           0       -3.993827   -4.053338   -1.340043
     91          1           0        2.445962   -5.987625    0.845766
     92          1           0        1.972312   -4.925229   -0.535904
     93          1           0        3.662631   -3.967617    1.966066
     94          1           0        2.898841   -3.795330   -1.564242
     95          1           0        3.397148   -1.912978   -1.575789
     96          1           0        4.591495   -3.299205   -2.172650
     97          1           0        4.943067   -1.392275    0.434681
     98          1           0        5.365679   -2.633337    1.622298
     99          1           0        6.772656   -3.785589   -0.017912
    100          1           0        6.485016   -2.543107   -1.218338
    101          1           0        7.588567   -0.811300    0.498612
    102          1           0        7.886810   -2.167994    1.750836
    103          1           0        9.072720   -1.682778   -1.278330
    104          1           0        8.958168   -4.144983   -0.152937
    105          1           0       10.487193   -3.706245   -0.700708
    106          1           0       10.071353   -3.424463    1.106224
    107          1           0        9.620313   -0.029359    0.418579
    108          1           0       10.082858   -0.986862    1.505476
    109          1           0       11.924928   -1.780875    0.123220
    110          1           0       11.185773   -0.833717   -1.436369
    111          1           0       11.543940    1.247532    0.015475
    112          1           0       12.270723    0.190930    1.252618
    113          1           0       13.361504    0.617234   -1.666597
    114          1           0       14.392475   -0.832848    0.986477
    115          1           0       14.076224   -1.665379   -0.430427
    116          1           0       15.419962   -0.622495   -0.458073
    117          1           0       13.422144    2.599246   -0.076830
    118          1           0       14.529832    1.801214    0.849983
    119          1           0       16.265409    1.325518   -0.761707
    120          1           0       15.214997    1.969952   -2.002037
    121          1           0       15.291386    4.359467   -1.070741
    122          1           0       16.425593    3.458416    0.407378
    123          1           0       17.937310    2.927330   -0.986516
    124          1           0       16.581192    4.765919   -3.357330
    125          1           0       18.091089    4.062003   -3.414946
    126          1           0       16.680606    3.028559   -3.205918
    127          1           0       18.175280    5.080170    0.355003
    128          1           0       18.786567    5.453391   -1.145303
    129          1           0       17.257583    6.078739   -0.935379
    130          1           0       -5.344472   -7.828014    0.250847
    131          1           0       -6.528888   -6.786053    0.901657
    132          1           0       -4.904050   -6.818910    1.638775
    133          8           0       -7.870350    6.849580   -0.514549
    134          1           0       -9.268663    6.260115   -1.844494
 ---------------------------------------------------------------------

 SCF Done:  E(RCAM-B3LYP) =  -3043.29451707     A.U. after   16 cycles

 Excitation energies and oscillator strengths:

 Excited State   1:      Singlet-A      2.0536 eV  603.75 nm  f=0.1291  <S**2>=0.000
     243 -> 245       -0.15614
     243 -> 246        0.29690
     244 -> 245        0.60531
 This state for optimization and/or second-order correction.
 Total Energy, E(TD-HF/TD-KS) =  -3043.21904953
 Copying the excited state density for this state as the 1-particle RhoCI density.

 The electronic state is 1-A.
 Alpha  occ. eigenvalues --  -46.82736 -19.23305 -19.23246 -19.18489 -19.17418
 Alpha  occ. eigenvalues --  -19.16932 -19.16636 -19.15724 -14.38861 -14.37766
 Alpha  occ. eigenvalues --  -14.37244 -14.37232 -10.35772 -10.35705 -10.31656
 Alpha  occ. eigenvalues --  -10.30877 -10.29790 -10.28181 -10.28091 -10.27640
 Alpha  occ. eigenvalues --  -10.27490 -10.27293 -10.27136 -10.26622 -10.26553
 Alpha  occ. eigenvalues --  -10.26483 -10.26304 -10.26109 -10.26059 -10.25887
 Alpha  occ. eigenvalues --  -10.25782 -10.25160 -10.24939 -10.24570 -10.24357
 Alpha  occ. eigenvalues --  -10.24317 -10.23997 -10.23737 -10.23634 -10.23451
 Alpha  occ. eigenvalues --  -10.23412 -10.23173 -10.23147 -10.23082 -10.22800
 Alpha  occ. eigenvalues --  -10.22450 -10.22309 -10.22203 -10.22176 -10.22087
 Alpha  occ. eigenvalues --  -10.22065 -10.21861 -10.21778 -10.21700 -10.21571
 Alpha  occ. eigenvalues --  -10.21211 -10.21080 -10.20857 -10.20844 -10.20050
 Alpha  occ. eigenvalues --  -10.19991 -10.19756 -10.19588 -10.19547 -10.19462
 Alpha  occ. eigenvalues --  -10.18761  -3.11010  -1.85968  -1.85478  -1.85397
 Alpha  occ. eigenvalues --   -1.14773  -1.13135  -1.07250  -1.05281  -1.04795
 Alpha  occ. eigenvalues --   -1.03201  -1.01866  -1.00775  -0.99203  -0.98713
 Alpha  occ. eigenvalues --   -0.97965  -0.87895  -0.86574  -0.86397  -0.85800
 Alpha  occ. eigenvalues --   -0.85191  -0.84514  -0.84156  -0.84035  -0.83635
 Alpha  occ. eigenvalues --   -0.83330  -0.82676  -0.82190  -0.80607  -0.79848
 Alpha  occ. eigenvalues --   -0.79080  -0.78648  -0.78441  -0.77611  -0.76902
 Alpha  occ. eigenvalues --   -0.75905  -0.75147  -0.74311  -0.73618  -0.72638
 Alpha  occ. eigenvalues --   -0.71653  -0.71303  -0.70986  -0.70957  -0.70111
 Alpha  occ. eigenvalues --   -0.69857  -0.69144  -0.68370  -0.67102  -0.66733
 Alpha  occ. eigenvalues --   -0.66126  -0.64801  -0.63910  -0.62822  -0.62214
 Alpha  occ. eigenvalues --   -0.60958  -0.60826  -0.60226  -0.59551  -0.59019
 Alpha  occ. eigenvalues --   -0.58729  -0.58614  -0.57559  -0.57080  -0.56686
 Alpha  occ. eigenvalues --   -0.56312  -0.55627  -0.55570  -0.55397  -0.54863
 Alpha  occ. eigenvalues --   -0.54580  -0.53979  -0.53543  -0.52712  -0.52416
 Alpha  occ. eigenvalues --   -0.52116  -0.51651  -0.51350  -0.51237  -0.51022
 Alpha  occ. eigenvalues --   -0.50743  -0.50232  -0.50062  -0.49993  -0.49538
 Alpha  occ. eigenvalues --   -0.49164  -0.49026  -0.48708  -0.48539  -0.48429
 Alpha  occ. eigenvalues --   -0.48094  -0.47542  -0.47426  -0.47340  -0.47110
 Alpha  occ. eigenvalues --   -0.46911  -0.46690  -0.46166  -0.46055  -0.45891
 Alpha  occ. eigenvalues --   -0.45677  -0.45446  -0.45389  -0.45215  -0.45102
 Alpha  occ. eigenvalues --   -0.45001  -0.44498  -0.44410  -0.44095  -0.43551
 Alpha  occ. eigenvalues --   -0.43498  -0.43367  -0.42939  -0.42898  -0.42671
 Alpha  occ. eigenvalues --   -0.42506  -0.42406  -0.42095  -0.41504  -0.41368
 Alpha  occ. eigenvalues --   -0.41167  -0.41113  -0.40760  -0.40631  -0.40460
 Alpha  occ. eigenvalues --   -0.40335  -0.40234  -0.40045  -0.39911  -0.39840
 Alpha  occ. eigenvalues --   -0.39612  -0.39514  -0.39347  -0.39310  -0.39226
 Alpha  occ. eigenvalues --   -0.39145  -0.39037  -0.38934  -0.38691  -0.38515
 Alpha  occ. eigenvalues --   -0.38395  -0.38359  -0.37878  -0.37805  -0.37371
 Alpha  occ. eigenvalues --   -0.37301  -0.36920  -0.36427  -0.36096  -0.35759
 Alpha  occ. eigenvalues --   -0.35488  -0.35062  -0.34991  -0.34909  -0.34887
 Alpha  occ. eigenvalues --   -0.34674  -0.34405  -0.33877  -0.33426  -0.33362
 Alpha  occ. eigenvalues --   -0.33153  -0.32676  -0.32104  -0.31560  -0.31259
 Alpha  occ. eigenvalues --   -0.31133  -0.30742  -0.30352  -0.29656  -0.29097
 Alpha  occ. eigenvalues --   -0.28825  -0.28367  -0.27456  -0.27115  -0.26763
 Alpha  occ. eigenvalues --   -0.26475  -0.26396  -0.23067  -0.22114
 Alpha virt. eigenvalues --   -0.08774  -0.07087  -0.01889  -0.01411   0.00120
 Alpha virt. eigenvalues --    0.02230   0.02466   0.03152   0.03547   0.04102
 Alpha virt. eigenvalues --    0.04842   0.05887   0.07368   0.07615   0.09012

 Mulliken charges:
               1
     1  Mg   0.837528
     2  C    0.074924
     3  C   -0.201441
     4  C   -0.195139
     5  C   -0.165553
     6  N   -0.654013
     7  C    0.335208
     8  C   -0.165383
     9  C   -0.143181
    10  C    0.360906
    11  C   -0.291729
    12  C   -0.166509
    13  C   -0.252325
    14  C    0.578583
    15  O   -0.490476
    16  O   -0.459027
    17  N   -0.698376
    18  C    0.308442
    19  C    0.058547
    20  C    0.038095
    21  C    0.329963
    22  C   -0.368934
    23  C    0.183831
    24  O   -0.427063
    25  N   -0.709448
    26  C    0.350537
    27  C   -0.020172
    28  C    0.022064
    29  C    0.278309
    30  C    0.194285
    31  C   -0.162629
    32  C   -0.328833
    33  N   -0.740003
    34  C    0.237215
    35  C   -0.035167
    36  C    0.085185
    37  C    0.322151
    38  C   -0.373662
    39  C    0.348415
    40  O   -0.469439
    41  C   -0.313288
    42  C    0.615369
    43  O   -0.435669
    44  O   -0.455551
    45  C   -0.088700
    46  C   -0.011498
    47  C   -0.131337
    48  C    0.145920
    49  C   -0.335358
    50  C   -0.210456
    51  C   -0.177171
    52  C   -0.153121
    53  C   -0.072111
    54  C   -0.308742
    55  C   -0.185094
    56  C   -0.172966
    57  C   -0.187435
    58  C   -0.041549
    59  C   -0.315805
    60  C   -0.174701
    61  C   -0.163628
    62  C   -0.137794
    63  C   -0.047562
    64  C   -0.310806
    65  C   -0.276801
    66  H    0.076410
    67  H    0.155178
    68  H    0.100799
    69  H    0.082158
    70  H    0.104841
    71  H    0.109254
    72  H    0.082354
    73  H    0.131772
    74  H    0.109756
    75  H    0.135974
    76  H    0.132301
    77  H    0.134315
    78  H    0.102615
    79  H    0.160195
    80  H    0.141531
    81  H    0.041856
    82  H    0.078880
    83  H    0.097885
    84  H    0.124731
    85  H    0.127455
    86  H    0.101630
    87  H    0.136612
    88  H    0.141732
    89  H    0.137555
    90  H    0.148170
    91  H    0.116310
    92  H    0.133112
    93  H    0.083127
    94  H    0.125028
    95  H    0.111070
    96  H    0.061741
    97  H    0.114968
    98  H    0.093780
    99  H    0.073010
   100  H    0.111959
   101  H    0.105519
   102  H    0.070927
   103  H    0.069996
   104  H    0.111050
   105  H    0.105079
   106  H    0.100136
   107  H    0.093013
   108  H    0.076667
   109  H    0.106898
   110  H    0.087907
   111  H    0.097396
   112  H    0.059093
   113  H    0.061328
   114  H    0.087789
   115  H    0.113394
   116  H    0.111672
   117  H    0.079731
   118  H    0.101574
   119  H    0.070998
   120  H    0.077608
   121  H    0.073169
   122  H    0.054809
   123  H    0.081597
   124  H    0.089397
   125  H    0.113202
   126  H    0.097098
   127  H    0.070965
   128  H    0.108454
   129  H    0.081841
   130  H    0.141766
   131  H    0.141616
   132  H    0.140443
   133  O   -0.470675
   134  H    0.088653
 Sum of Mulliken charges =   0.00000

 Dipole moment (field-independent basis, Debye):
    X=              0.7107    Y=             -8.1014    Z=             -0.3984  Tot=              8.1422
 Quadrupole moment (field-independent basis, Debye-Ang):
   XX=           -371.8932   YY=           -447.1709   ZZ=           -388.4894
   XY=             24.5873   XZ=             18.7708   YZ=            -37.1797

 Normal termination of Gaussian 09 at Wed Oct  9 11:54:35 2019.
