 Gaussian 09, Revision D.01,
 Gaussian 09:  ES64L-G09RevD.01 24-Apr-2013

 ----------------------------------------------------------------------
 # td=(NStates=1) iop(3/107=0140000000,3/108=0140000000) iop(3/107=0140
 000000,3/108=0140000000) CAM-B3LYP/6-31G(d,p)
 ----------------------------------------------------------------------

 --
 TD
 --
 Symbolic Z-matrix:
 Charge =  0 Multiplicity = 1

                         Standard orientation:
 ---------------------------------------------------------------------
 Center     Atomic      Atomic             Coordinates (Angstroms)
 Number     Number       Type             X           Y           Z
 ---------------------------------------------------------------------
      1         12           0       -5.577348    1.215227    0.173425
      2          6           0       -4.963823   -2.127124   -0.330625
      3          6           0       -3.442209    1.223258    2.743108
      4          6           0       -6.412057    4.503880    0.804007
      5          6           0       -7.905199    1.122984   -2.388190
      6          7           0       -4.399989   -0.245691    1.144375
      7          6           0       -4.296176   -1.554342    0.718217
      8          6           0       -3.222346   -2.277858    1.526679
      9          6           0       -2.866066   -1.278932    2.701314
     10          6           0       -3.541760    0.024438    2.184344
     11          6           0       -3.398358   -1.786940    4.133080
     12          6           0       -1.908839   -2.663299    0.748280
     13          6           0       -0.914849   -3.635699    1.531104
     14          6           0        0.179789   -3.934601    0.625549
     15          8           0        0.308175   -3.581307   -0.554539
     16          8           0        1.134813   -4.671740    1.330515
     17          7           0       -5.005408    2.617273    1.522963
     18          6           0       -4.104285    2.421327    2.443493
     19          6           0       -3.836430    3.706000    3.062384
     20          6           0       -4.706051    4.598110    2.508990
     21          6           0       -5.476111    3.976411    1.518685
     22          6           0       -2.838288    3.920948    4.226644
     23          6           0       -4.735040    6.052420    2.988049
     24          8           0       -4.045787    6.507128    3.880594
     25          7           0       -6.847242    2.565750   -0.689347
     26          6           0       -6.989643    3.883670   -0.355418
     27          6           0       -7.992810    4.574717   -1.248998
     28          6           0       -8.472091    3.512630   -2.157358
     29          6           0       -7.759941    2.295864   -1.717889
     30          6           0       -8.487058    5.927400   -1.249784
     31          6           0       -9.427476    3.700194   -3.182844
     32          6           0       -8.718201    3.915002   -4.615237
     33          7           0       -6.296727   -0.136473   -1.226513
     34          6           0       -7.202872   -0.055246   -2.195327
     35          6           0       -7.431755   -1.374182   -2.851118
     36          6           0       -6.472627   -2.192033   -2.098369
     37          6           0       -5.915404   -1.492152   -1.162226
     38          6           0       -8.367625   -1.718461   -3.952069
     39          6           0       -6.094016   -3.571710   -2.033483
     40          8           0       -6.365842   -4.639158   -2.669895
     41          6           0       -5.005382   -3.553421   -0.800461
     42          6           0       -5.263330   -4.599041    0.185754
     43          8           0       -5.775891   -4.421106    1.215631
     44          8           0       -4.909860   -5.804595   -0.272891
     45          6           0       -5.143129   -6.885891    0.517669
     46          6           0        2.313538   -5.105280    0.724457
     47          6           0        3.340437   -4.052881    1.117308
     48          6           0        4.092483   -3.271438    0.250032
     49          6           0        3.662922   -3.261720   -1.262091
     50          6           0        5.145692   -2.291464    0.654276
     51          6           0        6.563183   -2.613904   -0.070144
     52          6           0        7.672380   -1.739481    0.418045
     53          6           0        9.131402   -1.927111   -0.104636
     54          6           0        9.570020   -3.434760    0.444458
     55          6           0        9.964328   -0.830300    0.298099
     56          6           0       11.337389   -0.840936   -0.307380
     57          6           0       12.239274    0.314714    0.145318
     58          6           0       13.541998    0.526761   -0.574042
     59          6           0       14.400854   -0.753914   -0.482000
     60          6           0       14.204966    1.819445   -0.226219
     61          6           0       15.444582    2.174566   -1.054482
     62          6           0       16.077498    3.582218   -0.655484
     63          6           0       17.324202    3.872920   -1.305279
     64          6           0       17.314716    4.016999   -2.837129
     65          6           0       17.730308    5.251178   -0.654230
     66          1           0       -2.704586    1.523719    3.681105
     67          1           0       -6.713776    5.425170    0.946236
     68          1           0       -8.794903    1.030496   -3.188547
     69          1           0       -3.614268   -3.118366    1.988157
     70          1           0       -1.863424   -0.982952    2.592247
     71          1           0       -3.135994   -2.653796    4.287510
     72          1           0       -3.018208   -1.039080    4.977187
     73          1           0       -4.554017   -1.964314    4.150975
     74          1           0       -2.035620   -3.192228   -0.280941
     75          1           0       -1.331484   -1.703765    0.597719
     76          1           0       -0.770508   -3.047475    2.249790
     77          1           0       -1.485538   -4.661475    1.967269
     78          1           0       -1.840330    3.747439    3.679488
     79          1           0       -2.862618    4.750729    4.449766
     80          1           0       -3.079714    3.303739    5.067853
     81          1           0       -5.404968    6.751047    2.378539
     82          1           0      -10.005087    2.596561   -3.294160
     83          1           0      -10.194034    4.673041   -3.115609
     84          1           0       -9.421542    3.900464   -5.524214
     85          1           0       -8.100371    4.760931   -4.609936
     86          1           0       -8.224968    2.885444   -4.983695
     87          1           0       -8.273685   -0.857993   -4.594945
     88          1           0       -8.074059   -2.596420   -4.438725
     89          1           0       -9.481405   -1.668788   -3.313844
     90          1           0       -3.981344   -3.651516   -1.239730
     91          1           0        2.675387   -6.094544    1.222715
     92          1           0        2.155481   -5.052777   -0.353308
     93          1           0        3.852337   -3.800285    2.215241
     94          1           0        2.529479   -3.515777   -1.353582
     95          1           0        3.797723   -2.250506   -1.752447
     96          1           0        4.325028   -3.903837   -1.793744
     97          1           0        4.689112   -1.275825    0.332070
     98          1           0        5.165883   -2.312605    1.815297
     99          1           0        6.916800   -3.618367    0.220116
    100          1           0        6.269975   -2.488077   -1.349017
    101          1           0        7.377370   -0.632682    0.031025
    102          1           0        7.760593   -1.591110    1.508953
    103          1           0        9.028391   -1.979339   -1.173766
    104          1           0        8.771218   -4.017648    0.283892
    105          1           0       10.590797   -3.937561    0.046573
    106          1           0        9.625981   -3.316115    1.503730
    107          1           0        9.502206    0.186366    0.161162
    108          1           0       10.141496   -0.803700    1.294327
    109          1           0       11.748079   -1.722372   -0.274663
    110          1           0       11.255857   -0.693011   -1.498953
    111          1           0       11.673216    1.321189    0.138713
    112          1           0       12.630920    0.123015    1.205620
    113          1           0       13.104863    0.591096   -1.665677
    114          1           0       14.415041   -1.073001    0.528524
    115          1           0       13.763934   -1.496792   -1.258666
    116          1           0       15.430726   -0.352912   -0.908117
    117          1           0       13.408684    2.700986   -0.001375
    118          1           0       14.605837    1.576138    0.676252
    119          1           0       16.254773    1.341285   -0.894906
    120          1           0       15.131867    2.037105   -2.086121
    121          1           0       15.271511    4.412825   -0.695410
    122          1           0       15.943987    3.430660    0.453888
    123          1           0       18.059505    3.009676   -1.070071
    124          1           0       16.704191    4.920456   -2.965780
    125          1           0       18.319371    4.246230   -3.250192
    126          1           0       16.784826    3.347147   -3.258509
    127          1           0       17.931939    5.062350    0.341069
    128          1           0       18.666375    5.731358   -1.050208
    129          1           0       16.992275    6.160795   -0.845946
    130          1           0       -4.808016   -7.729864    0.054528
    131          1           0       -6.210232   -6.993133    1.017757
    132          1           0       -4.687442   -6.724239    1.433006
    133          8           0       -8.109587    6.874686   -0.540047
    134          1           0       -9.359632    6.103203   -1.950882
 ---------------------------------------------------------------------

 SCF Done:  E(RCAM-B3LYP) =  -3043.31369754     A.U. after   15 cycles

 Excitation energies and oscillator strengths:

 Excited State   1:      Singlet-A      2.0686 eV  599.36 nm  f=0.1875  <S**2>=0.000
     243 -> 246        0.23667
     244 -> 245        0.66015
 This state for optimization and/or second-order correction.
 Total Energy, E(TD-HF/TD-KS) =  -3043.23767783
 Copying the excited state density for this state as the 1-particle RhoCI density.

 The electronic state is 1-A.
 Alpha  occ. eigenvalues --  -46.81220 -19.22007 -19.21871 -19.18777 -19.18197
 Alpha  occ. eigenvalues --  -19.17031 -19.16842 -19.16761 -14.38598 -14.38108
 Alpha  occ. eigenvalues --  -14.36629 -14.35966 -10.36382 -10.34000 -10.31759
 Alpha  occ. eigenvalues --  -10.31633 -10.30391 -10.28622 -10.27904 -10.27549
 Alpha  occ. eigenvalues --  -10.27279 -10.26965 -10.26901 -10.26677 -10.26205
 Alpha  occ. eigenvalues --  -10.26053 -10.25975 -10.25907 -10.25700 -10.25539
 Alpha  occ. eigenvalues --  -10.24839 -10.24790 -10.24593 -10.24500 -10.24443
 Alpha  occ. eigenvalues --  -10.24400 -10.24306 -10.24080 -10.24011 -10.23983
 Alpha  occ. eigenvalues --  -10.23706 -10.23610 -10.23340 -10.23233 -10.23084
 Alpha  occ. eigenvalues --  -10.23053 -10.22993 -10.22565 -10.22342 -10.22197
 Alpha  occ. eigenvalues --  -10.22102 -10.21941 -10.21879 -10.21778 -10.21412
 Alpha  occ. eigenvalues --  -10.21389 -10.21127 -10.21087 -10.21037 -10.20842
 Alpha  occ. eigenvalues --  -10.20467 -10.20459 -10.20364 -10.20175 -10.19397
 Alpha  occ. eigenvalues --  -10.18796  -3.09811  -1.84757  -1.84288  -1.84210
 Alpha  occ. eigenvalues --   -1.15811  -1.12863  -1.07674  -1.07259  -1.05336
 Alpha  occ. eigenvalues --   -1.05062  -1.03653  -1.01058  -1.00328  -0.99030
 Alpha  occ. eigenvalues --   -0.98419  -0.89747  -0.86871  -0.86433  -0.85966
 Alpha  occ. eigenvalues --   -0.85353  -0.85281  -0.84241  -0.84098  -0.83661
 Alpha  occ. eigenvalues --   -0.83449  -0.82968  -0.82215  -0.81427  -0.80043
 Alpha  occ. eigenvalues --   -0.79693  -0.78318  -0.77814  -0.77404  -0.76501
 Alpha  occ. eigenvalues --   -0.76090  -0.74869  -0.73816  -0.73582  -0.72811
 Alpha  occ. eigenvalues --   -0.72064  -0.70926  -0.70411  -0.70323  -0.69866
 Alpha  occ. eigenvalues --   -0.69459  -0.68975  -0.68054  -0.66843  -0.66746
 Alpha  occ. eigenvalues --   -0.66318  -0.65210  -0.64727  -0.63159  -0.62495
 Alpha  occ. eigenvalues --   -0.62170  -0.61705  -0.60961  -0.59948  -0.59651
 Alpha  occ. eigenvalues --   -0.58905  -0.58817  -0.57979  -0.57438  -0.56750
 Alpha  occ. eigenvalues --   -0.56713  -0.56008  -0.55672  -0.55400  -0.55123
 Alpha  occ. eigenvalues --   -0.53894  -0.53632  -0.53136  -0.52172  -0.51924
 Alpha  occ. eigenvalues --   -0.51715  -0.51528  -0.51174  -0.51040  -0.51018
 Alpha  occ. eigenvalues --   -0.49950  -0.49821  -0.49782  -0.49513  -0.49305
 Alpha  occ. eigenvalues --   -0.48855  -0.48769  -0.48541  -0.48339  -0.48100
 Alpha  occ. eigenvalues --   -0.47867  -0.47789  -0.47683  -0.47529  -0.46986
 Alpha  occ. eigenvalues --   -0.46860  -0.46790  -0.46761  -0.46535  -0.46240
 Alpha  occ. eigenvalues --   -0.46039  -0.45651  -0.45470  -0.45064  -0.45033
 Alpha  occ. eigenvalues --   -0.44445  -0.44359  -0.44319  -0.44209  -0.44064
 Alpha  occ. eigenvalues --   -0.43666  -0.43560  -0.43112  -0.42926  -0.42710
 Alpha  occ. eigenvalues --   -0.42617  -0.42470  -0.42340  -0.42219  -0.42042
 Alpha  occ. eigenvalues --   -0.41723  -0.41438  -0.41347  -0.41102  -0.40961
 Alpha  occ. eigenvalues --   -0.40901  -0.40568  -0.40398  -0.40330  -0.40212
 Alpha  occ. eigenvalues --   -0.39834  -0.39657  -0.39498  -0.39458  -0.39206
 Alpha  occ. eigenvalues --   -0.38991  -0.38799  -0.38616  -0.38300  -0.38226
 Alpha  occ. eigenvalues --   -0.38075  -0.37957  -0.37591  -0.37378  -0.36953
 Alpha  occ. eigenvalues --   -0.36854  -0.36804  -0.36506  -0.36244  -0.36193
 Alpha  occ. eigenvalues --   -0.35720  -0.35342  -0.34883  -0.34865  -0.34300
 Alpha  occ. eigenvalues --   -0.34183  -0.34126  -0.33296  -0.32995  -0.32676
 Alpha  occ. eigenvalues --   -0.32636  -0.32247  -0.32120  -0.32067  -0.31952
 Alpha  occ. eigenvalues --   -0.31724  -0.31509  -0.31217  -0.30953  -0.30332
 Alpha  occ. eigenvalues --   -0.28753  -0.28451  -0.27884  -0.27697  -0.27522
 Alpha  occ. eigenvalues --   -0.27243  -0.26134  -0.23674  -0.21824
 Alpha virt. eigenvalues --   -0.08755  -0.06996  -0.01805  -0.01340   0.00397
 Alpha virt. eigenvalues --    0.01090   0.03383   0.04168   0.04258   0.04553
 Alpha virt. eigenvalues --    0.04905   0.05530   0.06586   0.07387   0.08765

 Mulliken charges:
               1
     1  Mg   0.814999
     2  C    0.077744
     3  C   -0.195376
     4  C   -0.118232
     5  C   -0.169870
     6  N   -0.653248
     7  C    0.327110
     8  C   -0.167324
     9  C   -0.143620
    10  C    0.342143
    11  C   -0.296917
    12  C   -0.205417
    13  C   -0.234203
    14  C    0.618435
    15  O   -0.465118
    16  O   -0.456671
    17  N   -0.757076
    18  C    0.380268
    19  C   -0.026229
    20  C   -0.054879
    21  C    0.343860
    22  C   -0.292014
    23  C    0.260169
    24  O   -0.399790
    25  N   -0.689268
    26  C    0.276104
    27  C   -0.031547
    28  C    0.120041
    29  C    0.312858
    30  C    0.228201
    31  C   -0.295386
    32  C   -0.305649
    33  N   -0.723964
    34  C    0.297960
    35  C    0.014361
    36  C    0.045709
    37  C    0.286335
    38  C   -0.353030
    39  C    0.339652
    40  O   -0.488686
    41  C   -0.345876
    42  C    0.621106
    43  O   -0.452648
    44  O   -0.417963
    45  C   -0.080488
    46  C   -0.007219
    47  C   -0.123918
    48  C    0.123848
    49  C   -0.389114
    50  C   -0.221853
    51  C   -0.158190
    52  C   -0.174738
    53  C   -0.060417
    54  C   -0.327265
    55  C   -0.148987
    56  C   -0.164673
    57  C   -0.160903
    58  C   -0.063452
    59  C   -0.292437
    60  C   -0.165583
    61  C   -0.198722
    62  C   -0.148293
    63  C   -0.059981
    64  C   -0.292946
    65  C   -0.313515
    66  H    0.077389
    67  H    0.099952
    68  H    0.084573
    69  H    0.118564
    70  H    0.113683
    71  H    0.131634
    72  H    0.102418
    73  H    0.116755
    74  H    0.120261
    75  H    0.110446
    76  H    0.151775
    77  H    0.120773
    78  H    0.109956
    79  H    0.124308
    80  H    0.126541
    81  H    0.083572
    82  H    0.088614
    83  H    0.115528
    84  H    0.107031
    85  H    0.135746
    86  H    0.093163
    87  H    0.133409
    88  H    0.160094
    89  H    0.115655
    90  H    0.159220
    91  H    0.121383
    92  H    0.130144
    93  H    0.055324
    94  H    0.139097
    95  H    0.096760
    96  H    0.124095
    97  H    0.105665
    98  H    0.082632
    99  H    0.107167
   100  H    0.068422
   101  H    0.064146
   102  H    0.094451
   103  H    0.089344
   104  H    0.113592
   105  H    0.087043
   106  H    0.106648
   107  H    0.084018
   108  H    0.099398
   109  H    0.105545
   110  H    0.054599
   111  H    0.074004
   112  H    0.064125
   113  H    0.056567
   114  H    0.110919
   115  H    0.089754
   116  H    0.090143
   117  H    0.071627
   118  H    0.102001
   119  H    0.077092
   120  H    0.096635
   121  H    0.079751
   122  H    0.094414
   123  H    0.077188
   124  H    0.093907
   125  H    0.105568
   126  H    0.111178
   127  H    0.114164
   128  H    0.084045
   129  H    0.089293
   130  H    0.125326
   131  H    0.101709
   132  H    0.111550
   133  O   -0.444660
   134  H    0.054952
 Sum of Mulliken charges =   0.00000

 Dipole moment (field-independent basis, Debye):
    X=              1.7714    Y=             -3.0452    Z=             -0.0023  Tot=              3.5229
 Quadrupole moment (field-independent basis, Debye-Ang):
   XX=           -386.2141   YY=           -444.1175   ZZ=           -390.8226
   XY=              4.6815   XZ=             26.6342   YZ=            -33.9378

 Normal termination of Gaussian 09 at Mon Oct  7 21:09:24 2019.
