 Gaussian 09, Revision D.01,
 Gaussian 09:  ES64L-G09RevD.01 24-Apr-2013

 ----------------------------------------------------------------------
 # td=(NStates=1) iop(3/107=0140000000,3/108=0140000000) iop(3/107=0140
 000000,3/108=0140000000) CAM-B3LYP/6-31G(d,p)
 ----------------------------------------------------------------------

 --
 TD
 --
 Symbolic Z-matrix:
 Charge =  0 Multiplicity = 1

                         Standard orientation:
 ---------------------------------------------------------------------
 Center     Atomic      Atomic             Coordinates (Angstroms)
 Number     Number       Type             X           Y           Z
 ---------------------------------------------------------------------
      1         12           0       -5.520723    1.196758    0.207843
      2          6           0       -5.027789   -2.122975   -0.386123
      3          6           0       -3.469686    1.145718    2.822119
      4          6           0       -6.249499    4.547355    0.560347
      5          6           0       -7.855202    1.150749   -2.481491
      6          7           0       -4.390218   -0.296227    1.061938
      7          6           0       -4.233354   -1.583353    0.694875
      8          6           0       -3.197271   -2.271257    1.532059
      9          6           0       -2.876602   -1.357037    2.634880
     10          6           0       -3.543608   -0.070190    2.129599
     11          6           0       -3.407427   -1.743665    3.978739
     12          6           0       -1.968314   -2.657908    0.650349
     13          6           0       -1.003013   -3.640754    1.425863
     14          6           0        0.238585   -3.902512    0.541804
     15          8           0        0.418799   -3.436825   -0.543866
     16          8           0        1.071701   -4.765316    1.200685
     17          7           0       -4.906014    2.516048    1.482347
     18          6           0       -3.993599    2.419070    2.470467
     19          6           0       -3.728442    3.641670    3.188282
     20          6           0       -4.544347    4.603603    2.648205
     21          6           0       -5.319387    3.975130    1.584232
     22          6           0       -2.868759    3.823728    4.378552
     23          6           0       -4.671665    6.042613    2.962365
     24          8           0       -3.944537    6.617143    3.851051
     25          7           0       -6.844831    2.624380   -0.754640
     26          6           0       -6.964950    3.946191   -0.372253
     27          6           0       -7.846835    4.583273   -1.344075
     28          6           0       -8.402170    3.604382   -2.118016
     29          6           0       -7.748392    2.331809   -1.776063
     30          6           0       -8.306482    6.001500   -1.239133
     31          6           0       -9.457141    3.816491   -3.216533
     32          6           0       -8.898792    4.047073   -4.577035
     33          7           0       -6.376668   -0.115700   -1.084702
     34          6           0       -7.202311   -0.049195   -2.158473
     35          6           0       -7.481482   -1.308500   -2.693529
     36          6           0       -6.590133   -2.186478   -2.109674
     37          6           0       -5.995066   -1.436721   -1.122984
     38          6           0       -8.367703   -1.621998   -3.857671
     39          6           0       -6.255873   -3.655380   -2.024578
     40          8           0       -6.579749   -4.635348   -2.547838
     41          6           0       -5.142591   -3.569435   -0.862028
     42          6           0       -5.449632   -4.534768    0.226906
     43          8           0       -5.887889   -4.404343    1.354292
     44          8           0       -5.354200   -5.849260   -0.251935
     45          6           0       -5.646032   -6.908488    0.674688
     46          6           0        2.408927   -5.067099    0.662487
     47          6           0        3.398904   -4.055296    0.995715
     48          6           0        4.022842   -3.215264    0.143700
     49          6           0        3.661630   -2.933615   -1.292444
     50          6           0        5.100755   -2.337812    0.706996
     51          6           0        6.513526   -2.551730   -0.024896
     52          6           0        7.582405   -1.577635    0.492530
     53          6           0        8.995796   -1.836832   -0.089855
     54          6           0        9.510627   -3.346249    0.213670
     55          6           0        9.988717   -0.824514    0.332216
     56          6           0       11.372630   -0.901441   -0.380034
     57          6           0       12.212989    0.313450    0.168025
     58          6           0       13.552419    0.390156   -0.615934
     59          6           0       14.556162   -0.749338   -0.376138
     60          6           0       14.271185    1.762352   -0.097240
     61          6           0       15.547321    2.061694   -1.065883
     62          6           0       16.041414    3.462138   -0.622980
     63          6           0       17.362592    3.698424   -1.222958
     64          6           0       17.406025    3.894429   -2.727987
     65          6           0       18.039845    4.971267   -0.666389
     66          1           0       -2.710665    1.289587    3.570467
     67          1           0       -6.523135    5.605542    0.759004
     68          1           0       -8.437448    1.157941   -3.380576
     69          1           0       -3.577038   -3.214500    1.996425
     70          1           0       -1.741305   -1.248753    2.822178
     71          1           0       -2.816027   -2.539694    4.387861
     72          1           0       -3.306674   -1.093759    4.967746
     73          1           0       -4.555454   -1.822654    4.054056
     74          1           0       -2.305697   -3.199206   -0.117305
     75          1           0       -1.415652   -1.841428    0.282385
     76          1           0       -0.842034   -3.048716    2.308950
     77          1           0       -1.446944   -4.636321    1.685230
     78          1           0       -1.776818    3.510128    4.220059
     79          1           0       -3.073979    4.802133    4.817501
     80          1           0       -3.358610    3.155573    5.266286
     81          1           0       -5.500847    6.740450    2.557624
     82          1           0       -9.969177    2.793254   -3.341059
     83          1           0      -10.152465    4.531582   -3.192717
     84          1           0       -9.677759    3.914151   -5.420272
     85          1           0       -8.546535    5.115858   -4.587898
     86          1           0       -7.925884    3.570532   -4.690623
     87          1           0       -8.204333   -0.919376   -4.794808
     88          1           0       -8.154429   -2.656947   -4.272348
     89          1           0       -9.359918   -1.730329   -3.622345
     90          1           0       -4.149024   -3.968713   -1.395185
     91          1           0        2.659672   -6.125815    1.102228
     92          1           0        2.331569   -5.165910   -0.402456
     93          1           0        3.624306   -4.114661    1.966366
     94          1           0        2.649476   -3.112274   -1.484949
     95          1           0        3.757963   -1.990669   -1.793685
     96          1           0        4.164464   -3.763810   -2.008652
     97          1           0        4.653766   -1.305692    0.575517
     98          1           0        5.439957   -2.108336    1.768560
     99          1           0        6.630565   -3.650041    0.120107
    100          1           0        6.361947   -2.256768   -1.193180
    101          1           0        7.361227   -0.596147    0.360680
    102          1           0        7.506140   -1.704770    1.695689
    103          1           0        8.576826   -1.900169   -1.096045
    104          1           0        8.888914   -4.276617   -0.133556
    105          1           0       10.567254   -3.372305   -0.312424
    106          1           0        9.611820   -3.359428    1.302860
    107          1           0        9.687077    0.174210    0.023441
    108          1           0       10.246896   -0.862083    1.514797
    109          1           0       11.818521   -1.769390   -0.113058
    110          1           0       11.570690   -0.801603   -1.552123
    111          1           0       11.672306    1.220631   -0.003267
    112          1           0       12.425453    0.139611    1.144828
    113          1           0       13.306599    0.538235   -1.544389
    114          1           0       14.860961   -0.845756    0.680943
    115          1           0       14.139366   -1.682396   -0.727901
    116          1           0       15.403902   -0.407580   -1.090812
    117          1           0       13.658456    2.545370   -0.300985
    118          1           0       14.682648    1.786531    0.770439
    119          1           0       16.319424    1.272830   -0.972184
    120          1           0       15.357205    2.007722   -2.112752
    121          1           0       15.207137    4.184373   -0.870089
    122          1           0       16.216028    3.544417    0.505761
    123          1           0       18.231487    2.822988   -1.367925
    124          1           0       16.685002    4.801310   -2.993148
    125          1           0       18.528394    4.034916   -3.229755
    126          1           0       17.019672    2.867570   -3.175581
    127          1           0       18.459934    4.862889    0.156086
    128          1           0       19.147990    5.051486   -1.447973
    129          1           0       17.462112    6.042943   -0.598134
    130          1           0       -5.493690   -7.577068    0.093795
    131          1           0       -6.607863   -6.941499    0.824213
    132          1           0       -5.129703   -6.747368    1.507830
    133          8           0       -7.912565    6.885092   -0.520130
    134          1           0       -9.184184    6.223076   -2.020174
 ---------------------------------------------------------------------

 SCF Done:  E(RCAM-B3LYP) =  -3043.38127119     A.U. after   16 cycles

 Excitation energies and oscillator strengths:

 Excited State   1:      Singlet-A      1.9566 eV  633.68 nm  f=0.2113  <S**2>=0.000
     243 -> 246        0.26400
     244 -> 245        0.64845
 This state for optimization and/or second-order correction.
 Total Energy, E(TD-HF/TD-KS) =  -3043.30936786
 Copying the excited state density for this state as the 1-particle RhoCI density.

 The electronic state is 1-A.
 Alpha  occ. eigenvalues --  -46.80927 -19.21607 -19.19898 -19.19277 -19.18196
 Alpha  occ. eigenvalues --  -19.17911 -19.16992 -19.16988 -14.39648 -14.37133
 Alpha  occ. eigenvalues --  -14.36641 -14.36326 -10.35325 -10.34560 -10.33014
 Alpha  occ. eigenvalues --  -10.31554 -10.31435 -10.28379 -10.27990 -10.27706
 Alpha  occ. eigenvalues --  -10.27583 -10.26640 -10.26176 -10.25863 -10.25662
 Alpha  occ. eigenvalues --  -10.25533 -10.25483 -10.25159 -10.24892 -10.24552
 Alpha  occ. eigenvalues --  -10.24506 -10.24386 -10.24334 -10.24109 -10.24030
 Alpha  occ. eigenvalues --  -10.23986 -10.23867 -10.23849 -10.23118 -10.23053
 Alpha  occ. eigenvalues --  -10.23033 -10.22988 -10.22902 -10.22901 -10.22691
 Alpha  occ. eigenvalues --  -10.22671 -10.22489 -10.22470 -10.22307 -10.22249
 Alpha  occ. eigenvalues --  -10.22202 -10.22154 -10.21936 -10.21926 -10.21914
 Alpha  occ. eigenvalues --  -10.21830 -10.21580 -10.21314 -10.21264 -10.20665
 Alpha  occ. eigenvalues --  -10.20626 -10.20457 -10.20346 -10.20302 -10.19152
 Alpha  occ. eigenvalues --  -10.18867  -3.09670  -1.84589  -1.84148  -1.84097
 Alpha  occ. eigenvalues --   -1.12654  -1.12194  -1.11343  -1.08126  -1.05257
 Alpha  occ. eigenvalues --   -1.03274  -1.03076  -1.01609  -1.00751  -0.98620
 Alpha  occ. eigenvalues --   -0.97395  -0.88917  -0.86875  -0.86072  -0.85408
 Alpha  occ. eigenvalues --   -0.85347  -0.84682  -0.84396  -0.83960  -0.83756
 Alpha  occ. eigenvalues --   -0.83188  -0.83032  -0.81551  -0.80370  -0.79862
 Alpha  occ. eigenvalues --   -0.79269  -0.78505  -0.78096  -0.77566  -0.76513
 Alpha  occ. eigenvalues --   -0.74919  -0.74678  -0.74274  -0.73741  -0.71900
 Alpha  occ. eigenvalues --   -0.71491  -0.70341  -0.69725  -0.69627  -0.69474
 Alpha  occ. eigenvalues --   -0.69368  -0.69021  -0.67396  -0.66551  -0.66011
 Alpha  occ. eigenvalues --   -0.65569  -0.64897  -0.64371  -0.62931  -0.62241
 Alpha  occ. eigenvalues --   -0.61745  -0.61217  -0.60654  -0.60482  -0.59107
 Alpha  occ. eigenvalues --   -0.58476  -0.58299  -0.57863  -0.57708  -0.57541
 Alpha  occ. eigenvalues --   -0.56563  -0.56518  -0.56202  -0.55063  -0.54727
 Alpha  occ. eigenvalues --   -0.53935  -0.53438  -0.53145  -0.52656  -0.52468
 Alpha  occ. eigenvalues --   -0.51853  -0.51663  -0.51448  -0.51221  -0.50706
 Alpha  occ. eigenvalues --   -0.50189  -0.50040  -0.49839  -0.49724  -0.49313
 Alpha  occ. eigenvalues --   -0.49074  -0.48883  -0.48451  -0.48010  -0.47871
 Alpha  occ. eigenvalues --   -0.47752  -0.47365  -0.47281  -0.47245  -0.47058
 Alpha  occ. eigenvalues --   -0.46669  -0.46511  -0.46467  -0.46241  -0.45996
 Alpha  occ. eigenvalues --   -0.45969  -0.45645  -0.45531  -0.45279  -0.44932
 Alpha  occ. eigenvalues --   -0.44669  -0.44567  -0.44311  -0.43849  -0.43797
 Alpha  occ. eigenvalues --   -0.43773  -0.43674  -0.43379  -0.43245  -0.43163
 Alpha  occ. eigenvalues --   -0.42584  -0.42514  -0.42283  -0.41955  -0.41887
 Alpha  occ. eigenvalues --   -0.41666  -0.41444  -0.41357  -0.41153  -0.40946
 Alpha  occ. eigenvalues --   -0.40809  -0.40793  -0.40356  -0.40330  -0.40046
 Alpha  occ. eigenvalues --   -0.39979  -0.39876  -0.39331  -0.39219  -0.38824
 Alpha  occ. eigenvalues --   -0.38693  -0.38521  -0.38489  -0.38414  -0.38368
 Alpha  occ. eigenvalues --   -0.38277  -0.38015  -0.37699  -0.37568  -0.37316
 Alpha  occ. eigenvalues --   -0.37002  -0.36892  -0.36387  -0.36088  -0.35900
 Alpha  occ. eigenvalues --   -0.35783  -0.35431  -0.35278  -0.35043  -0.34258
 Alpha  occ. eigenvalues --   -0.34039  -0.33904  -0.33651  -0.33404  -0.32921
 Alpha  occ. eigenvalues --   -0.32461  -0.32428  -0.31956  -0.31807  -0.31422
 Alpha  occ. eigenvalues --   -0.31286  -0.31212  -0.30480  -0.29940  -0.29176
 Alpha  occ. eigenvalues --   -0.28907  -0.28592  -0.28539  -0.28065  -0.27656
 Alpha  occ. eigenvalues --   -0.27520  -0.27284  -0.22807  -0.21651
 Alpha virt. eigenvalues --   -0.09063  -0.06231  -0.02126  -0.01568   0.00637
 Alpha virt. eigenvalues --    0.02422   0.02871   0.03418   0.03793   0.04164
 Alpha virt. eigenvalues --    0.04811   0.05611   0.07700   0.08248   0.08936

 Mulliken charges:
               1
     1  Mg   0.832887
     2  C    0.049766
     3  C   -0.170424
     4  C   -0.184283
     5  C   -0.181380
     6  N   -0.627601
     7  C    0.337979
     8  C   -0.169475
     9  C   -0.123068
    10  C    0.311592
    11  C   -0.315960
    12  C   -0.169016
    13  C   -0.279054
    14  C    0.604131
    15  O   -0.444241
    16  O   -0.479523
    17  N   -0.700551
    18  C    0.314634
    19  C    0.071361
    20  C    0.009328
    21  C    0.199383
    22  C   -0.394126
    23  C    0.217627
    24  O   -0.434707
    25  N   -0.683972
    26  C    0.328385
    27  C   -0.021877
    28  C   -0.002991
    29  C    0.329368
    30  C    0.261928
    31  C   -0.225054
    32  C   -0.317405
    33  N   -0.705695
    34  C    0.293805
    35  C    0.024634
    36  C    0.000594
    37  C    0.293568
    38  C   -0.397399
    39  C    0.404952
    40  O   -0.382989
    41  C   -0.355015
    42  C    0.608005
    43  O   -0.479555
    44  O   -0.491873
    45  C   -0.026822
    46  C   -0.011935
    47  C   -0.102534
    48  C    0.135853
    49  C   -0.392463
    50  C   -0.236609
    51  C   -0.173205
    52  C   -0.164719
    53  C   -0.046203
    54  C   -0.319452
    55  C   -0.168654
    56  C   -0.190203
    57  C   -0.171184
    58  C   -0.066293
    59  C   -0.305133
    60  C   -0.168966
    61  C   -0.220995
    62  C   -0.162031
    63  C   -0.041373
    64  C   -0.269876
    65  C   -0.264542
    66  H    0.077237
    67  H    0.125785
    68  H    0.094565
    69  H    0.129732
    70  H    0.103875
    71  H    0.114895
    72  H    0.098047
    73  H    0.126250
    74  H    0.120016
    75  H    0.128253
    76  H    0.131341
    77  H    0.134808
    78  H    0.122882
    79  H    0.168750
    80  H    0.100834
    81  H    0.107192
    82  H    0.095770
    83  H    0.125385
    84  H    0.106778
    85  H    0.102228
    86  H    0.115206
    87  H    0.112849
    88  H    0.134149
    89  H    0.143538
    90  H    0.153155
    91  H    0.107487
    92  H    0.118464
    93  H    0.086181
    94  H    0.159070
    95  H    0.127301
    96  H    0.097839
    97  H    0.092177
    98  H    0.095395
    99  H    0.107960
   100  H    0.075071
   101  H    0.106094
   102  H    0.046480
   103  H    0.093447
   104  H    0.095577
   105  H    0.091246
   106  H    0.105679
   107  H    0.098512
   108  H    0.082766
   109  H    0.109400
   110  H    0.069746
   111  H    0.087433
   112  H    0.093834
   113  H    0.087759
   114  H    0.104269
   115  H    0.100046
   116  H    0.094155
   117  H    0.091637
   118  H    0.101743
   119  H    0.094674
   120  H    0.102558
   121  H    0.098704
   122  H    0.088284
   123  H    0.075477
   124  H    0.077888
   125  H    0.083390
   126  H    0.072854
   127  H    0.119747
   128  H    0.025425
   129  H    0.081749
   130  H    0.113306
   131  H    0.121936
   132  H    0.120601
   133  O   -0.405448
   134  H    0.039210
 Sum of Mulliken charges =   0.00000

 Dipole moment (field-independent basis, Debye):
    X=              1.9067    Y=             -4.8767    Z=             -1.2410  Tot=              5.3812
 Quadrupole moment (field-independent basis, Debye-Ang):
   XX=           -392.4540   YY=           -444.7591   ZZ=           -392.2212
   XY=              4.6361   XZ=             31.6915   YZ=            -27.4947

 Normal termination of Gaussian 09 at Thu Oct  3 16:08:19 2019.
