 Gaussian 09, Revision D.01,
 Gaussian 09:  ES64L-G09RevD.01 24-Apr-2013

 ----------------------------------------------------------------------
 # td=(NStates=1) iop(3/107=0140000000,3/108=0140000000) iop(3/107=0140
 000000,3/108=0140000000) CAM-B3LYP/6-31G(d,p)
 ----------------------------------------------------------------------

 --
 TD
 --
 Symbolic Z-matrix:
 Charge =  0 Multiplicity = 1

                         Standard orientation:
 ---------------------------------------------------------------------
 Center     Atomic      Atomic             Coordinates (Angstroms)
 Number     Number       Type             X           Y           Z
 ---------------------------------------------------------------------
      1         12           0       -5.587370    1.225358    0.235091
      2          6           0       -5.025331   -2.131204   -0.383479
      3          6           0       -3.406618    1.188909    2.789289
      4          6           0       -6.249359    4.572534    0.670455
      5          6           0       -7.905586    1.139386   -2.402338
      6          7           0       -4.433904   -0.294670    1.103913
      7          6           0       -4.304779   -1.579471    0.697792
      8          6           0       -3.265255   -2.350164    1.408819
      9          6           0       -3.032114   -1.402532    2.686999
     10          6           0       -3.675169   -0.078160    2.211049
     11          6           0       -3.637806   -1.861406    3.984270
     12          6           0       -1.984402   -2.577575    0.608273
     13          6           0       -1.083476   -3.487315    1.354147
     14          6           0        0.173829   -3.850783    0.641601
     15          8           0        0.458341   -3.487398   -0.485219
     16          8           0        1.028233   -4.741349    1.353005
     17          7           0       -4.953396    2.585223    1.524278
     18          6           0       -3.973984    2.404018    2.454098
     19          6           0       -3.681554    3.646475    3.184548
     20          6           0       -4.454053    4.618854    2.425356
     21          6           0       -5.249554    3.925130    1.486420
     22          6           0       -2.614782    3.802903    4.198626
     23          6           0       -4.410932    6.072661    2.751829
     24          8           0       -3.941591    6.642462    3.779239
     25          7           0       -6.765784    2.594954   -0.784272
     26          6           0       -6.912649    3.917229   -0.381970
     27          6           0       -8.020320    4.600956   -1.198957
     28          6           0       -8.440149    3.632312   -2.083336
     29          6           0       -7.672348    2.414218   -1.768887
     30          6           0       -8.424896    6.026376   -1.005338
     31          6           0       -9.408098    3.747928   -3.116934
     32          6           0       -8.725240    3.983990   -4.444635
     33          7           0       -6.276771   -0.063368   -1.203278
     34          6           0       -7.285673   -0.019290   -2.152513
     35          6           0       -7.567069   -1.385034   -2.768118
     36          6           0       -6.619925   -2.135358   -2.139855
     37          6           0       -5.983467   -1.354523   -1.126724
     38          6           0       -8.458550   -1.652533   -3.905840
     39          6           0       -6.145010   -3.557474   -1.959244
     40          8           0       -6.483586   -4.603329   -2.482472
     41          6           0       -5.014569   -3.593321   -0.925338
     42          6           0       -5.209526   -4.584565    0.066210
     43          8           0       -5.728952   -4.519105    1.205106
     44          8           0       -4.879538   -5.772228   -0.360883
     45          6           0       -5.136792   -6.966864    0.554239
     46          6           0        2.277259   -5.041798    0.709454
     47          6           0        3.348091   -4.037532    1.000648
     48          6           0        4.005827   -3.254593    0.214602
     49          6           0        3.662595   -3.186313   -1.295941
     50          6           0        5.174824   -2.419126    0.619739
     51          6           0        6.596702   -2.747815    0.065537
     52          6           0        7.642767   -1.746194    0.670037
     53          6           0        8.976612   -1.991136    0.020312
     54          6           0        9.519481   -3.356154    0.176981
     55          6           0       10.012785   -0.961904    0.480610
     56          6           0       11.273574   -0.940157   -0.204018
     57          6           0       12.187063    0.340462    0.130347
     58          6           0       13.485860    0.538549   -0.641632
     59          6           0       14.354067   -0.746941   -0.598111
     60          6           0       14.247471    1.745099   -0.091636
     61          6           0       15.398340    2.153039   -0.971908
     62          6           0       16.036989    3.497026   -0.577818
     63          6           0       17.342251    3.940837   -1.352070
     64          6           0       17.041779    3.962471   -2.855805
     65          6           0       17.819185    5.283788   -0.812353
     66          1           0       -2.543070    1.222008    3.416429
     67          1           0       -6.434957    5.556581    0.806764
     68          1           0       -8.729002    0.993220   -3.311564
     69          1           0       -3.664173   -3.212078    2.012693
     70          1           0       -1.997263   -1.235660    2.876101
     71          1           0       -3.256672   -2.668144    4.514545
     72          1           0       -3.510027   -0.930713    4.561919
     73          1           0       -4.697646   -1.949361    4.078124
     74          1           0       -2.352503   -3.094054   -0.404072
     75          1           0       -1.450644   -1.628588    0.156965
     76          1           0       -0.734449   -3.086831    2.207389
     77          1           0       -1.488129   -4.467185    1.638513
     78          1           0       -1.654861    3.539687    3.630780
     79          1           0       -2.821761    4.813777    4.532148
     80          1           0       -2.895215    3.056331    4.947652
     81          1           0       -4.876546    6.689508    1.797611
     82          1           0      -10.196005    2.931919   -2.955654
     83          1           0      -10.043251    4.573754   -2.895721
     84          1           0       -9.505525    4.033409   -5.270389
     85          1           0       -8.106979    4.897171   -4.499913
     86          1           0       -7.973273    3.259379   -4.986271
     87          1           0       -8.361741   -0.854613   -4.726058
     88          1           0       -8.306038   -2.728014   -4.462647
     89          1           0       -9.533402   -1.678001   -3.579712
     90          1           0       -3.987969   -3.600934   -1.196445
     91          1           0        2.673935   -6.051653    1.175145
     92          1           0        2.233700   -5.178273   -0.409592
     93          1           0        3.597260   -3.894634    2.096727
     94          1           0        2.598387   -3.618299   -1.466782
     95          1           0        3.925166   -2.170922   -1.805754
     96          1           0        4.388809   -3.823646   -1.733738
     97          1           0        4.955673   -1.445858    0.128464
     98          1           0        5.254483   -2.410573    1.746241
     99          1           0        6.957010   -3.675064    0.454910
    100          1           0        6.759539   -2.737966   -1.043637
    101          1           0        7.373992   -0.543650    0.798211
    102          1           0        7.584527   -2.108560    1.825755
    103          1           0        8.915577   -1.670978   -1.232501
    104          1           0        8.752286   -4.057327   -0.416504
    105          1           0       10.471327   -3.716925   -0.132853
    106          1           0        9.607207   -3.368061    1.273059
    107          1           0        9.512165    0.061812    0.650098
    108          1           0       10.350825   -1.057223    1.551017
    109          1           0       11.896197   -1.884659    0.003214
    110          1           0       11.073115   -0.981728   -1.309153
    111          1           0       11.676291    1.297567   -0.107888
    112          1           0       12.288714    0.365832    1.147639
    113          1           0       13.174544    0.627495   -1.714681
    114          1           0       14.831989   -0.885559    0.415872
    115          1           0       13.963701   -1.690560   -0.995606
    116          1           0       15.294997   -0.359675   -1.228838
    117          1           0       13.427934    2.740608   -0.142011
    118          1           0       14.599166    1.555666    1.003787
    119          1           0       16.129917    1.377664   -0.877625
    120          1           0       15.094463    2.144311   -2.063869
    121          1           0       15.342645    4.337162   -0.672540
    122          1           0       16.201686    3.696295    0.538974
    123          1           0       18.255909    3.384574   -1.239058
    124          1           0       16.317913    4.782617   -3.245845
    125          1           0       17.988218    3.866900   -3.430278
    126          1           0       16.525351    3.034908   -3.177334
    127          1           0       17.799164    5.111592    0.175122
    128          1           0       18.689983    5.640162   -1.245037
    129          1           0       17.089116    5.990806   -0.806694
    130          1           0       -5.071340   -7.806345   -0.192263
    131          1           0       -6.143031   -6.986680    0.955775
    132          1           0       -4.613360   -7.058471    1.438257
    133          8           0       -8.072996    6.848505   -0.225295
    134          1           0       -9.195803    6.387540   -1.735738
 ---------------------------------------------------------------------

 SCF Done:  E(RCAM-B3LYP) =  -3043.54702678     A.U. after   16 cycles

 Excitation energies and oscillator strengths:

 Excited State   1:      Singlet-A      1.9934 eV  621.97 nm  f=0.1871  <S**2>=0.000
     243 -> 246       -0.24968
     244 -> 245        0.64354
 This state for optimization and/or second-order correction.
 Total Energy, E(TD-HF/TD-KS) =  -3043.47377055
 Copying the excited state density for this state as the 1-particle RhoCI density.

 The electronic state is 1-A.
 Alpha  occ. eigenvalues --  -46.81539 -19.22753 -19.22115 -19.18075 -19.18048
 Alpha  occ. eigenvalues --  -19.17802 -19.17380 -19.15611 -14.39335 -14.37651
 Alpha  occ. eigenvalues --  -14.37111 -14.36690 -10.35670 -10.34342 -10.32724
 Alpha  occ. eigenvalues --  -10.31375 -10.30873 -10.28319 -10.27732 -10.27732
 Alpha  occ. eigenvalues --  -10.27517 -10.26870 -10.26613 -10.26448 -10.26323
 Alpha  occ. eigenvalues --  -10.26310 -10.26229 -10.25819 -10.25709 -10.25247
 Alpha  occ. eigenvalues --  -10.24957 -10.24920 -10.24378 -10.24376 -10.24227
 Alpha  occ. eigenvalues --  -10.24205 -10.24158 -10.24006 -10.23638 -10.23619
 Alpha  occ. eigenvalues --  -10.23616 -10.23518 -10.23448 -10.23405 -10.23207
 Alpha  occ. eigenvalues --  -10.23181 -10.22965 -10.22761 -10.22152 -10.21979
 Alpha  occ. eigenvalues --  -10.21894 -10.21802 -10.21791 -10.21347 -10.21262
 Alpha  occ. eigenvalues --  -10.21179 -10.21125 -10.21094 -10.21073 -10.21067
 Alpha  occ. eigenvalues --  -10.21011 -10.20496 -10.20308 -10.20252 -10.19772
 Alpha  occ. eigenvalues --  -10.17194  -3.10222  -1.85153  -1.84706  -1.84632
 Alpha  occ. eigenvalues --   -1.13610  -1.12025  -1.09048  -1.07930  -1.04504
 Alpha  occ. eigenvalues --   -1.03876  -1.01619  -1.01326  -1.00435  -0.99574
 Alpha  occ. eigenvalues --   -0.98748  -0.89165  -0.87135  -0.86564  -0.86479
 Alpha  occ. eigenvalues --   -0.85322  -0.84971  -0.84779  -0.84213  -0.83476
 Alpha  occ. eigenvalues --   -0.83190  -0.82851  -0.82686  -0.81103  -0.80425
 Alpha  occ. eigenvalues --   -0.79140  -0.78307  -0.77911  -0.77684  -0.76504
 Alpha  occ. eigenvalues --   -0.75672  -0.75204  -0.74337  -0.73936  -0.72253
 Alpha  occ. eigenvalues --   -0.71869  -0.70654  -0.70314  -0.70083  -0.69767
 Alpha  occ. eigenvalues --   -0.69127  -0.68731  -0.67617  -0.67357  -0.66451
 Alpha  occ. eigenvalues --   -0.65611  -0.64959  -0.64688  -0.62459  -0.62127
 Alpha  occ. eigenvalues --   -0.61701  -0.61319  -0.59654  -0.59271  -0.59026
 Alpha  occ. eigenvalues --   -0.58778  -0.58264  -0.57547  -0.57331  -0.57170
 Alpha  occ. eigenvalues --   -0.56897  -0.55961  -0.55558  -0.55185  -0.54483
 Alpha  occ. eigenvalues --   -0.54406  -0.53926  -0.53156  -0.52657  -0.52146
 Alpha  occ. eigenvalues --   -0.51954  -0.51387  -0.51166  -0.50805  -0.50078
 Alpha  occ. eigenvalues --   -0.49819  -0.49780  -0.49512  -0.49442  -0.49067
 Alpha  occ. eigenvalues --   -0.48970  -0.48684  -0.48153  -0.47919  -0.47835
 Alpha  occ. eigenvalues --   -0.47742  -0.47506  -0.47480  -0.47242  -0.47124
 Alpha  occ. eigenvalues --   -0.46799  -0.46524  -0.46237  -0.46099  -0.45834
 Alpha  occ. eigenvalues --   -0.45621  -0.45449  -0.45369  -0.45151  -0.44994
 Alpha  occ. eigenvalues --   -0.44857  -0.44587  -0.44442  -0.44197  -0.43980
 Alpha  occ. eigenvalues --   -0.43928  -0.43592  -0.43302  -0.43179  -0.42985
 Alpha  occ. eigenvalues --   -0.42972  -0.42731  -0.42344  -0.42157  -0.42142
 Alpha  occ. eigenvalues --   -0.42089  -0.41859  -0.41727  -0.41531  -0.41421
 Alpha  occ. eigenvalues --   -0.41007  -0.40718  -0.40502  -0.40237  -0.40150
 Alpha  occ. eigenvalues --   -0.39935  -0.39781  -0.39690  -0.39344  -0.39236
 Alpha  occ. eigenvalues --   -0.39113  -0.39024  -0.38746  -0.38722  -0.38477
 Alpha  occ. eigenvalues --   -0.38077  -0.37955  -0.37696  -0.37574  -0.37126
 Alpha  occ. eigenvalues --   -0.36774  -0.36409  -0.35907  -0.35728  -0.35466
 Alpha  occ. eigenvalues --   -0.35092  -0.34943  -0.34894  -0.34806  -0.34564
 Alpha  occ. eigenvalues --   -0.34414  -0.33741  -0.33702  -0.33155  -0.32897
 Alpha  occ. eigenvalues --   -0.32645  -0.32491  -0.32315  -0.32111  -0.31801
 Alpha  occ. eigenvalues --   -0.31588  -0.31080  -0.30737  -0.29874  -0.29620
 Alpha  occ. eigenvalues --   -0.29379  -0.28976  -0.28592  -0.28067  -0.27447
 Alpha  occ. eigenvalues --   -0.27219  -0.27191  -0.23094  -0.21048
 Alpha virt. eigenvalues --   -0.08323  -0.06412  -0.01959  -0.00870   0.00329
 Alpha virt. eigenvalues --    0.02906   0.03040   0.03559   0.03944   0.04316
 Alpha virt. eigenvalues --    0.05250   0.05490   0.07314   0.08379   0.09345

 Mulliken charges:
               1
     1  Mg   0.820642
     2  C   -0.003278
     3  C   -0.196195
     4  C   -0.135510
     5  C   -0.203377
     6  N   -0.629992
     7  C    0.331798
     8  C   -0.171739
     9  C   -0.159871
    10  C    0.315516
    11  C   -0.324396
    12  C   -0.171857
    13  C   -0.243964
    14  C    0.589741
    15  O   -0.450889
    16  O   -0.488742
    17  N   -0.735396
    18  C    0.325708
    19  C    0.022381
    20  C   -0.058897
    21  C    0.332743
    22  C   -0.370139
    23  C    0.247055
    24  O   -0.439178
    25  N   -0.669106
    26  C    0.269755
    27  C   -0.021050
    28  C    0.040670
    29  C    0.299583
    30  C    0.255134
    31  C   -0.256030
    32  C   -0.320420
    33  N   -0.695841
    34  C    0.277522
    35  C    0.068979
    36  C    0.004588
    37  C    0.323614
    38  C   -0.404058
    39  C    0.389073
    40  O   -0.447816
    41  C   -0.266015
    42  C    0.619093
    43  O   -0.523957
    44  O   -0.435460
    45  C   -0.099460
    46  C    0.004916
    47  C   -0.145464
    48  C    0.170800
    49  C   -0.388023
    50  C   -0.224253
    51  C   -0.190180
    52  C   -0.154563
    53  C   -0.028076
    54  C   -0.299662
    55  C   -0.164750
    56  C   -0.177362
    57  C   -0.165597
    58  C   -0.050954
    59  C   -0.311257
    60  C   -0.154770
    61  C   -0.170277
    62  C   -0.185984
    63  C   -0.052926
    64  C   -0.309163
    65  C   -0.309413
    66  H    0.085992
    67  H    0.112058
    68  H    0.083077
    69  H    0.142926
    70  H    0.103879
    71  H    0.120638
    72  H    0.107278
    73  H    0.132144
    74  H    0.097611
    75  H    0.129206
    76  H    0.151634
    77  H    0.150441
    78  H    0.128017
    79  H    0.164594
    80  H    0.126966
    81  H    0.057870
    82  H    0.112204
    83  H    0.123036
    84  H    0.104022
    85  H    0.125597
    86  H    0.105808
    87  H    0.128896
    88  H    0.136236
    89  H    0.138125
    90  H    0.173109
    91  H    0.106778
    92  H    0.115295
    93  H    0.062912
    94  H    0.139443
    95  H    0.095298
    96  H    0.124162
    97  H    0.102570
    98  H    0.087275
    99  H    0.120654
   100  H    0.094354
   101  H    0.077704
   102  H    0.069019
   103  H    0.038489
   104  H    0.087692
   105  H    0.116587
   106  H    0.105356
   107  H    0.077353
   108  H    0.075854
   109  H    0.083761
   110  H    0.075875
   111  H    0.081741
   112  H    0.092461
   113  H    0.085650
   114  H    0.093534
   115  H    0.110379
   116  H    0.075035
   117  H    0.047444
   118  H    0.089088
   119  H    0.107469
   120  H    0.096767
   121  H    0.094731
   122  H    0.073931
   123  H    0.090054
   124  H    0.089998
   125  H    0.092183
   126  H    0.094445
   127  H    0.103193
   128  H    0.103656
   129  H    0.100586
   130  H    0.132263
   131  H    0.146842
   132  H    0.143082
   133  O   -0.394054
   134  H    0.047726
 Sum of Mulliken charges =   0.00000

 Dipole moment (field-independent basis, Debye):
    X=              1.3994    Y=             -5.7414    Z=             -2.0032  Tot=              6.2398
 Quadrupole moment (field-independent basis, Debye-Ang):
   XX=           -370.7034   YY=           -443.4477   ZZ=           -395.6640
   XY=             12.4396   XZ=             33.9238   YZ=            -38.8486

 Normal termination of Gaussian 09 at Mon Oct  7 23:17:46 2019.
