 Gaussian 09, Revision D.01,
 Gaussian 09:  ES64L-G09RevD.01 24-Apr-2013

 ----------------------------------------------------------------------
 # td=(NStates=1) iop(3/107=0140000000,3/108=0140000000) iop(3/107=0140
 000000,3/108=0140000000) CAM-B3LYP/6-31G(d,p)
 ----------------------------------------------------------------------

 --
 TD
 --
 Symbolic Z-matrix:
 Charge =  0 Multiplicity = 1

                         Standard orientation:
 ---------------------------------------------------------------------
 Center     Atomic      Atomic             Coordinates (Angstroms)
 Number     Number       Type             X           Y           Z
 ---------------------------------------------------------------------
      1         12           0       -5.709976    1.163180    0.239039
      2          6           0       -5.082089   -2.210371   -0.324120
      3          6           0       -3.457885    1.084237    2.819217
      4          6           0       -6.191361    4.589689    0.620392
      5          6           0       -7.939314    1.125671   -2.407436
      6          7           0       -4.392125   -0.370957    1.083097
      7          6           0       -4.387755   -1.743558    0.826574
      8          6           0       -3.267418   -2.407285    1.684558
      9          6           0       -2.880124   -1.332726    2.653770
     10          6           0       -3.665913   -0.129405    2.157669
     11          6           0       -3.370560   -1.674284    4.075202
     12          6           0       -2.109085   -2.689148    0.673906
     13          6           0       -0.952998   -3.492943    1.499144
     14          6           0        0.225475   -3.799678    0.616645
     15          8           0        0.445954   -3.495404   -0.605481
     16          8           0        0.961014   -4.666442    1.240898
     17          7           0       -4.893501    2.669953    1.467841
     18          6           0       -4.034541    2.474962    2.573817
     19          6           0       -3.759584    3.605029    3.222810
     20          6           0       -4.516736    4.544520    2.627068
     21          6           0       -5.188992    4.031109    1.512222
     22          6           0       -2.947966    3.717951    4.464647
     23          6           0       -4.645495    6.000786    3.024019
     24          8           0       -4.019024    6.589380    3.898392
     25          7           0       -6.964721    2.613065   -0.696179
     26          6           0       -6.931536    3.956637   -0.334814
     27          6           0       -7.831159    4.691794   -1.348812
     28          6           0       -8.351489    3.591422   -2.194818
     29          6           0       -7.739748    2.332060   -1.738832
     30          6           0       -8.244952    6.110451   -1.310799
     31          6           0       -9.421328    3.873789   -3.261647
     32          6           0       -8.703599    4.030643   -4.609426
     33          7           0       -6.319755   -0.180900   -1.074900
     34          6           0       -7.271034   -0.063976   -2.127904
     35          6           0       -7.424776   -1.391547   -2.680006
     36          6           0       -6.583763   -2.135785   -2.086140
     37          6           0       -5.918726   -1.414556   -1.078135
     38          6           0       -8.412690   -1.622972   -4.011625
     39          6           0       -6.106781   -3.536101   -2.051413
     40          8           0       -6.515738   -4.482653   -2.673220
     41          6           0       -5.024940   -3.592929   -0.914695
     42          6           0       -5.256192   -4.649105    0.153999
     43          8           0       -5.711952   -4.469646    1.240457
     44          8           0       -4.866413   -5.813620   -0.365522
     45          6           0       -5.305299   -7.001086    0.423399
     46          6           0        2.336978   -5.085779    0.760231
     47          6           0        3.325442   -4.065467    0.948536
     48          6           0        4.035630   -3.201834    0.113132
     49          6           0        3.751114   -3.131647   -1.386012
     50          6           0        5.138640   -2.335589    0.655661
     51          6           0        6.420130   -2.580149    0.025267
     52          6           0        7.560548   -1.736752    0.575225
     53          6           0        8.927792   -1.876253   -0.012928
     54          6           0        9.521728   -3.409331    0.100601
     55          6           0        9.952110   -0.840434    0.506502
     56          6           0       11.311875   -0.869760   -0.232111
     57          6           0       12.216955    0.332222    0.174198
     58          6           0       13.535606    0.355558   -0.594564
     59          6           0       14.561795   -0.751702   -0.341133
     60          6           0       14.130516    1.835788   -0.254700
     61          6           0       15.486056    2.109582   -1.015227
     62          6           0       15.925498    3.522105   -0.701015
     63          6           0       17.329306    3.824446   -1.370581
     64          6           0       17.255084    3.991375   -2.849107
     65          6           0       17.872912    5.153829   -0.815525
     66          1           0       -2.902928    0.982198    3.755359
     67          1           0       -6.509917    5.705876    0.528257
     68          1           0       -8.706653    0.987802   -3.053154
     69          1           0       -3.476417   -3.368098    2.068037
     70          1           0       -1.798907   -1.201533    2.864231
     71          1           0       -2.994852   -2.630963    4.317700
     72          1           0       -2.947048   -0.821665    4.870634
     73          1           0       -4.476186   -1.540688    4.084285
     74          1           0       -2.349286   -3.286191   -0.208716
     75          1           0       -1.664623   -1.675307    0.357480
     76          1           0       -0.488072   -2.706394    2.237193
     77          1           0       -1.344344   -4.476483    1.989140
     78          1           0       -1.892274    3.333622    4.183405
     79          1           0       -2.670179    4.794916    4.667427
     80          1           0       -3.541308    3.188079    5.329239
     81          1           0       -5.286068    6.649367    2.311531
     82          1           0      -10.027546    3.024964   -3.505153
     83          1           0      -10.048966    4.884459   -3.002829
     84          1           0       -9.338017    4.179853   -5.364661
     85          1           0       -8.096851    4.956034   -4.510748
     86          1           0       -8.123874    3.191823   -4.715200
     87          1           0       -8.160390   -1.214741   -4.867491
     88          1           0       -8.335926   -2.678761   -4.171476
     89          1           0       -9.347171   -1.509770   -3.724033
     90          1           0       -4.105124   -3.956914   -1.513187
     91          1           0        2.711664   -5.988226    1.347571
     92          1           0        2.024740   -5.194239   -0.305640
     93          1           0        3.751264   -3.912344    2.097102
     94          1           0        2.781309   -3.558945   -1.572923
     95          1           0        3.753898   -2.016616   -1.643688
     96          1           0        4.425566   -3.749650   -2.204830
     97          1           0        4.749305   -1.236927    0.578159
     98          1           0        5.219502   -2.481407    1.618517
     99          1           0        6.687060   -3.715045   -0.043155
    100          1           0        6.374373   -2.478435   -1.140418
    101          1           0        7.245304   -0.583756    0.741679
    102          1           0        7.497428   -1.997026    1.655550
    103          1           0        8.750610   -1.835268   -1.207821
    104          1           0        8.987220   -4.122172   -0.572804
    105          1           0       10.644424   -3.321510   -0.187905
    106          1           0        9.344246   -3.625391    1.265355
    107          1           0        9.459558    0.121493    0.382312
    108          1           0        9.796828   -0.896392    1.683061
    109          1           0       11.881981   -1.651343    0.018052
    110          1           0       11.034412   -0.860048   -1.335729
    111          1           0       11.521035    1.092341    0.136671
    112          1           0       12.466789    0.073410    1.255008
    113          1           0       13.062561    0.418897   -1.730678
    114          1           0       14.826915   -0.670277    0.883423
    115          1           0       14.105001   -1.893719   -0.581488
    116          1           0       15.488065   -0.628748   -0.786162
    117          1           0       13.186124    2.469227   -0.538108
    118          1           0       14.178819    2.198254    0.937181
    119          1           0       16.271782    1.281434   -0.653654
    120          1           0       15.565055    2.203289   -2.187418
    121          1           0       15.069153    4.223170   -0.984422
    122          1           0       16.103183    3.608305    0.343096
    123          1           0       17.734423    2.924204   -1.068083
    124          1           0       16.311207    4.799389   -2.968367
    125          1           0       18.203773    4.296328   -3.181456
    126          1           0       16.863142    2.975888   -3.166769
    127          1           0       18.028256    5.053331    0.274438
    128          1           0       18.806331    5.491705   -1.394331
    129          1           0       17.142196    5.997721   -0.719406
    130          1           0       -5.168035   -8.063438   -0.092659
    131          1           0       -6.336856   -6.903504    0.460646
    132          1           0       -4.698919   -7.073936    1.264227
    133          8           0       -7.673349    6.885594   -0.561512
    134          1           0       -9.043469    6.283536   -1.930302
 ---------------------------------------------------------------------

 SCF Done:  E(RCAM-B3LYP) =  -3043.41922441     A.U. after   16 cycles

 Excitation energies and oscillator strengths:

 Excited State   1:      Singlet-A      2.0350 eV  609.26 nm  f=0.1642  <S**2>=0.000
     243 -> 246       -0.26255
     244 -> 245        0.63879
 This state for optimization and/or second-order correction.
 Total Energy, E(TD-HF/TD-KS) =  -3043.34443945
 Copying the excited state density for this state as the 1-particle RhoCI density.

 The electronic state is 1-A.
 Alpha  occ. eigenvalues --  -46.81984 -19.23154 -19.21820 -19.18113 -19.17868
 Alpha  occ. eigenvalues --  -19.17648 -19.16190 -19.15747 -14.38853 -14.36989
 Alpha  occ. eigenvalues --  -14.36545 -14.35816 -10.35353 -10.34739 -10.32028
 Alpha  occ. eigenvalues --  -10.30334 -10.29670 -10.29126 -10.28506 -10.28179
 Alpha  occ. eigenvalues --  -10.26882 -10.26525 -10.26457 -10.26314 -10.25649
 Alpha  occ. eigenvalues --  -10.25532 -10.25451 -10.25424 -10.25365 -10.25195
 Alpha  occ. eigenvalues --  -10.24788 -10.24614 -10.24517 -10.24077 -10.24056
 Alpha  occ. eigenvalues --  -10.24029 -10.23990 -10.23878 -10.23744 -10.23635
 Alpha  occ. eigenvalues --  -10.23610 -10.23571 -10.23456 -10.23148 -10.23064
 Alpha  occ. eigenvalues --  -10.22898 -10.22874 -10.22808 -10.22398 -10.22325
 Alpha  occ. eigenvalues --  -10.22325 -10.22234 -10.22112 -10.21924 -10.21653
 Alpha  occ. eigenvalues --  -10.21608 -10.21456 -10.21297 -10.21273 -10.21024
 Alpha  occ. eigenvalues --  -10.20680 -10.20514 -10.20486 -10.20448 -10.20229
 Alpha  occ. eigenvalues --  -10.20141  -3.10353  -1.85309  -1.84813  -1.84755
 Alpha  occ. eigenvalues --   -1.14447  -1.12874  -1.08523  -1.07309  -1.06132
 Alpha  occ. eigenvalues --   -1.05088  -1.01969  -1.00769  -1.00189  -0.98875
 Alpha  occ. eigenvalues --   -0.98088  -0.89051  -0.86771  -0.85869  -0.85094
 Alpha  occ. eigenvalues --   -0.84965  -0.84435  -0.84369  -0.83659  -0.83250
 Alpha  occ. eigenvalues --   -0.82944  -0.82191  -0.81532  -0.80366  -0.79393
 Alpha  occ. eigenvalues --   -0.78535  -0.78021  -0.77754  -0.77017  -0.76585
 Alpha  occ. eigenvalues --   -0.75559  -0.74887  -0.73473  -0.73225  -0.72263
 Alpha  occ. eigenvalues --   -0.71062  -0.70302  -0.70285  -0.69924  -0.69557
 Alpha  occ. eigenvalues --   -0.68947  -0.68487  -0.66995  -0.66187  -0.65894
 Alpha  occ. eigenvalues --   -0.65258  -0.64542  -0.63762  -0.62198  -0.61962
 Alpha  occ. eigenvalues --   -0.61449  -0.61085  -0.60298  -0.59427  -0.58875
 Alpha  occ. eigenvalues --   -0.58451  -0.57975  -0.57823  -0.57514  -0.56878
 Alpha  occ. eigenvalues --   -0.56772  -0.55727  -0.54887  -0.54573  -0.54309
 Alpha  occ. eigenvalues --   -0.54137  -0.53342  -0.52753  -0.52665  -0.52471
 Alpha  occ. eigenvalues --   -0.51987  -0.51720  -0.51557  -0.51229  -0.50578
 Alpha  occ. eigenvalues --   -0.50358  -0.50311  -0.49925  -0.49547  -0.48918
 Alpha  occ. eigenvalues --   -0.48600  -0.48324  -0.48250  -0.48073  -0.47987
 Alpha  occ. eigenvalues --   -0.47658  -0.47562  -0.47341  -0.47107  -0.47013
 Alpha  occ. eigenvalues --   -0.46679  -0.46607  -0.46076  -0.45920  -0.45774
 Alpha  occ. eigenvalues --   -0.45517  -0.45363  -0.45069  -0.44908  -0.44639
 Alpha  occ. eigenvalues --   -0.44526  -0.44339  -0.44199  -0.43927  -0.43589
 Alpha  occ. eigenvalues --   -0.43240  -0.43055  -0.42921  -0.42866  -0.42744
 Alpha  occ. eigenvalues --   -0.42677  -0.42151  -0.42061  -0.41876  -0.41683
 Alpha  occ. eigenvalues --   -0.41457  -0.41330  -0.41128  -0.40883  -0.40241
 Alpha  occ. eigenvalues --   -0.40129  -0.39978  -0.39810  -0.39734  -0.39684
 Alpha  occ. eigenvalues --   -0.39417  -0.39319  -0.39101  -0.38932  -0.38783
 Alpha  occ. eigenvalues --   -0.38668  -0.38646  -0.38207  -0.38037  -0.37910
 Alpha  occ. eigenvalues --   -0.37808  -0.37715  -0.37490  -0.37399  -0.37198
 Alpha  occ. eigenvalues --   -0.36941  -0.36666  -0.36407  -0.36256  -0.36011
 Alpha  occ. eigenvalues --   -0.35185  -0.35120  -0.35034  -0.34792  -0.34722
 Alpha  occ. eigenvalues --   -0.34531  -0.34247  -0.33694  -0.33090  -0.32906
 Alpha  occ. eigenvalues --   -0.32628  -0.32251  -0.31932  -0.31861  -0.31573
 Alpha  occ. eigenvalues --   -0.31041  -0.30921  -0.30482  -0.29512  -0.29456
 Alpha  occ. eigenvalues --   -0.29268  -0.28447  -0.28221  -0.27332  -0.27185
 Alpha  occ. eigenvalues --   -0.26839  -0.26283  -0.22635  -0.21522
 Alpha virt. eigenvalues --   -0.08579  -0.06279  -0.01351  -0.00369   0.01114
 Alpha virt. eigenvalues --    0.01275   0.03178   0.03463   0.03658   0.04403
 Alpha virt. eigenvalues --    0.05591   0.05646   0.08141   0.08594   0.09655

 Mulliken charges:
               1
     1  Mg   0.830069
     2  C    0.060166
     3  C   -0.184974
     4  C   -0.165869
     5  C   -0.146388
     6  N   -0.631409
     7  C    0.288144
     8  C   -0.130604
     9  C   -0.148038
    10  C    0.381361
    11  C   -0.298934
    12  C   -0.174840
    13  C   -0.265008
    14  C    0.591708
    15  O   -0.520302
    16  O   -0.450126
    17  N   -0.697116
    18  C    0.273792
    19  C    0.076542
    20  C   -0.047882
    21  C    0.284589
    22  C   -0.379649
    23  C    0.242471
    24  O   -0.419210
    25  N   -0.715647
    26  C    0.290559
    27  C   -0.072666
    28  C    0.000858
    29  C    0.353776
    30  C    0.287693
    31  C   -0.254448
    32  C   -0.302052
    33  N   -0.790182
    34  C    0.251505
    35  C   -0.067326
    36  C    0.072778
    37  C    0.367941
    38  C   -0.365276
    39  C    0.368219
    40  O   -0.433908
    41  C   -0.338098
    42  C    0.639556
    43  O   -0.462255
    44  O   -0.460663
    45  C   -0.088939
    46  C   -0.002066
    47  C   -0.122726
    48  C    0.132190
    49  C   -0.365635
    50  C   -0.200483
    51  C   -0.170254
    52  C   -0.161067
    53  C   -0.045538
    54  C   -0.307466
    55  C   -0.180116
    56  C   -0.183479
    57  C   -0.176716
    58  C   -0.033830
    59  C   -0.294497
    60  C   -0.165105
    61  C   -0.174482
    62  C   -0.176762
    63  C   -0.053971
    64  C   -0.272370
    65  C   -0.312277
    66  H    0.073688
    67  H    0.158442
    68  H    0.083107
    69  H    0.117514
    70  H    0.114489
    71  H    0.114421
    72  H    0.079782
    73  H    0.124471
    74  H    0.124917
    75  H    0.119461
    76  H    0.130418
    77  H    0.133473
    78  H    0.107051
    79  H    0.153198
    80  H    0.120827
    81  H    0.072270
    82  H    0.114945
    83  H    0.094047
    84  H    0.115840
    85  H    0.105931
    86  H    0.119787
    87  H    0.141133
    88  H    0.142582
    89  H    0.134397
    90  H    0.162881
    91  H    0.133857
    92  H    0.136227
    93  H    0.053407
    94  H    0.149198
    95  H    0.111920
    96  H    0.093728
    97  H    0.096444
    98  H    0.104276
    99  H    0.091711
   100  H    0.083527
   101  H    0.067440
   102  H    0.083326
   103  H    0.057933
   104  H    0.105748
   105  H    0.099484
   106  H    0.084633
   107  H    0.095756
   108  H    0.075034
   109  H    0.113474
   110  H    0.087878
   111  H    0.100980
   112  H    0.082571
   113  H    0.065508
   114  H    0.073931
   115  H    0.079597
   116  H    0.129408
   117  H    0.084927
   118  H    0.071850
   119  H    0.077088
   120  H    0.088375
   121  H    0.082529
   122  H    0.090696
   123  H    0.095879
   124  H    0.076147
   125  H    0.109106
   126  H    0.087034
   127  H    0.093076
   128  H    0.087306
   129  H    0.103288
   130  H    0.114511
   131  H    0.150728
   132  H    0.141579
   133  O   -0.431262
   134  H    0.077807
 Sum of Mulliken charges =   0.00000

 Dipole moment (field-independent basis, Debye):
    X=              1.2306    Y=             -6.8696    Z=             -1.3844  Tot=              7.1150
 Quadrupole moment (field-independent basis, Debye-Ang):
   XX=           -353.7898   YY=           -431.9043   ZZ=           -398.6303
   XY=             14.0649   XZ=             32.7748   YZ=            -37.1299

 Normal termination of Gaussian 09 at Mon Oct  7 19:04:09 2019.
