 Gaussian 09, Revision D.01,
 Gaussian 09:  ES64L-G09RevD.01 24-Apr-2013

 ----------------------------------------------------------------------
 # td=(NStates=1) iop(3/107=0140000000,3/108=0140000000) iop(3/107=0140
 000000,3/108=0140000000) CAM-B3LYP/6-31G(d,p)
 ----------------------------------------------------------------------

 --
 TD
 --
 Symbolic Z-matrix:
 Charge =  0 Multiplicity = 1

                         Standard orientation:
 ---------------------------------------------------------------------
 Center     Atomic      Atomic             Coordinates (Angstroms)
 Number     Number       Type             X           Y           Z
 ---------------------------------------------------------------------
      1         12           0       -5.686572    1.168134    0.216519
      2          6           0       -5.046795   -2.145918   -0.359636
      3          6           0       -3.521395    1.235884    2.738863
      4          6           0       -6.206523    4.536745    0.572448
      5          6           0       -8.147855    1.102496   -2.447289
      6          7           0       -4.414726   -0.292300    1.026417
      7          6           0       -4.366585   -1.592668    0.711986
      8          6           0       -3.197453   -2.235095    1.568691
      9          6           0       -3.024377   -1.221369    2.783087
     10          6           0       -3.621965    0.015546    2.174663
     11          6           0       -3.686104   -1.683785    4.100031
     12          6           0       -2.051905   -2.679221    0.650185
     13          6           0       -1.003118   -3.495544    1.374979
     14          6           0        0.238025   -3.814949    0.643159
     15          8           0        0.515475   -3.440805   -0.442843
     16          8           0        1.043177   -4.588055    1.450279
     17          7           0       -4.986998    2.540059    1.458834
     18          6           0       -4.068800    2.388553    2.506885
     19          6           0       -3.768700    3.686438    3.091862
     20          6           0       -4.598799    4.598412    2.462368
     21          6           0       -5.407809    3.925853    1.471906
     22          6           0       -2.912177    3.990773    4.296153
     23          6           0       -4.832067    6.023442    2.855226
     24          8           0       -4.192459    6.546189    3.773278
     25          7           0       -6.930222    2.464272   -0.742477
     26          6           0       -7.044463    3.848810   -0.429557
     27          6           0       -8.051044    4.496337   -1.230367
     28          6           0       -8.466186    3.524476   -2.058587
     29          6           0       -7.813092    2.356239   -1.784470
     30          6           0       -8.455796    5.882100   -1.162035
     31          6           0       -9.612784    3.741546   -3.100933
     32          6           0       -8.993012    4.055223   -4.519595
     33          7           0       -6.472848   -0.169661   -1.093037
     34          6           0       -7.470749   -0.078211   -2.088628
     35          6           0       -7.603408   -1.373083   -2.775790
     36          6           0       -6.657524   -2.194127   -1.994953
     37          6           0       -6.042600   -1.502433   -1.050091
     38          6           0       -8.481716   -1.716664   -3.944269
     39          6           0       -6.124560   -3.566327   -2.023806
     40          8           0       -6.407786   -4.515830   -2.765265
     41          6           0       -5.022271   -3.619573   -0.975155
     42          6           0       -5.209723   -4.712448    0.166189
     43          8           0       -5.577816   -4.476919    1.220936
     44          8           0       -4.811467   -5.929667   -0.416798
     45          6           0       -5.051601   -7.048097    0.494505
     46          6           0        2.387015   -4.995561    0.848205
     47          6           0        3.453593   -4.013997    1.186460
     48          6           0        4.120354   -3.240037    0.303947
     49          6           0        3.897695   -3.244344   -1.260638
     50          6           0        5.306960   -2.342692    0.798014
     51          6           0        6.563011   -2.607634    0.051213
     52          6           0        7.696049   -1.607819    0.526744
     53          6           0        9.069893   -1.938129   -0.118968
     54          6           0        9.495263   -3.426424    0.033826
     55          6           0       10.099533   -0.877924    0.367892
     56          6           0       11.440916   -0.883759   -0.307157
     57          6           0       12.318885    0.295697    0.210212
     58          6           0       13.614503    0.555636   -0.581274
     59          6           0       14.556023   -0.664738   -0.499558
     60          6           0       14.363454    1.837729   -0.125411
     61          6           0       15.617090    2.237415   -0.956679
     62          6           0       16.136342    3.497854   -0.519026
     63          6           0       17.405822    3.942221   -1.325178
     64          6           0       17.226554    3.853263   -2.814491
     65          6           0       18.026534    5.334150   -0.964112
     66          1           0       -2.709655    1.322458    3.511875
     67          1           0       -6.687003    5.509211    0.909420
     68          1           0       -8.698394    1.223326   -3.392717
     69          1           0       -3.701339   -3.099252    2.062438
     70          1           0       -1.837364   -1.132759    2.847489
     71          1           0       -3.229473   -2.532570    4.532067
     72          1           0       -3.515776   -0.871779    4.718667
     73          1           0       -4.777235   -1.959511    3.859459
     74          1           0       -2.587384   -3.291316   -0.179437
     75          1           0       -1.505405   -1.707432    0.283868
     76          1           0       -0.601258   -2.623794    2.256862
     77          1           0       -1.410268   -4.362844    2.030685
     78          1           0       -1.834030    3.819961    4.137328
     79          1           0       -2.902339    4.900154    4.613557
     80          1           0       -3.169624    3.237662    5.126257
     81          1           0       -5.403801    6.513183    2.001987
     82          1           0      -10.278060    2.949800   -3.138518
     83          1           0      -10.368610    4.655669   -2.837415
     84          1           0       -9.737471    4.262466   -5.279487
     85          1           0       -8.314555    4.879267   -4.442734
     86          1           0       -8.453054    3.160259   -5.129671
     87          1           0       -8.108916   -1.171084   -4.856544
     88          1           0       -8.564419   -2.772250   -4.102541
     89          1           0       -9.546847   -1.259626   -3.792911
     90          1           0       -4.185557   -3.990022   -1.561469
     91          1           0        2.546240   -5.830747    1.295874
     92          1           0        2.472881   -5.032294   -0.221062
     93          1           0        3.631563   -3.734732    2.424594
     94          1           0        2.927127   -3.564930   -1.651031
     95          1           0        3.973968   -2.371824   -1.581971
     96          1           0        4.537124   -3.835873   -1.794957
     97          1           0        5.232424   -1.348556    0.576862
     98          1           0        5.424548   -2.464761    1.949892
     99          1           0        7.023032   -3.662633    0.200656
    100          1           0        6.220771   -2.500262   -0.867726
    101          1           0        7.316273   -0.447797    0.345334
    102          1           0        7.800872   -1.576423    1.629622
    103          1           0        9.147216   -1.626715   -1.259954
    104          1           0        8.800620   -4.344128   -0.579464
    105          1           0       10.707909   -3.546882   -0.267182
    106          1           0        9.441554   -3.691481    1.111983
    107          1           0        9.596335    0.031234    0.226414
    108          1           0       10.338134   -0.865611    1.318039
    109          1           0       11.906473   -1.926740   -0.150751
    110          1           0       11.384236   -0.793174   -1.536306
    111          1           0       11.714428    1.246524    0.133640
    112          1           0       12.682049    0.052622    1.337840
    113          1           0       13.485106    0.732067   -1.743454
    114          1           0       14.704851   -1.025304    0.498131
    115          1           0       13.939347   -1.519303   -0.861004
    116          1           0       15.479025   -0.794847   -1.020617
    117          1           0       13.522469    2.450055   -0.538162
    118          1           0       14.543613    1.756468    0.841328
    119          1           0       16.435760    1.579094   -0.756322
    120          1           0       15.371853    2.047360   -1.987983
    121          1           0       15.344787    4.298012   -0.625539
    122          1           0       16.390378    3.431414    0.478735
    123          1           0       18.271442    3.079985   -1.237733
    124          1           0       16.291782    4.400760   -3.023801
    125          1           0       18.210013    4.509826   -3.148400
    126          1           0       17.074840    2.916978   -3.267303
    127          1           0       18.536511    5.300847    0.163298
    128          1           0       18.846136    5.614474   -1.589946
    129          1           0       17.302130    6.143016   -0.863791
    130          1           0       -4.735728   -8.041482    0.045369
    131          1           0       -6.072627   -7.275397    0.968255
    132          1           0       -4.152852   -6.943672    1.202865
    133          8           0       -7.994340    6.751261   -0.393016
    134          1           0       -9.035991    6.290487   -2.344013
 ---------------------------------------------------------------------

 SCF Done:  E(RCAM-B3LYP) =  -3043.40097663     A.U. after   16 cycles

 Excitation energies and oscillator strengths:

 Excited State   1:      Singlet-A      2.0824 eV  595.39 nm  f=0.1039  <S**2>=0.000
     243 -> 246        0.32742
     244 -> 245        0.60700
 This state for optimization and/or second-order correction.
 Total Energy, E(TD-HF/TD-KS) =  -3043.32444991
 Copying the excited state density for this state as the 1-particle RhoCI density.

 The electronic state is 1-A.
 Alpha  occ. eigenvalues --  -46.79876 -19.23196 -19.21296 -19.19761 -19.18369
 Alpha  occ. eigenvalues --  -19.17877 -19.17158 -19.16181 -14.39007 -14.37127
 Alpha  occ. eigenvalues --  -14.36609 -14.35832 -10.36084 -10.34420 -10.32679
 Alpha  occ. eigenvalues --  -10.31052 -10.30581 -10.28875 -10.27958 -10.27644
 Alpha  occ. eigenvalues --  -10.27012 -10.26619 -10.26394 -10.26254 -10.26214
 Alpha  occ. eigenvalues --  -10.26130 -10.25732 -10.25613 -10.25512 -10.25415
 Alpha  occ. eigenvalues --  -10.25161 -10.24916 -10.24887 -10.24804 -10.24512
 Alpha  occ. eigenvalues --  -10.24308 -10.24222 -10.24209 -10.24152 -10.23840
 Alpha  occ. eigenvalues --  -10.23794 -10.23580 -10.23423 -10.23206 -10.23034
 Alpha  occ. eigenvalues --  -10.22971 -10.22901 -10.22731 -10.22720 -10.22714
 Alpha  occ. eigenvalues --  -10.22640 -10.22517 -10.22364 -10.22242 -10.21801
 Alpha  occ. eigenvalues --  -10.21434 -10.21370 -10.21248 -10.20658 -10.20286
 Alpha  occ. eigenvalues --  -10.19850 -10.19543 -10.19488 -10.19488 -10.19260
 Alpha  occ. eigenvalues --  -10.18935  -3.08677  -1.83603  -1.83187  -1.83066
 Alpha  occ. eigenvalues --   -1.15516  -1.12332  -1.07406  -1.06223  -1.05863
 Alpha  occ. eigenvalues --   -1.05130  -1.04291  -0.99826  -0.99349  -0.98077
 Alpha  occ. eigenvalues --   -0.97349  -0.88601  -0.86132  -0.86123  -0.85709
 Alpha  occ. eigenvalues --   -0.85174  -0.84585  -0.84533  -0.83492  -0.82923
 Alpha  occ. eigenvalues --   -0.82710  -0.82329  -0.81599  -0.80897  -0.79493
 Alpha  occ. eigenvalues --   -0.78817  -0.78451  -0.77561  -0.77012  -0.76893
 Alpha  occ. eigenvalues --   -0.75743  -0.75256  -0.74523  -0.72934  -0.72427
 Alpha  occ. eigenvalues --   -0.71713  -0.71066  -0.70479  -0.70195  -0.70076
 Alpha  occ. eigenvalues --   -0.68995  -0.68885  -0.67849  -0.66530  -0.66285
 Alpha  occ. eigenvalues --   -0.65953  -0.64419  -0.63404  -0.62520  -0.62133
 Alpha  occ. eigenvalues --   -0.61082  -0.60516  -0.60345  -0.58861  -0.58665
 Alpha  occ. eigenvalues --   -0.57994  -0.57778  -0.57394  -0.56835  -0.56776
 Alpha  occ. eigenvalues --   -0.55489  -0.55394  -0.55257  -0.54763  -0.54465
 Alpha  occ. eigenvalues --   -0.53796  -0.53558  -0.52406  -0.52156  -0.51967
 Alpha  occ. eigenvalues --   -0.51956  -0.51889  -0.51376  -0.50709  -0.50560
 Alpha  occ. eigenvalues --   -0.50025  -0.49808  -0.49343  -0.49022  -0.48912
 Alpha  occ. eigenvalues --   -0.48482  -0.48180  -0.47942  -0.47906  -0.47680
 Alpha  occ. eigenvalues --   -0.47436  -0.47321  -0.47243  -0.47071  -0.46837
 Alpha  occ. eigenvalues --   -0.46637  -0.46470  -0.46347  -0.45948  -0.45920
 Alpha  occ. eigenvalues --   -0.45710  -0.45522  -0.45349  -0.45218  -0.44954
 Alpha  occ. eigenvalues --   -0.44892  -0.44701  -0.44325  -0.44002  -0.43867
 Alpha  occ. eigenvalues --   -0.43504  -0.43326  -0.43177  -0.43125  -0.43103
 Alpha  occ. eigenvalues --   -0.42703  -0.42314  -0.42177  -0.41853  -0.41751
 Alpha  occ. eigenvalues --   -0.41523  -0.41405  -0.41057  -0.41036  -0.40927
 Alpha  occ. eigenvalues --   -0.40777  -0.40554  -0.40470  -0.40361  -0.40200
 Alpha  occ. eigenvalues --   -0.39972  -0.39668  -0.39519  -0.39360  -0.39245
 Alpha  occ. eigenvalues --   -0.39046  -0.38802  -0.38678  -0.38490  -0.38175
 Alpha  occ. eigenvalues --   -0.38123  -0.37914  -0.37707  -0.37058  -0.36915
 Alpha  occ. eigenvalues --   -0.36863  -0.36534  -0.36196  -0.35903  -0.35846
 Alpha  occ. eigenvalues --   -0.35730  -0.35197  -0.35176  -0.34888  -0.34737
 Alpha  occ. eigenvalues --   -0.34332  -0.34195  -0.34036  -0.33743  -0.33436
 Alpha  occ. eigenvalues --   -0.33198  -0.32687  -0.32566  -0.31926  -0.31797
 Alpha  occ. eigenvalues --   -0.31747  -0.31504  -0.30730  -0.30557  -0.29970
 Alpha  occ. eigenvalues --   -0.29210  -0.28184  -0.27719  -0.27670  -0.27627
 Alpha  occ. eigenvalues --   -0.27194  -0.26672  -0.23345  -0.22187
 Alpha virt. eigenvalues --   -0.08567  -0.07534  -0.02193  -0.01925   0.00297
 Alpha virt. eigenvalues --    0.02823   0.03433   0.03551   0.04094   0.04528
 Alpha virt. eigenvalues --    0.04693   0.05666   0.07549   0.08284   0.08435

 Mulliken charges:
               1
     1  Mg   0.804385
     2  C    0.030111
     3  C   -0.211750
     4  C   -0.196132
     5  C   -0.151147
     6  N   -0.622155
     7  C    0.294833
     8  C   -0.158352
     9  C   -0.162041
    10  C    0.348423
    11  C   -0.299962
    12  C   -0.148040
    13  C   -0.254868
    14  C    0.628626
    15  O   -0.448272
    16  O   -0.504550
    17  N   -0.728011
    18  C    0.353083
    19  C    0.053193
    20  C   -0.049679
    21  C    0.332253
    22  C   -0.365301
    23  C    0.252439
    24  O   -0.417860
    25  N   -0.662528
    26  C    0.219862
    27  C    0.047068
    28  C    0.036653
    29  C    0.283754
    30  C    0.226636
    31  C   -0.242220
    32  C   -0.315657
    33  N   -0.732715
    34  C    0.270089
    35  C    0.047986
    36  C   -0.025969
    37  C    0.354000
    38  C   -0.386661
    39  C    0.348903
    40  O   -0.475447
    41  C   -0.305767
    42  C    0.626247
    43  O   -0.391686
    44  O   -0.463564
    45  C   -0.101590
    46  C    0.033613
    47  C   -0.147020
    48  C    0.129023
    49  C   -0.391507
    50  C   -0.224124
    51  C   -0.160314
    52  C   -0.183561
    53  C   -0.034068
    54  C   -0.295174
    55  C   -0.167813
    56  C   -0.170756
    57  C   -0.161358
    58  C   -0.076038
    59  C   -0.326691
    60  C   -0.149601
    61  C   -0.177656
    62  C   -0.151169
    63  C   -0.048273
    64  C   -0.283755
    65  C   -0.312209
    66  H    0.082875
    67  H    0.140420
    68  H    0.109453
    69  H    0.114825
    70  H    0.088492
    71  H    0.125726
    72  H    0.123310
    73  H    0.122888
    74  H    0.112725
    75  H    0.114364
    76  H    0.094686
    77  H    0.127983
    78  H    0.115008
    79  H    0.161644
    80  H    0.111253
    81  H    0.096885
    82  H    0.117713
    83  H    0.100805
    84  H    0.114602
    85  H    0.128104
    86  H    0.084388
    87  H    0.134543
    88  H    0.159587
    89  H    0.116123
    90  H    0.169555
    91  H    0.116986
    92  H    0.128417
    93  H    0.057093
    94  H    0.136415
    95  H    0.128786
    96  H    0.130060
    97  H    0.109447
    98  H    0.081115
    99  H    0.086117
   100  H    0.112001
   101  H    0.061796
   102  H    0.098955
   103  H    0.075634
   104  H    0.078196
   105  H    0.078203
   106  H    0.109382
   107  H    0.098183
   108  H    0.098957
   109  H    0.090553
   110  H    0.061651
   111  H    0.091574
   112  H    0.076379
   113  H    0.062550
   114  H    0.094787
   115  H    0.089614
   116  H    0.106924
   117  H    0.087088
   118  H    0.089940
   119  H    0.095067
   120  H    0.087829
   121  H    0.076134
   122  H    0.102764
   123  H    0.052730
   124  H    0.090872
   125  H    0.071616
   126  H    0.111736
   127  H    0.067975
   128  H    0.111468
   129  H    0.111771
   130  H    0.125239
   131  H    0.138485
   132  H    0.112747
   133  O   -0.415491
   134  H    0.016125
 Sum of Mulliken charges =   0.00000

 Dipole moment (field-independent basis, Debye):
    X=              1.8254    Y=             -5.0280    Z=              0.4278  Tot=              5.3661
 Quadrupole moment (field-independent basis, Debye-Ang):
   XX=           -388.9197   YY=           -438.9140   ZZ=           -392.2552
   XY=             13.1630   XZ=             21.6032   YZ=            -32.1418

 Normal termination of Gaussian 09 at Tue Oct  8 12:13:54 2019.
