 Gaussian 09, Revision D.01,
 Gaussian 09:  ES64L-G09RevD.01 24-Apr-2013

 ----------------------------------------------------------------------
 # td=(NStates=1) iop(3/107=0140000000,3/108=0140000000) iop(3/107=0140
 000000,3/108=0140000000) CAM-B3LYP/6-31G(d,p)
 ----------------------------------------------------------------------

 --
 TD
 --
 Symbolic Z-matrix:
 Charge =  0 Multiplicity = 1

                         Standard orientation:
 ---------------------------------------------------------------------
 Center     Atomic      Atomic             Coordinates (Angstroms)
 Number     Number       Type             X           Y           Z
 ---------------------------------------------------------------------
      1         12           0       -5.502274    1.240741    0.154554
      2          6           0       -5.130261   -2.070542   -0.340472
      3          6           0       -3.458642    1.166897    2.788356
      4          6           0       -6.166791    4.584562    0.614672
      5          6           0       -8.094041    1.223145   -2.291556
      6          7           0       -4.382171   -0.302573    1.064902
      7          6           0       -4.275059   -1.638125    0.556506
      8          6           0       -3.256890   -2.327212    1.343524
      9          6           0       -2.911511   -1.309045    2.639125
     10          6           0       -3.539539   -0.085906    2.102737
     11          6           0       -3.314532   -1.718987    4.022296
     12          6           0       -1.916208   -2.628806    0.510841
     13          6           0       -1.006513   -3.375578    1.310879
     14          6           0        0.298020   -3.898013    0.514814
     15          8           0        0.508469   -3.380330   -0.633971
     16          8           0        1.005771   -4.785199    1.135824
     17          7           0       -4.848658    2.579061    1.464272
     18          6           0       -4.001686    2.414840    2.523295
     19          6           0       -3.709247    3.609313    3.190290
     20          6           0       -4.373213    4.601667    2.516546
     21          6           0       -5.148160    3.959222    1.452534
     22          6           0       -2.815132    3.892423    4.390299
     23          6           0       -4.498281    6.062915    2.817940
     24          8           0       -3.835020    6.598681    3.713458
     25          7           0       -6.922458    2.627888   -0.727195
     26          6           0       -6.900389    3.927186   -0.386310
     27          6           0       -7.903342    4.632284   -1.141722
     28          6           0       -8.388302    3.671071   -2.048940
     29          6           0       -7.799000    2.402361   -1.672871
     30          6           0       -8.136322    6.101798   -1.182981
     31          6           0       -9.440044    3.734857   -3.181775
     32          6           0       -8.762228    3.935520   -4.525936
     33          7           0       -6.488292   -0.102679   -1.035286
     34          6           0       -7.537534    0.002567   -1.968890
     35          6           0       -7.645389   -1.358745   -2.620002
     36          6           0       -6.844202   -2.190779   -1.946594
     37          6           0       -6.083008   -1.340240   -0.999121
     38          6           0       -8.634803   -1.672363   -3.706454
     39          6           0       -6.290628   -3.514444   -1.931066
     40          8           0       -6.543309   -4.651980   -2.560346
     41          6           0       -5.088870   -3.516930   -0.950085
     42          6           0       -5.285833   -4.642789    0.158148
     43          8           0       -5.612173   -4.417266    1.227057
     44          8           0       -5.079959   -5.832354   -0.413023
     45          6           0       -5.221042   -6.856727    0.683892
     46          6           0        2.325393   -5.050094    0.460687
     47          6           0        3.500057   -4.208202    0.977347
     48          6           0        3.987195   -3.201852    0.184162
     49          6           0        3.759907   -3.154469   -1.354685
     50          6           0        5.106211   -2.349127    0.709414
     51          6           0        6.460176   -2.734160    0.057623
     52          6           0        7.577316   -1.763472    0.561535
     53          6           0        8.953216   -2.014337   -0.040434
     54          6           0        9.479691   -3.381701    0.307161
     55          6           0        9.906272   -0.898106    0.461194
     56          6           0       11.351630   -0.924112   -0.186815
     57          6           0       12.156953    0.296777    0.207146
     58          6           0       13.543026    0.357320   -0.496020
     59          6           0       14.431507   -0.751107   -0.260578
     60          6           0       14.227393    1.728600   -0.119545
     61          6           0       15.449420    2.153884   -0.975195
     62          6           0       16.051432    3.421999   -0.620378
     63          6           0       17.251749    3.901450   -1.421105
     64          6           0       16.996309    4.074944   -3.013045
     65          6           0       17.812923    5.201446   -0.949205
     66          1           0       -2.779000    1.151635    3.548917
     67          1           0       -6.377550    5.501343    0.721827
     68          1           0       -8.765939    1.131357   -3.350874
     69          1           0       -3.589428   -3.244833    1.839763
     70          1           0       -1.865591   -1.322162    2.747626
     71          1           0       -2.778777   -2.502009    4.599444
     72          1           0       -3.164019   -0.713687    4.779713
     73          1           0       -4.469599   -2.107183    4.071563
     74          1           0       -2.228598   -3.181612   -0.431052
     75          1           0       -1.266776   -1.666627    0.389621
     76          1           0       -0.702568   -3.067002    2.229241
     77          1           0       -1.528786   -4.380372    1.803611
     78          1           0       -1.780350    3.384947    4.090990
     79          1           0       -2.759006    4.909194    4.858856
     80          1           0       -3.092552    3.172799    5.153490
     81          1           0       -5.268494    6.611511    2.136941
     82          1           0       -9.864174    2.700297   -3.286672
     83          1           0      -10.096529    4.484943   -2.876116
     84          1           0       -9.663753    4.326707   -5.187674
     85          1           0       -7.597343    4.540165   -4.432505
     86          1           0       -8.384127    2.730754   -4.912531
     87          1           0       -8.671549   -1.221922   -4.627775
     88          1           0       -8.409473   -2.813109   -3.894888
     89          1           0       -9.698544   -1.737409   -3.292071
     90          1           0       -4.249055   -3.881913   -1.462060
     91          1           0        2.399736   -6.263130    0.607249
     92          1           0        2.193029   -4.821031   -0.742536
     93          1           0        3.695564   -4.115694    1.977306
     94          1           0        2.819753   -3.648016   -1.734440
     95          1           0        4.090599   -2.199901   -1.671127
     96          1           0        4.401881   -3.999093   -1.791865
     97          1           0        4.921201   -1.419018    0.417332
     98          1           0        5.265211   -2.741175    1.706328
     99          1           0        6.711567   -3.777919    0.507598
    100          1           0        6.475853   -2.883076   -1.046169
    101          1           0        7.097229   -0.716330    0.468856
    102          1           0        7.461597   -1.903083    1.738420
    103          1           0        8.826819   -1.909013   -1.178527
    104          1           0        8.843139   -4.065691    0.014702
    105          1           0       10.313499   -3.578161   -0.382634
    106          1           0        9.743784   -3.463759    1.469005
    107          1           0        9.432694    0.122793    0.204027
    108          1           0        9.833038   -0.999818    1.573224
    109          1           0       11.964087   -1.785073    0.205505
    110          1           0       11.275635   -0.985542   -1.351284
    111          1           0       11.677974    1.123959   -0.009324
    112          1           0       12.180140    0.370042    1.322490
    113          1           0       13.442992    0.432990   -1.417880
    114          1           0       14.658240   -0.963209    0.823713
    115          1           0       13.817075   -1.605780   -0.628405
    116          1           0       15.373324   -0.711876   -0.918782
    117          1           0       13.424191    2.623315   -0.254978
    118          1           0       14.542104    1.699638    0.880853
    119          1           0       16.147284    1.326615   -0.790122
    120          1           0       15.395587    2.109683   -2.038456
    121          1           0       15.197151    4.248061   -0.730854
    122          1           0       16.405441    3.682707    0.372617
    123          1           0       18.196681    3.185347   -1.397967
    124          1           0       16.164875    4.966447   -3.165508
    125          1           0       17.927394    4.359954   -3.510821
    126          1           0       16.795671    3.048017   -3.382655
    127          1           0       18.048959    5.161569    0.251228
    128          1           0       18.855384    5.230820   -1.262740
    129          1           0       17.182485    6.053222   -1.087169
    130          1           0       -4.733099   -7.833553    0.232601
    131          1           0       -6.218351   -6.996490    0.908408
    132          1           0       -4.649273   -6.554726    1.688118
    133          8           0       -7.607589    6.925594   -0.443226
    134          1           0       -9.012642    6.332766   -1.907502
 ---------------------------------------------------------------------

 SCF Done:  E(RCAM-B3LYP) =  -3043.40363008     A.U. after   16 cycles

 Excitation energies and oscillator strengths:

 Excited State   1:      Singlet-A      2.0365 eV  608.81 nm  f=0.1987  <S**2>=0.000
     243 -> 246        0.23062
     244 -> 245        0.65573
 This state for optimization and/or second-order correction.
 Total Energy, E(TD-HF/TD-KS) =  -3043.32878965
 Copying the excited state density for this state as the 1-particle RhoCI density.

 The electronic state is 1-A.
 Alpha  occ. eigenvalues --  -46.81693 -19.24285 -19.23087 -19.18056 -19.17693
 Alpha  occ. eigenvalues --  -19.17346 -19.16151 -19.16146 -14.38655 -14.37256
 Alpha  occ. eigenvalues --  -14.36591 -14.36263 -10.35434 -10.34691 -10.31389
 Alpha  occ. eigenvalues --  -10.31255 -10.31088 -10.30422 -10.28704 -10.27730
 Alpha  occ. eigenvalues --  -10.26759 -10.26620 -10.26595 -10.26591 -10.26111
 Alpha  occ. eigenvalues --  -10.26066 -10.25784 -10.25605 -10.25591 -10.25241
 Alpha  occ. eigenvalues --  -10.25022 -10.24426 -10.24410 -10.24389 -10.24325
 Alpha  occ. eigenvalues --  -10.24201 -10.24076 -10.24016 -10.23921 -10.23326
 Alpha  occ. eigenvalues --  -10.23238 -10.22991 -10.22816 -10.22770 -10.22770
 Alpha  occ. eigenvalues --  -10.22646 -10.22550 -10.22526 -10.22505 -10.22461
 Alpha  occ. eigenvalues --  -10.22318 -10.22309 -10.22113 -10.21976 -10.21898
 Alpha  occ. eigenvalues --  -10.21770 -10.21641 -10.21558 -10.20895 -10.20699
 Alpha  occ. eigenvalues --  -10.20514 -10.20502 -10.20302 -10.19910 -10.19459
 Alpha  occ. eigenvalues --  -10.19402  -3.10222  -1.85162  -1.84714  -1.84606
 Alpha  occ. eigenvalues --   -1.15970  -1.14170  -1.07373  -1.06590  -1.05706
 Alpha  occ. eigenvalues --   -1.01885  -1.01675  -1.01038  -1.00108  -0.99357
 Alpha  occ. eigenvalues --   -0.98333  -0.88729  -0.86918  -0.86103  -0.85525
 Alpha  occ. eigenvalues --   -0.85172  -0.84695  -0.84633  -0.83873  -0.83758
 Alpha  occ. eigenvalues --   -0.83489  -0.82977  -0.81569  -0.80269  -0.79527
 Alpha  occ. eigenvalues --   -0.79011  -0.78767  -0.77449  -0.76979  -0.76825
 Alpha  occ. eigenvalues --   -0.75591  -0.74753  -0.73793  -0.72648  -0.72341
 Alpha  occ. eigenvalues --   -0.71855  -0.71213  -0.70200  -0.69784  -0.69729
 Alpha  occ. eigenvalues --   -0.69477  -0.68896  -0.67313  -0.66227  -0.65715
 Alpha  occ. eigenvalues --   -0.64923  -0.64762  -0.63784  -0.62648  -0.62280
 Alpha  occ. eigenvalues --   -0.61912  -0.61239  -0.60443  -0.60094  -0.58894
 Alpha  occ. eigenvalues --   -0.58830  -0.58136  -0.57333  -0.57104  -0.56898
 Alpha  occ. eigenvalues --   -0.56369  -0.56088  -0.55711  -0.55287  -0.54582
 Alpha  occ. eigenvalues --   -0.53975  -0.53628  -0.53363  -0.52918  -0.52449
 Alpha  occ. eigenvalues --   -0.52124  -0.51468  -0.51313  -0.50996  -0.50866
 Alpha  occ. eigenvalues --   -0.50770  -0.50267  -0.49920  -0.49533  -0.49247
 Alpha  occ. eigenvalues --   -0.48793  -0.48764  -0.48461  -0.48248  -0.48021
 Alpha  occ. eigenvalues --   -0.47612  -0.47551  -0.47118  -0.47008  -0.46749
 Alpha  occ. eigenvalues --   -0.46402  -0.46343  -0.46286  -0.46244  -0.45889
 Alpha  occ. eigenvalues --   -0.45837  -0.45437  -0.45223  -0.44912  -0.44825
 Alpha  occ. eigenvalues --   -0.44529  -0.44350  -0.44049  -0.43993  -0.43762
 Alpha  occ. eigenvalues --   -0.43683  -0.43586  -0.42903  -0.42678  -0.42567
 Alpha  occ. eigenvalues --   -0.42200  -0.42086  -0.41944  -0.41806  -0.41576
 Alpha  occ. eigenvalues --   -0.41379  -0.41282  -0.41084  -0.40890  -0.40883
 Alpha  occ. eigenvalues --   -0.40744  -0.40386  -0.40236  -0.40070  -0.39958
 Alpha  occ. eigenvalues --   -0.39748  -0.39565  -0.39478  -0.39226  -0.39126
 Alpha  occ. eigenvalues --   -0.38837  -0.38766  -0.38463  -0.38157  -0.37933
 Alpha  occ. eigenvalues --   -0.37660  -0.37329  -0.37117  -0.37009  -0.36829
 Alpha  occ. eigenvalues --   -0.36673  -0.36136  -0.35960  -0.35869  -0.35458
 Alpha  occ. eigenvalues --   -0.35306  -0.35162  -0.35128  -0.34887  -0.34718
 Alpha  occ. eigenvalues --   -0.34637  -0.34409  -0.34095  -0.34030  -0.33613
 Alpha  occ. eigenvalues --   -0.33272  -0.32661  -0.32559  -0.31620  -0.31427
 Alpha  occ. eigenvalues --   -0.31384  -0.30938  -0.30757  -0.30048  -0.29263
 Alpha  occ. eigenvalues --   -0.29215  -0.28343  -0.28205  -0.27864  -0.27619
 Alpha  occ. eigenvalues --   -0.27590  -0.26939  -0.23331  -0.21248
 Alpha virt. eigenvalues --   -0.08341  -0.06408  -0.02354  -0.00799   0.00109
 Alpha virt. eigenvalues --    0.01636   0.02628   0.03712   0.04281   0.04853
 Alpha virt. eigenvalues --    0.05462   0.05613   0.06002   0.08355   0.08877

 Mulliken charges:
               1
     1  Mg   0.832579
     2  C    0.103940
     3  C   -0.191449
     4  C   -0.083156
     5  C   -0.174862
     6  N   -0.650843
     7  C    0.324239
     8  C   -0.210144
     9  C   -0.129521
    10  C    0.366376
    11  C   -0.306233
    12  C   -0.148545
    13  C   -0.254701
    14  C    0.600766
    15  O   -0.509929
    16  O   -0.426758
    17  N   -0.736157
    18  C    0.340628
    19  C    0.067438
    20  C   -0.033498
    21  C    0.260714
    22  C   -0.377837
    23  C    0.249682
    24  O   -0.425242
    25  N   -0.694218
    26  C    0.298700
    27  C   -0.049637
    28  C   -0.012132
    29  C    0.347233
    30  C    0.257586
    31  C   -0.227609
    32  C   -0.263124
    33  N   -0.742181
    34  C    0.247960
    35  C   -0.002914
    36  C    0.099823
    37  C    0.329246
    38  C   -0.404141
    39  C    0.332500
    40  O   -0.515451
    41  C   -0.307810
    42  C    0.615099
    43  O   -0.417254
    44  O   -0.435461
    45  C   -0.108622
    46  C   -0.014308
    47  C   -0.123045
    48  C    0.124966
    49  C   -0.365934
    50  C   -0.214547
    51  C   -0.196870
    52  C   -0.153772
    53  C   -0.063182
    54  C   -0.289721
    55  C   -0.163834
    56  C   -0.184622
    57  C   -0.165316
    58  C   -0.028232
    59  C   -0.310476
    60  C   -0.176116
    61  C   -0.182955
    62  C   -0.134980
    63  C   -0.059860
    64  C   -0.301627
    65  C   -0.296085
    66  H    0.056803
    67  H    0.073891
    68  H    0.097231
    69  H    0.127953
    70  H    0.113246
    71  H    0.119579
    72  H    0.083707
    73  H    0.106711
    74  H    0.123312
    75  H    0.118200
    76  H    0.139083
    77  H    0.075502
    78  H    0.104267
    79  H    0.170511
    80  H    0.122994
    81  H    0.096290
    82  H    0.116776
    83  H    0.119233
    84  H    0.111480
    85  H    0.094170
    86  H    0.061230
    87  H    0.137463
    88  H    0.139393
    89  H    0.131473
    90  H    0.159537
    91  H    0.098478
    92  H    0.121935
    93  H    0.084046
    94  H    0.147493
    95  H    0.115104
    96  H    0.119774
    97  H    0.111970
    98  H    0.110195
    99  H    0.087470
   100  H    0.094934
   101  H    0.078586
   102  H    0.067080
   103  H    0.076000
   104  H    0.114284
   105  H    0.102973
   106  H    0.086401
   107  H    0.078740
   108  H    0.088505
   109  H    0.099957
   110  H    0.076675
   111  H    0.099838
   112  H    0.080820
   113  H    0.091654
   114  H    0.095728
   115  H    0.094192
   116  H    0.094701
   117  H    0.053420
   118  H    0.098016
   119  H    0.087227
   120  H    0.095359
   121  H    0.059723
   122  H    0.092103
   123  H    0.064808
   124  H    0.080827
   125  H    0.103467
   126  H    0.100578
   127  H    0.058032
   128  H    0.108086
   129  H    0.111204
   130  H    0.119793
   131  H    0.156030
   132  H    0.122677
   133  O   -0.422836
   134  H    0.059346
 Sum of Mulliken charges =   0.00000

 Dipole moment (field-independent basis, Debye):
    X=              3.4931    Y=             -5.2280    Z=             -0.2523  Tot=              6.2927
 Quadrupole moment (field-independent basis, Debye-Ang):
   XX=           -375.6478   YY=           -445.3178   ZZ=           -394.7926
   XY=             -1.8821   XZ=             13.2281   YZ=            -36.4240

 Normal termination of Gaussian 09 at Tue Oct  8 21:52:35 2019.
