 Gaussian 09, Revision D.01,
 Gaussian 09:  ES64L-G09RevD.01 24-Apr-2013

 ----------------------------------------------------------------------
 # td=(NStates=1) iop(3/107=0140000000,3/108=0140000000) iop(3/107=0140
 000000,3/108=0140000000) CAM-B3LYP/6-31G(d,p)
 ----------------------------------------------------------------------

 --
 TD
 --
 Symbolic Z-matrix:
 Charge =  0 Multiplicity = 1

                         Standard orientation:
 ---------------------------------------------------------------------
 Center     Atomic      Atomic             Coordinates (Angstroms)
 Number     Number       Type             X           Y           Z
 ---------------------------------------------------------------------
      1         12           0       -5.539735    1.278413    0.181997
      2          6           0       -5.112705   -2.176383   -0.225869
      3          6           0       -3.292741    1.106820    2.752274
      4          6           0       -6.026034    4.613944    0.604288
      5          6           0       -7.819783    1.268017   -2.405856
      6          7           0       -4.288193   -0.268280    1.087215
      7          6           0       -4.374711   -1.602070    0.752063
      8          6           0       -3.295116   -2.400023    1.524003
      9          6           0       -2.905829   -1.327554    2.704741
     10          6           0       -3.523476   -0.094967    2.190233
     11          6           0       -3.412823   -1.929942    4.058738
     12          6           0       -2.146534   -2.829370    0.584729
     13          6           0       -1.105364   -3.663073    1.340000
     14          6           0        0.150396   -3.956068    0.639615
     15          8           0        0.300051   -3.617902   -0.536731
     16          8           0        0.957193   -4.686051    1.420972
     17          7           0       -4.812071    2.609897    1.434772
     18          6           0       -3.910070    2.368857    2.477055
     19          6           0       -3.543413    3.631704    3.199262
     20          6           0       -4.407360    4.578568    2.563823
     21          6           0       -5.162619    3.940221    1.534575
     22          6           0       -2.615051    3.742147    4.353137
     23          6           0       -4.541987    6.016206    3.013666
     24          8           0       -3.860147    6.521144    3.907762
     25          7           0       -6.795998    2.692316   -0.734843
     26          6           0       -6.839758    3.925542   -0.329347
     27          6           0       -7.848848    4.686478   -1.162249
     28          6           0       -8.391329    3.801058   -2.119363
     29          6           0       -7.599842    2.547629   -1.817762
     30          6           0       -8.208056    6.117463   -1.006877
     31          6           0       -9.305866    4.076552   -3.297790
     32          6           0       -8.734632    3.848975   -4.714311
     33          7           0       -6.456838   -0.103217   -1.026294
     34          6           0       -7.352736    0.040840   -1.994532
     35          6           0       -7.516633   -1.240572   -2.701235
     36          6           0       -6.645523   -2.146045   -1.935495
     37          6           0       -5.997119   -1.373653   -0.972178
     38          6           0       -8.398420   -1.519747   -3.861590
     39          6           0       -6.161330   -3.427961   -1.953551
     40          8           0       -6.386808   -4.423484   -2.752426
     41          6           0       -5.029545   -3.446111   -0.928715
     42          6           0       -5.337547   -4.634596    0.123066
     43          8           0       -5.854255   -4.375322    1.197375
     44          8           0       -5.071245   -5.853853   -0.365437
     45          6           0       -5.420492   -6.946737    0.373740
     46          6           0        2.197946   -5.074100    0.649521
     47          6           0        3.359137   -4.037415    0.976108
     48          6           0        3.953590   -3.321563    0.080037
     49          6           0        3.669951   -3.259949   -1.362100
     50          6           0        5.130127   -2.377108    0.445662
     51          6           0        6.420247   -2.742751   -0.054633
     52          6           0        7.603669   -1.767510    0.551916
     53          6           0        8.908094   -2.050556   -0.077628
     54          6           0        9.384089   -3.428795    0.087782
     55          6           0       10.012642   -1.066465    0.463175
     56          6           0       11.350666   -0.935252   -0.188054
     57          6           0       12.186454    0.256618    0.303224
     58          6           0       13.397081    0.425751   -0.564548
     59          6           0       14.417048   -0.733861   -0.436942
     60          6           0       14.190341    1.778271   -0.235823
     61          6           0       15.392162    2.089939   -1.044552
     62          6           0       15.878159    3.524784   -0.562549
     63          6           0       17.215799    3.952826   -1.395371
     64          6           0       16.875373    4.242563   -2.867072
     65          6           0       17.840565    5.055408   -0.674722
     66          1           0       -2.584413    1.218165    3.533838
     67          1           0       -6.074029    5.585073    0.630888
     68          1           0       -8.419427    1.216018   -3.402507
     69          1           0       -3.854585   -3.424105    1.866998
     70          1           0       -1.861351   -1.184873    2.762199
     71          1           0       -2.948458   -2.881109    4.396588
     72          1           0       -3.378097   -1.236975    4.868878
     73          1           0       -4.412766   -2.164683    3.893614
     74          1           0       -2.544251   -3.330335   -0.384216
     75          1           0       -1.675252   -2.081241    0.339921
     76          1           0       -0.840196   -3.159980    2.208259
     77          1           0       -1.435408   -4.590939    1.646015
     78          1           0       -1.727688    3.197099    4.312441
     79          1           0       -2.407928    4.857811    4.543811
     80          1           0       -3.333296    3.446864    5.369550
     81          1           0       -5.293065    6.545618    2.354596
     82          1           0      -10.083560    3.293383   -2.995123
     83          1           0       -9.539318    5.118995   -3.050938
     84          1           0       -9.543926    4.058511   -5.453386
     85          1           0       -8.113403    4.747140   -4.972223
     86          1           0       -8.158037    2.924428   -4.810707
     87          1           0       -8.074718   -1.024150   -4.674574
     88          1           0       -8.319429   -2.694250   -4.121003
     89          1           0       -9.426965   -1.207398   -3.718293
     90          1           0       -4.080801   -3.611985   -1.474760
     91          1           0        2.591212   -6.036588    1.181096
     92          1           0        1.883705   -5.296957   -0.354592
     93          1           0        3.631843   -4.219549    1.920049
     94          1           0        2.651302   -3.716827   -1.858574
     95          1           0        3.732087   -2.062588   -1.567449
     96          1           0        4.515501   -3.779738   -1.838449
     97          1           0        4.710135   -1.312722    0.321250
     98          1           0        5.244704   -2.431002    1.611757
     99          1           0        6.801774   -3.662263   -0.023542
    100          1           0        6.477432   -2.579204   -1.083783
    101          1           0        7.164257   -0.711479    0.372936
    102          1           0        7.627240   -2.021132    1.465230
    103          1           0        8.778788   -1.796348   -1.233709
    104          1           0        8.999686   -4.234281   -0.521524
    105          1           0       10.525130   -3.543799   -0.354530
    106          1           0        9.504850   -3.885905    1.142973
    107          1           0        9.353439    0.078375    0.398589
    108          1           0       10.235074   -1.187177    1.625732
    109          1           0       11.898530   -1.815474   -0.016862
    110          1           0       11.292201   -0.877253   -1.197755
    111          1           0       11.497740    1.158198    0.098361
    112          1           0       12.539693    0.313548    1.498535
    113          1           0       12.801344    0.526212   -1.547753
    114          1           0       14.764032   -0.903030    0.608807
    115          1           0       14.016124   -1.643164   -0.906051
    116          1           0       15.432258   -0.397479   -0.709515
    117          1           0       13.460651    2.486918   -0.328837
    118          1           0       14.395630    1.612665    0.803426
    119          1           0       16.214435    1.177353   -1.111617
    120          1           0       14.930259    2.096570   -1.998568
    121          1           0       15.223046    4.363048   -0.500046
    122          1           0       16.204991    3.520135    0.417299
    123          1           0       17.914863    3.155952   -1.590887
    124          1           0       16.367085    5.315018   -2.858737
    125          1           0       17.795543    4.752698   -3.493646
    126          1           0       16.779175    3.312313   -3.357832
    127          1           0       18.160820    4.771431    0.434957
    128          1           0       18.877324    5.320303   -1.297342
    129          1           0       17.067823    6.039589   -0.658704
    130          1           0       -5.179196   -7.830321   -0.365775
    131          1           0       -6.587669   -6.920635    0.492966
    132          1           0       -4.919209   -7.060827    1.476785
    133          8           0       -7.680992    6.835183   -0.265757
    134          1           0       -8.828599    6.492724   -1.854816
 ---------------------------------------------------------------------

 SCF Done:  E(RCAM-B3LYP) =  -3043.40233026     A.U. after   16 cycles

 Excitation energies and oscillator strengths:

 Excited State   1:      Singlet-A      1.9924 eV  622.27 nm  f=0.2154  <S**2>=0.000
     243 -> 246        0.24796
     244 -> 245        0.65218
 This state for optimization and/or second-order correction.
 Total Energy, E(TD-HF/TD-KS) =  -3043.32910932
 Copying the excited state density for this state as the 1-particle RhoCI density.

 The electronic state is 1-A.
 Alpha  occ. eigenvalues --  -46.81659 -19.23629 -19.22715 -19.17807 -19.17770
 Alpha  occ. eigenvalues --  -19.17620 -19.16243 -19.15082 -14.38578 -14.37312
 Alpha  occ. eigenvalues --  -14.37111 -14.36162 -10.35850 -10.33981 -10.30946
 Alpha  occ. eigenvalues --  -10.30423 -10.29526 -10.29454 -10.28338 -10.27246
 Alpha  occ. eigenvalues --  -10.26803 -10.26760 -10.26631 -10.26581 -10.26500
 Alpha  occ. eigenvalues --  -10.25713 -10.25627 -10.25454 -10.25361 -10.25192
 Alpha  occ. eigenvalues --  -10.25073 -10.24866 -10.24781 -10.24270 -10.24035
 Alpha  occ. eigenvalues --  -10.23704 -10.23398 -10.23360 -10.23234 -10.23216
 Alpha  occ. eigenvalues --  -10.23027 -10.23015 -10.22902 -10.22900 -10.22799
 Alpha  occ. eigenvalues --  -10.22692 -10.22582 -10.22319 -10.22138 -10.22122
 Alpha  occ. eigenvalues --  -10.22097 -10.21868 -10.21717 -10.21527 -10.21316
 Alpha  occ. eigenvalues --  -10.21315 -10.21236 -10.21196 -10.21046 -10.20711
 Alpha  occ. eigenvalues --  -10.20623 -10.20409 -10.20254 -10.19710 -10.19647
 Alpha  occ. eigenvalues --  -10.19203  -3.10223  -1.85165  -1.84719  -1.84605
 Alpha  occ. eigenvalues --   -1.15271  -1.12400  -1.10916  -1.06026  -1.06023
 Alpha  occ. eigenvalues --   -1.03537  -1.01956  -1.01194  -1.00237  -0.99514
 Alpha  occ. eigenvalues --   -0.98242  -0.90308  -0.86953  -0.85758  -0.85293
 Alpha  occ. eigenvalues --   -0.85247  -0.84692  -0.84555  -0.83410  -0.83336
 Alpha  occ. eigenvalues --   -0.82752  -0.82391  -0.81475  -0.80756  -0.79824
 Alpha  occ. eigenvalues --   -0.79092  -0.78728  -0.78033  -0.77424  -0.76446
 Alpha  occ. eigenvalues --   -0.75629  -0.75258  -0.73731  -0.73128  -0.72150
 Alpha  occ. eigenvalues --   -0.71059  -0.70558  -0.70335  -0.70149  -0.69641
 Alpha  occ. eigenvalues --   -0.69144  -0.68831  -0.67808  -0.67271  -0.66619
 Alpha  occ. eigenvalues --   -0.65707  -0.65228  -0.64278  -0.63228  -0.62118
 Alpha  occ. eigenvalues --   -0.61482  -0.61211  -0.61087  -0.59124  -0.58654
 Alpha  occ. eigenvalues --   -0.58264  -0.57837  -0.57793  -0.57016  -0.56716
 Alpha  occ. eigenvalues --   -0.56576  -0.55955  -0.55456  -0.55229  -0.54654
 Alpha  occ. eigenvalues --   -0.53996  -0.53417  -0.52512  -0.52332  -0.51971
 Alpha  occ. eigenvalues --   -0.51749  -0.51515  -0.51395  -0.51242  -0.50634
 Alpha  occ. eigenvalues --   -0.50265  -0.50135  -0.49685  -0.49623  -0.49418
 Alpha  occ. eigenvalues --   -0.49190  -0.48790  -0.48604  -0.48278  -0.48130
 Alpha  occ. eigenvalues --   -0.47793  -0.47713  -0.47281  -0.47178  -0.47009
 Alpha  occ. eigenvalues --   -0.46682  -0.46611  -0.46435  -0.46129  -0.45729
 Alpha  occ. eigenvalues --   -0.45443  -0.45389  -0.45174  -0.44783  -0.44705
 Alpha  occ. eigenvalues --   -0.44390  -0.44245  -0.44141  -0.43956  -0.43795
 Alpha  occ. eigenvalues --   -0.43597  -0.43390  -0.43264  -0.43194  -0.42917
 Alpha  occ. eigenvalues --   -0.42861  -0.42459  -0.42356  -0.42270  -0.42186
 Alpha  occ. eigenvalues --   -0.42010  -0.41774  -0.41555  -0.41311  -0.41197
 Alpha  occ. eigenvalues --   -0.40806  -0.40668  -0.40603  -0.40496  -0.40365
 Alpha  occ. eigenvalues --   -0.39985  -0.39784  -0.39542  -0.39343  -0.39018
 Alpha  occ. eigenvalues --   -0.38873  -0.38495  -0.38359  -0.38118  -0.37974
 Alpha  occ. eigenvalues --   -0.37816  -0.37513  -0.37416  -0.37264  -0.37238
 Alpha  occ. eigenvalues --   -0.37097  -0.36736  -0.36274  -0.35852  -0.35461
 Alpha  occ. eigenvalues --   -0.35382  -0.34680  -0.34508  -0.34420  -0.33991
 Alpha  occ. eigenvalues --   -0.33864  -0.33648  -0.33574  -0.33228  -0.33089
 Alpha  occ. eigenvalues --   -0.32550  -0.32277  -0.31573  -0.31444  -0.30905
 Alpha  occ. eigenvalues --   -0.30868  -0.30834  -0.29812  -0.29627  -0.29457
 Alpha  occ. eigenvalues --   -0.28722  -0.28199  -0.28172  -0.27915  -0.27636
 Alpha  occ. eigenvalues --   -0.27100  -0.26480  -0.22686  -0.21527
 Alpha virt. eigenvalues --   -0.08795  -0.06156  -0.01755  -0.00536   0.00413
 Alpha virt. eigenvalues --    0.03116   0.03423   0.04515   0.04612   0.04955
 Alpha virt. eigenvalues --    0.05045   0.05753   0.08102   0.08387   0.09431

 Mulliken charges:
               1
     1  Mg   0.831561
     2  C    0.153651
     3  C   -0.194453
     4  C   -0.114937
     5  C   -0.182315
     6  N   -0.643082
     7  C    0.307378
     8  C   -0.184160
     9  C   -0.165724
    10  C    0.387861
    11  C   -0.314073
    12  C   -0.130326
    13  C   -0.269140
    14  C    0.608395
    15  O   -0.494843
    16  O   -0.468786
    17  N   -0.722043
    18  C    0.278690
    19  C    0.072715
    20  C   -0.073876
    21  C    0.314338
    22  C   -0.383298
    23  C    0.265956
    24  O   -0.428145
    25  N   -0.663787
    26  C    0.330144
    27  C   -0.079134
    28  C    0.012371
    29  C    0.254578
    30  C    0.251783
    31  C   -0.213934
    32  C   -0.315955
    33  N   -0.752716
    34  C    0.310778
    35  C    0.018800
    36  C    0.082150
    37  C    0.295242
    38  C   -0.395626
    39  C    0.298580
    40  O   -0.525279
    41  C   -0.350809
    42  C    0.613425
    43  O   -0.455698
    44  O   -0.394847
    45  C   -0.089512
    46  C   -0.018298
    47  C   -0.133007
    48  C    0.161721
    49  C   -0.349301
    50  C   -0.235705
    51  C   -0.180906
    52  C   -0.154093
    53  C   -0.041384
    54  C   -0.317079
    55  C   -0.143723
    56  C   -0.168954
    57  C   -0.152371
    58  C   -0.064208
    59  C   -0.312344
    60  C   -0.175176
    61  C   -0.173796
    62  C   -0.172773
    63  C   -0.042199
    64  C   -0.298805
    65  C   -0.282272
    66  H    0.074297
    67  H    0.099932
    68  H    0.083472
    69  H    0.106262
    70  H    0.111066
    71  H    0.114257
    72  H    0.108775
    73  H    0.135696
    74  H    0.099216
    75  H    0.116125
    76  H    0.131524
    77  H    0.136128
    78  H    0.130321
    79  H    0.163757
    80  H    0.106369
    81  H    0.085639
    82  H    0.121966
    83  H    0.110692
    84  H    0.120193
    85  H    0.116625
    86  H    0.123941
    87  H    0.141003
    88  H    0.142855
    89  H    0.131894
    90  H    0.167536
    91  H    0.101177
    92  H    0.139518
    93  H    0.085105
    94  H    0.126500
    95  H    0.090762
    96  H    0.123968
    97  H    0.104139
    98  H    0.077717
    99  H    0.108384
   100  H    0.098434
   101  H    0.084737
   102  H    0.104972
   103  H    0.071024
   104  H    0.111583
   105  H    0.072159
   106  H    0.100695
   107  H    0.025696
   108  H    0.074939
   109  H    0.107831
   110  H    0.098848
   111  H    0.078786
   112  H    0.055080
   113  H    0.066720
   114  H    0.097206
   115  H    0.105384
   116  H    0.091476
   117  H    0.098103
   118  H    0.086645
   119  H    0.075063
   120  H    0.111844
   121  H    0.099185
   122  H    0.102303
   123  H    0.089417
   124  H    0.094087
   125  H    0.060626
   126  H    0.121772
   127  H    0.092280
   128  H    0.072253
   129  H    0.069176
   130  H    0.122092
   131  H    0.119959
   132  H    0.108293
   133  O   -0.381275
   134  H    0.048571
 Sum of Mulliken charges =   0.00000

 Dipole moment (field-independent basis, Debye):
    X=              2.6560    Y=             -3.2005    Z=             -1.1140  Tot=              4.3057
 Quadrupole moment (field-independent basis, Debye-Ang):
   XX=           -373.7606   YY=           -430.3450   ZZ=           -395.0253
   XY=            -20.3021   XZ=             23.7070   YZ=            -38.1105

 Normal termination of Gaussian 09 at Tue Oct  8 14:18:11 2019.
