 Gaussian 09, Revision D.01,
 Gaussian 09:  ES64L-G09RevD.01 24-Apr-2013

 ----------------------------------------------------------------------
 # td=(NStates=1) iop(3/107=0140000000,3/108=0140000000) iop(3/107=0140
 000000,3/108=0140000000) CAM-B3LYP/6-31G(d,p)
 ----------------------------------------------------------------------

 --
 TD
 --
 Symbolic Z-matrix:
 Charge =  0 Multiplicity = 1

                         Standard orientation:
 ---------------------------------------------------------------------
 Center     Atomic      Atomic             Coordinates (Angstroms)
 Number     Number       Type             X           Y           Z
 ---------------------------------------------------------------------
      1         12           0       -5.542509    1.138114    0.124478
      2          6           0       -4.958073   -2.109312   -0.443685
      3          6           0       -3.559006    1.208299    2.778036
      4          6           0       -6.277434    4.489735    0.750352
      5          6           0       -8.100051    1.068879   -2.315455
      6          7           0       -4.395352   -0.287799    1.027004
      7          6           0       -4.250609   -1.589836    0.641054
      8          6           0       -3.170115   -2.270862    1.431047
      9          6           0       -2.863635   -1.230365    2.594940
     10          6           0       -3.676150   -0.025950    2.120422
     11          6           0       -3.357594   -1.671262    3.945955
     12          6           0       -1.880337   -2.606910    0.633749
     13          6           0       -0.863408   -3.449324    1.495127
     14          6           0        0.282008   -3.849021    0.717249
     15          8           0        0.530609   -3.489020   -0.459895
     16          8           0        1.096961   -4.660751    1.381446
     17          7           0       -4.963620    2.630759    1.397280
     18          6           0       -4.072772    2.452477    2.494381
     19          6           0       -3.871249    3.657388    3.285039
     20          6           0       -4.796954    4.576020    2.706653
     21          6           0       -5.394529    3.873265    1.541575
     22          6           0       -2.933197    3.841088    4.362138
     23          6           0       -4.931369    5.997426    2.948394
     24          8           0       -4.265010    6.550121    3.790292
     25          7           0       -6.892350    2.642119   -0.892708
     26          6           0       -6.984688    3.918705   -0.359302
     27          6           0       -8.028909    4.581795   -1.283909
     28          6           0       -8.401114    3.646965   -2.206552
     29          6           0       -7.754351    2.391722   -1.900236
     30          6           0       -8.485939    5.999502   -1.227294
     31          6           0       -9.464315    3.729076   -3.217806
     32          6           0       -8.862437    3.718031   -4.571099
     33          7           0       -6.452782   -0.185649   -1.135680
     34          6           0       -7.392499   -0.142470   -2.197318
     35          6           0       -7.488198   -1.451291   -2.742273
     36          6           0       -6.578015   -2.161268   -2.013631
     37          6           0       -6.015743   -1.455715   -1.056445
     38          6           0       -8.548490   -1.750142   -3.878627
     39          6           0       -6.136396   -3.604357   -1.958371
     40          8           0       -6.570656   -4.628963   -2.458697
     41          6           0       -5.023849   -3.567126   -0.878899
     42          6           0       -5.357160   -4.596082    0.187596
     43          8           0       -5.659381   -4.382559    1.354865
     44          8           0       -5.189266   -5.742455   -0.279630
     45          6           0       -5.511179   -6.849679    0.566829
     46          6           0        2.377068   -4.968710    0.743775
     47          6           0        3.450890   -4.022697    0.990472
     48          6           0        4.041397   -3.171501    0.129882
     49          6           0        3.788676   -3.138400   -1.312004
     50          6           0        5.202193   -2.243536    0.654057
     51          6           0        6.546581   -2.478730    0.065646
     52          6           0        7.647201   -1.653125    0.439506
     53          6           0        9.041845   -1.927356    0.001523
     54          6           0        9.532823   -3.438285    0.150300
     55          6           0       10.108530   -0.936724    0.462832
     56          6           0       11.465396   -0.892263   -0.249475
     57          6           0       12.313848    0.256587    0.226987
     58          6           0       13.606534    0.438262   -0.632014
     59          6           0       14.599752   -0.660499   -0.230326
     60          6           0       14.261055    1.827489   -0.334824
     61          6           0       15.620265    2.147857   -0.973143
     62          6           0       16.107046    3.608653   -0.674171
     63          6           0       17.518091    3.848234   -1.385446
     64          6           0       17.390934    3.817652   -2.911372
     65          6           0       18.060622    5.184512   -0.763662
     66          1           0       -2.852947    1.275733    3.595574
     67          1           0       -6.456174    5.567189    0.818148
     68          1           0       -8.927744    1.249470   -2.936482
     69          1           0       -3.491457   -3.189277    1.806638
     70          1           0       -1.919044   -1.157526    2.469292
     71          1           0       -2.758599   -2.587837    4.267238
     72          1           0       -3.175065   -0.793910    4.683372
     73          1           0       -4.366016   -1.759770    3.942815
     74          1           0       -2.227444   -3.410760   -0.042250
     75          1           0       -1.413201   -1.616092   -0.135188
     76          1           0       -0.579719   -2.942669    2.533911
     77          1           0       -1.355822   -4.381180    1.738583
     78          1           0       -1.932070    3.573945    3.983588
     79          1           0       -2.809894    4.728910    4.859573
     80          1           0       -3.231637    3.154406    5.276696
     81          1           0       -5.819019    6.440887    2.329963
     82          1           0      -10.202934    2.899184   -3.139675
     83          1           0      -10.010554    4.570250   -2.903446
     84          1           0       -9.701920    3.596188   -5.402131
     85          1           0       -8.495762    4.730716   -4.682241
     86          1           0       -8.224385    2.800790   -4.700391
     87          1           0       -8.053005   -1.225422   -4.906670
     88          1           0       -8.501871   -2.791307   -4.306640
     89          1           0       -9.430265   -1.468110   -3.569376
     90          1           0       -3.985804   -3.619656   -1.471921
     91          1           0        2.403309   -5.853651    1.313991
     92          1           0        2.216023   -5.313732   -0.397371
     93          1           0        3.712631   -4.104599    2.109937
     94          1           0        2.823970   -3.378064   -1.468504
     95          1           0        3.663905   -2.148405   -1.704337
     96          1           0        4.450917   -3.720475   -1.920669
     97          1           0        5.006985   -1.165766    0.341921
     98          1           0        5.230847   -2.101014    1.786496
     99          1           0        6.807862   -3.547293    0.296560
    100          1           0        6.483262   -2.627820   -1.146507
    101          1           0        7.498360   -0.570899    0.312153
    102          1           0        7.822269   -1.961376    1.636060
    103          1           0        9.083260   -1.820070   -1.061426
    104          1           0        8.671931   -4.309072   -0.199366
    105          1           0       10.466561   -3.361401   -0.265815
    106          1           0        9.654366   -3.643571    1.227399
    107          1           0        9.545984    0.108268    0.183211
    108          1           0       10.114005   -1.006877    1.555006
    109          1           0       11.894030   -1.958728    0.008533
    110          1           0       11.366275   -0.836147   -1.376721
    111          1           0       11.886764    1.338782    0.015401
    112          1           0       12.665072    0.068978    1.363154
    113          1           0       13.373428    0.328932   -1.781589
    114          1           0       14.763995   -0.655522    0.716485
    115          1           0       14.082646   -1.621948   -0.397820
    116          1           0       15.318985   -0.619332   -0.744631
    117          1           0       13.451039    2.517248   -0.509552
    118          1           0       14.149909    1.878753    0.773935
    119          1           0       16.369750    1.406806   -0.584224
    120          1           0       15.579870    2.009750   -1.986575
    121          1           0       15.529018    4.404955   -1.025096
    122          1           0       16.233276    3.638288    0.406324
    123          1           0       18.287264    3.118381   -1.041971
    124          1           0       16.730250    4.639500   -3.357089
    125          1           0       18.301956    4.025566   -3.298252
    126          1           0       17.221678    2.841614   -3.064778
    127          1           0       18.107981    5.025082    0.492161
    128          1           0       19.037330    5.320050   -1.259801
    129          1           0       17.425496    6.011237   -0.933911
    130          1           0       -5.293735   -7.697548    0.037367
    131          1           0       -6.577078   -6.873506    0.952095
    132          1           0       -5.048897   -6.867051    1.406386
    133          8           0       -7.893431    6.820185   -0.568560
    134          1           0       -9.388110    6.250768   -1.950203
 ---------------------------------------------------------------------

 SCF Done:  E(RCAM-B3LYP) =  -3043.41283971     A.U. after   16 cycles

 Excitation energies and oscillator strengths:

 Excited State   1:      Singlet-A      2.0531 eV  603.90 nm  f=0.1540  <S**2>=0.000
     243 -> 246        0.30794
     244 -> 245        0.62923
 This state for optimization and/or second-order correction.
 Total Energy, E(TD-HF/TD-KS) =  -3043.33739098
 Copying the excited state density for this state as the 1-particle RhoCI density.

 The electronic state is 1-A.
 Alpha  occ. eigenvalues --  -46.81737 -19.24067 -19.22409 -19.17613 -19.17249
 Alpha  occ. eigenvalues --  -19.16901 -19.16356 -19.16343 -14.39104 -14.36717
 Alpha  occ. eigenvalues --  -14.35938 -14.35354 -10.35037 -10.34613 -10.31251
 Alpha  occ. eigenvalues --  -10.31173 -10.30099 -10.27648 -10.27590 -10.27010
 Alpha  occ. eigenvalues --  -10.26790 -10.26749 -10.26321 -10.25717 -10.25539
 Alpha  occ. eigenvalues --  -10.25459 -10.25330 -10.25316 -10.25240 -10.25175
 Alpha  occ. eigenvalues --  -10.24325 -10.24284 -10.24201 -10.23683 -10.23519
 Alpha  occ. eigenvalues --  -10.23411 -10.23395 -10.23070 -10.22910 -10.22906
 Alpha  occ. eigenvalues --  -10.22781 -10.22721 -10.22654 -10.22527 -10.22442
 Alpha  occ. eigenvalues --  -10.22397 -10.22359 -10.22328 -10.22296 -10.22204
 Alpha  occ. eigenvalues --  -10.22103 -10.21999 -10.21973 -10.21752 -10.21745
 Alpha  occ. eigenvalues --  -10.21690 -10.21245 -10.21100 -10.21050 -10.20897
 Alpha  occ. eigenvalues --  -10.20674 -10.20231 -10.20163 -10.19300 -10.19124
 Alpha  occ. eigenvalues --  -10.16021  -3.10169  -1.85119  -1.84644  -1.84562
 Alpha  occ. eigenvalues --   -1.17899  -1.13459  -1.07623  -1.07021  -1.06732
 Alpha  occ. eigenvalues --   -1.04505  -1.02662  -1.01113  -0.99824  -0.99466
 Alpha  occ. eigenvalues --   -0.97910  -0.88958  -0.86785  -0.86226  -0.85976
 Alpha  occ. eigenvalues --   -0.85417  -0.85098  -0.84602  -0.83730  -0.83193
 Alpha  occ. eigenvalues --   -0.83013  -0.82410  -0.82068  -0.81323  -0.80823
 Alpha  occ. eigenvalues --   -0.79547  -0.78418  -0.77903  -0.77718  -0.77170
 Alpha  occ. eigenvalues --   -0.76094  -0.75609  -0.74654  -0.73963  -0.72395
 Alpha  occ. eigenvalues --   -0.72225  -0.71963  -0.71296  -0.70270  -0.69644
 Alpha  occ. eigenvalues --   -0.69322  -0.69159  -0.67410  -0.66298  -0.65818
 Alpha  occ. eigenvalues --   -0.65594  -0.65213  -0.64311  -0.63103  -0.62433
 Alpha  occ. eigenvalues --   -0.62282  -0.61436  -0.59792  -0.59739  -0.58414
 Alpha  occ. eigenvalues --   -0.58330  -0.57921  -0.57674  -0.57238  -0.57132
 Alpha  occ. eigenvalues --   -0.56300  -0.56033  -0.55682  -0.55551  -0.55427
 Alpha  occ. eigenvalues --   -0.54296  -0.53820  -0.53210  -0.52649  -0.52416
 Alpha  occ. eigenvalues --   -0.52205  -0.51619  -0.51231  -0.51071  -0.50917
 Alpha  occ. eigenvalues --   -0.50715  -0.50167  -0.50035  -0.49878  -0.49196
 Alpha  occ. eigenvalues --   -0.48848  -0.48498  -0.48268  -0.48183  -0.48075
 Alpha  occ. eigenvalues --   -0.47839  -0.47710  -0.47505  -0.47360  -0.47237
 Alpha  occ. eigenvalues --   -0.47130  -0.46650  -0.46283  -0.46056  -0.45834
 Alpha  occ. eigenvalues --   -0.45624  -0.45463  -0.45341  -0.45293  -0.45049
 Alpha  occ. eigenvalues --   -0.44726  -0.44573  -0.44317  -0.44195  -0.44084
 Alpha  occ. eigenvalues --   -0.43850  -0.43745  -0.43638  -0.43318  -0.42879
 Alpha  occ. eigenvalues --   -0.42723  -0.42659  -0.42401  -0.42079  -0.41782
 Alpha  occ. eigenvalues --   -0.41535  -0.41517  -0.41346  -0.41262  -0.41216
 Alpha  occ. eigenvalues --   -0.41164  -0.40928  -0.40640  -0.40540  -0.40083
 Alpha  occ. eigenvalues --   -0.39890  -0.39862  -0.39536  -0.39491  -0.39469
 Alpha  occ. eigenvalues --   -0.39119  -0.38929  -0.38850  -0.38462  -0.38283
 Alpha  occ. eigenvalues --   -0.38001  -0.37869  -0.37456  -0.37276  -0.36977
 Alpha  occ. eigenvalues --   -0.36567  -0.36476  -0.36002  -0.35649  -0.35513
 Alpha  occ. eigenvalues --   -0.35146  -0.35129  -0.34814  -0.34768  -0.34479
 Alpha  occ. eigenvalues --   -0.34249  -0.33835  -0.33661  -0.33449  -0.33031
 Alpha  occ. eigenvalues --   -0.32647  -0.32307  -0.31796  -0.31599  -0.31088
 Alpha  occ. eigenvalues --   -0.30782  -0.30543  -0.30371  -0.30194  -0.29389
 Alpha  occ. eigenvalues --   -0.28210  -0.28190  -0.28078  -0.27668  -0.27528
 Alpha  occ. eigenvalues --   -0.27461  -0.27140  -0.22492  -0.21478
 Alpha virt. eigenvalues --   -0.08202  -0.06286  -0.01506  -0.00213   0.00797
 Alpha virt. eigenvalues --    0.02008   0.03111   0.03252   0.03800   0.04980
 Alpha virt. eigenvalues --    0.05138   0.05943   0.08577   0.08798   0.08975

 Mulliken charges:
               1
     1  Mg   0.824158
     2  C   -0.008364
     3  C   -0.203989
     4  C   -0.191655
     5  C   -0.131338
     6  N   -0.656488
     7  C    0.341535
     8  C   -0.172566
     9  C   -0.106567
    10  C    0.335793
    11  C   -0.297875
    12  C   -0.167331
    13  C   -0.277138
    14  C    0.615571
    15  O   -0.498160
    16  O   -0.468368
    17  N   -0.715555
    18  C    0.289518
    19  C    0.093826
    20  C   -0.047425
    21  C    0.390581
    22  C   -0.388278
    23  C    0.248762
    24  O   -0.419661
    25  N   -0.660128
    26  C    0.276132
    27  C   -0.047172
    28  C    0.027321
    29  C    0.268501
    30  C    0.243235
    31  C   -0.251165
    32  C   -0.295752
    33  N   -0.719845
    34  C    0.253895
    35  C   -0.001620
    36  C   -0.026833
    37  C    0.381494
    38  C   -0.348818
    39  C    0.372884
    40  O   -0.452197
    41  C   -0.320921
    42  C    0.611408
    43  O   -0.507868
    44  O   -0.367487
    45  C   -0.092846
    46  C    0.008286
    47  C   -0.110514
    48  C    0.129588
    49  C   -0.386880
    50  C   -0.218343
    51  C   -0.150217
    52  C   -0.128214
    53  C   -0.070376
    54  C   -0.306785
    55  C   -0.163040
    56  C   -0.168957
    57  C   -0.155082
    58  C   -0.079451
    59  C   -0.268256
    60  C   -0.178550
    61  C   -0.188131
    62  C   -0.157392
    63  C   -0.083774
    64  C   -0.302036
    65  C   -0.296746
    66  H    0.076536
    67  H    0.129811
    68  H    0.072895
    69  H    0.121780
    70  H    0.106887
    71  H    0.100440
    72  H    0.095498
    73  H    0.141135
    74  H    0.111244
    75  H    0.094524
    76  H    0.131701
    77  H    0.148697
    78  H    0.128007
    79  H    0.165266
    80  H    0.109904
    81  H    0.073075
    82  H    0.111786
    83  H    0.103996
    84  H    0.084838
    85  H    0.123618
    86  H    0.118582
    87  H    0.098441
    88  H    0.142714
    89  H    0.139190
    90  H    0.162053
    91  H    0.115420
    92  H    0.112059
    93  H    0.081915
    94  H    0.151739
    95  H    0.117082
    96  H    0.128675
    97  H    0.090612
    98  H    0.092468
    99  H    0.090679
   100  H    0.062985
   101  H    0.084927
   102  H    0.047354
   103  H    0.084270
   104  H    0.077813
   105  H    0.111175
   106  H    0.094602
   107  H    0.060187
   108  H    0.092890
   109  H    0.089145
   110  H    0.096723
   111  H    0.079283
   112  H    0.078873
   113  H    0.058396
   114  H    0.103203
   115  H    0.080085
   116  H    0.096109
   117  H    0.083158
   118  H    0.081083
   119  H    0.092272
   120  H    0.106065
   121  H    0.097719
   122  H    0.090681
   123  H    0.081955
   124  H    0.094410
   125  H    0.108754
   126  H    0.118091
   127  H    0.065623
   128  H    0.093787
   129  H    0.107368
   130  H    0.130505
   131  H    0.128383
   132  H    0.139853
   133  O   -0.405243
   134  H    0.057909
 Sum of Mulliken charges =   0.00000

 Dipole moment (field-independent basis, Debye):
    X=              3.1185    Y=             -5.2506    Z=             -0.5439  Tot=              6.1310
 Quadrupole moment (field-independent basis, Debye-Ang):
   XX=           -372.0058   YY=           -432.7273   ZZ=           -391.6327
   XY=             15.4634   XZ=             10.2377   YZ=            -31.7577

 Normal termination of Gaussian 09 at Fri Oct  4 08:40:53 2019.
