 Gaussian 09, Revision D.01,
 Gaussian 09:  ES64L-G09RevD.01 24-Apr-2013

 ----------------------------------------------------------------------
 # td=(NStates=1) iop(3/107=0140000000,3/108=0140000000) iop(3/107=0140
 000000,3/108=0140000000) CAM-B3LYP/6-31G(d,p)
 ----------------------------------------------------------------------

 --
 TD
 --
 Symbolic Z-matrix:
 Charge =  0 Multiplicity = 1

                         Standard orientation:
 ---------------------------------------------------------------------
 Center     Atomic      Atomic             Coordinates (Angstroms)
 Number     Number       Type             X           Y           Z
 ---------------------------------------------------------------------
      1         12           0       -5.604956    1.212039    0.226036
      2          6           0       -5.066087   -2.202583   -0.291073
      3          6           0       -3.394959    1.269084    2.748781
      4          6           0       -6.215961    4.571956    0.573218
      5          6           0       -8.025094    1.225688   -2.347916
      6          7           0       -4.416387   -0.232241    1.072564
      7          6           0       -4.258859   -1.557206    0.644023
      8          6           0       -3.240170   -2.295549    1.508109
      9          6           0       -2.822381   -1.294218    2.650731
     10          6           0       -3.554162   -0.034776    2.169983
     11          6           0       -3.342275   -1.801860    4.009809
     12          6           0       -1.986912   -2.603042    0.624630
     13          6           0       -0.932370   -3.545204    1.313068
     14          6           0        0.230089   -3.872017    0.508178
     15          8           0        0.486183   -3.363672   -0.613759
     16          8           0        1.045418   -4.735971    1.190960
     17          7           0       -4.941141    2.617524    1.517625
     18          6           0       -3.975961    2.462129    2.519756
     19          6           0       -3.764036    3.716491    3.129306
     20          6           0       -4.529820    4.652626    2.469840
     21          6           0       -5.285721    3.945453    1.372206
     22          6           0       -2.694892    3.952411    4.228505
     23          6           0       -4.681220    6.116140    2.907454
     24          8           0       -4.050402    6.615953    3.823333
     25          7           0       -6.835432    2.588016   -0.776346
     26          6           0       -6.962027    3.906930   -0.521268
     27          6           0       -7.858154    4.632114   -1.323858
     28          6           0       -8.398746    3.641926   -2.133342
     29          6           0       -7.707302    2.367874   -1.821635
     30          6           0       -8.295975    5.995566   -1.213540
     31          6           0       -9.442794    3.834395   -3.234893
     32          6           0       -8.881176    3.905750   -4.501429
     33          7           0       -6.488291   -0.198620   -1.028613
     34          6           0       -7.361110   -0.098379   -2.046228
     35          6           0       -7.615319   -1.411860   -2.699345
     36          6           0       -6.768732   -2.241609   -2.003638
     37          6           0       -6.099525   -1.449899   -1.045652
     38          6           0       -8.578831   -1.726567   -3.836301
     39          6           0       -6.302587   -3.567868   -1.882150
     40          8           0       -6.676189   -4.553379   -2.462055
     41          6           0       -5.135545   -3.599143   -0.836395
     42          6           0       -5.326578   -4.612415    0.303553
     43          8           0       -5.770174   -4.385307    1.425029
     44          8           0       -5.013376   -5.799353   -0.208100
     45          6           0       -5.336521   -6.915557    0.621460
     46          6           0        2.285880   -5.015789    0.465734
     47          6           0        3.372574   -4.081922    0.912379
     48          6           0        4.069705   -3.251572    0.114128
     49          6           0        3.763879   -3.121750   -1.383801
     50          6           0        5.311310   -2.510933    0.615214
     51          6           0        6.657062   -2.814293   -0.015228
     52          6           0        7.667201   -1.874563    0.524648
     53          6           0        9.082073   -2.106341   -0.125074
     54          6           0        9.671052   -3.489669    0.192955
     55          6           0       10.119517   -1.035000    0.507279
     56          6           0       11.400161   -0.847707   -0.270527
     57          6           0       12.244018    0.278833    0.329788
     58          6           0       13.563417    0.513157   -0.484721
     59          6           0       14.554197   -0.671660   -0.534279
     60          6           0       14.302242    1.833273   -0.013629
     61          6           0       15.458168    2.200862   -0.802222
     62          6           0       15.982615    3.654865   -0.620657
     63          6           0       17.196855    3.989085   -1.397888
     64          6           0       17.057245    3.992837   -2.919196
     65          6           0       17.971156    5.205188   -0.882848
     66          1           0       -2.857126    1.100335    3.568783
     67          1           0       -6.445962    5.609029    0.690479
     68          1           0       -8.806787    1.177556   -3.080955
     69          1           0       -3.504454   -3.266784    1.793412
     70          1           0       -1.818491   -1.231032    2.746927
     71          1           0       -3.150993   -2.792130    4.354144
     72          1           0       -2.958916   -1.087327    4.942762
     73          1           0       -4.532188   -1.815102    3.931590
     74          1           0       -2.296796   -3.205103   -0.347151
     75          1           0       -1.515772   -1.607981    0.264781
     76          1           0       -0.838819   -3.070306    2.258569
     77          1           0       -1.223676   -4.642973    1.662950
     78          1           0       -1.609255    3.743074    4.113965
     79          1           0       -2.877953    4.924495    4.725042
     80          1           0       -3.123213    3.379508    5.104980
     81          1           0       -5.515596    6.619676    2.399414
     82          1           0      -10.024532    2.810994   -3.050361
     83          1           0       -9.920276    4.846274   -2.889269
     84          1           0       -9.479246    3.617108   -5.358216
     85          1           0       -8.365634    4.796958   -4.657523
     86          1           0       -7.960012    3.332719   -4.633269
     87          1           0       -8.324831   -1.299177   -4.790531
     88          1           0       -8.632729   -2.738840   -4.017491
     89          1           0       -9.575415   -1.486534   -3.554841
     90          1           0       -4.218730   -3.855239   -1.483724
     91          1           0        2.495627   -6.023232    0.781490
     92          1           0        2.390737   -5.033755   -0.629720
     93          1           0        3.522332   -3.975803    2.018298
     94          1           0        2.553394   -3.231090   -1.536687
     95          1           0        4.028249   -2.142051   -1.671602
     96          1           0        4.275520   -3.683041   -1.949677
     97          1           0        5.203137   -1.450022    0.468203
     98          1           0        5.379960   -2.664181    1.710144
     99          1           0        6.942054   -3.914570    0.207276
    100          1           0        6.526200   -2.816049   -1.183042
    101          1           0        7.454032   -0.898434    0.482656
    102          1           0        7.725338   -2.177902    1.690977
    103          1           0        9.195674   -1.877984   -1.324466
    104          1           0        8.974945   -4.358704   -0.203075
    105          1           0       10.480277   -3.716806   -0.371811
    106          1           0        9.800203   -3.592246    1.111036
    107          1           0        9.528382    0.171257    0.529639
    108          1           0       10.272309   -1.423802    1.464962
    109          1           0       12.010925   -1.784857   -0.163640
    110          1           0       11.342829   -0.704346   -1.274398
    111          1           0       11.758855    1.191168    0.578871
    112          1           0       12.595228   -0.076716    1.332194
    113          1           0       13.176496    0.653768   -1.504844
    114          1           0       14.770078   -0.942095    0.619355
    115          1           0       14.150811   -1.680556   -0.878130
    116          1           0       15.485270   -0.351818   -0.949879
    117          1           0       13.490505    2.642866   -0.330297
    118          1           0       14.508846    1.829879    1.124485
    119          1           0       16.456745    1.546163   -0.611347
    120          1           0       15.141524    2.066420   -1.901643
    121          1           0       15.116452    4.365109   -0.793020
    122          1           0       15.926327    4.037228    0.494548
    123          1           0       17.848977    3.053832   -1.274784
    124          1           0       15.941299    4.644586   -3.107611
    125          1           0       17.927418    4.547795   -3.399824
    126          1           0       16.913580    3.232148   -3.550018
    127          1           0       18.163991    4.984922    0.317858
    128          1           0       18.770331    5.446697   -1.389751
    129          1           0       17.325154    5.986328   -1.178641
    130          1           0       -4.737323   -7.682233   -0.081021
    131          1           0       -6.442809   -7.162439    0.514804
    132          1           0       -4.859889   -6.988899    1.587008
    133          8           0       -7.935650    6.813935   -0.345882
    134          1           0       -9.322519    6.107287   -1.810566
 ---------------------------------------------------------------------

 SCF Done:  E(RCAM-B3LYP) =  -3043.46100141     A.U. after   15 cycles

 Excitation energies and oscillator strengths:

 Excited State   1:      Singlet-A      2.0529 eV  603.94 nm  f=0.1968  <S**2>=0.000
     243 -> 246        0.24528
     244 -> 245        0.65511
 This state for optimization and/or second-order correction.
 Total Energy, E(TD-HF/TD-KS) =  -3043.38555791
 Copying the excited state density for this state as the 1-particle RhoCI density.

 The electronic state is 1-A.
 Alpha  occ. eigenvalues --  -46.81534 -19.23445 -19.23214 -19.18528 -19.17616
 Alpha  occ. eigenvalues --  -19.17583 -19.17428 -19.16030 -14.39565 -14.37359
 Alpha  occ. eigenvalues --  -14.36629 -14.36333 -10.35500 -10.35317 -10.32174
 Alpha  occ. eigenvalues --  -10.30849 -10.30198 -10.28963 -10.28594 -10.27136
 Alpha  occ. eigenvalues --  -10.27117 -10.27058 -10.26770 -10.26359 -10.26355
 Alpha  occ. eigenvalues --  -10.25712 -10.25530 -10.24963 -10.24929 -10.24839
 Alpha  occ. eigenvalues --  -10.24813 -10.24659 -10.24572 -10.24465 -10.24464
 Alpha  occ. eigenvalues --  -10.24334 -10.24208 -10.24023 -10.23673 -10.23436
 Alpha  occ. eigenvalues --  -10.23324 -10.23157 -10.23062 -10.22817 -10.22476
 Alpha  occ. eigenvalues --  -10.22160 -10.22081 -10.22078 -10.22056 -10.22021
 Alpha  occ. eigenvalues --  -10.21915 -10.21861 -10.21499 -10.21460 -10.21417
 Alpha  occ. eigenvalues --  -10.21255 -10.21148 -10.21107 -10.21043 -10.20844
 Alpha  occ. eigenvalues --  -10.20763 -10.20247 -10.20226 -10.20004 -10.19384
 Alpha  occ. eigenvalues --  -10.18832  -3.10094  -1.85036  -1.84584  -1.84484
 Alpha  occ. eigenvalues --   -1.14532  -1.12407  -1.07058  -1.06826  -1.06449
 Alpha  occ. eigenvalues --   -1.05026  -1.03342  -1.01531  -1.00502  -0.98861
 Alpha  occ. eigenvalues --   -0.97821  -0.88104  -0.87103  -0.85952  -0.85628
 Alpha  occ. eigenvalues --   -0.85260  -0.85069  -0.84280  -0.84195  -0.83205
 Alpha  occ. eigenvalues --   -0.82995  -0.82148  -0.81890  -0.81056  -0.80662
 Alpha  occ. eigenvalues --   -0.79769  -0.78709  -0.78248  -0.77377  -0.76265
 Alpha  occ. eigenvalues --   -0.75523  -0.74504  -0.73844  -0.72864  -0.72094
 Alpha  occ. eigenvalues --   -0.71932  -0.71394  -0.70295  -0.70080  -0.69957
 Alpha  occ. eigenvalues --   -0.69646  -0.68882  -0.67940  -0.67150  -0.66004
 Alpha  occ. eigenvalues --   -0.65688  -0.64675  -0.64537  -0.62900  -0.61632
 Alpha  occ. eigenvalues --   -0.61337  -0.60727  -0.60503  -0.59275  -0.59138
 Alpha  occ. eigenvalues --   -0.58844  -0.58638  -0.57935  -0.57549  -0.57297
 Alpha  occ. eigenvalues --   -0.56403  -0.55851  -0.55406  -0.55173  -0.54794
 Alpha  occ. eigenvalues --   -0.54307  -0.53650  -0.53331  -0.52524  -0.52213
 Alpha  occ. eigenvalues --   -0.52106  -0.51719  -0.51220  -0.51108  -0.50668
 Alpha  occ. eigenvalues --   -0.50360  -0.50248  -0.49605  -0.49356  -0.49109
 Alpha  occ. eigenvalues --   -0.48913  -0.48459  -0.48209  -0.48078  -0.47984
 Alpha  occ. eigenvalues --   -0.47348  -0.47312  -0.47272  -0.47122  -0.46848
 Alpha  occ. eigenvalues --   -0.46798  -0.46727  -0.46407  -0.46383  -0.46170
 Alpha  occ. eigenvalues --   -0.45696  -0.45498  -0.45266  -0.45192  -0.45082
 Alpha  occ. eigenvalues --   -0.44958  -0.44610  -0.44396  -0.44306  -0.43962
 Alpha  occ. eigenvalues --   -0.43852  -0.43636  -0.43519  -0.43364  -0.42714
 Alpha  occ. eigenvalues --   -0.42536  -0.42333  -0.42114  -0.41909  -0.41862
 Alpha  occ. eigenvalues --   -0.41710  -0.41594  -0.41363  -0.41342  -0.40947
 Alpha  occ. eigenvalues --   -0.40667  -0.40369  -0.40014  -0.39772  -0.39693
 Alpha  occ. eigenvalues --   -0.39581  -0.39407  -0.39338  -0.39061  -0.38883
 Alpha  occ. eigenvalues --   -0.38723  -0.38481  -0.38351  -0.38270  -0.38133
 Alpha  occ. eigenvalues --   -0.38055  -0.37860  -0.37667  -0.37604  -0.37423
 Alpha  occ. eigenvalues --   -0.36783  -0.36485  -0.36431  -0.35836  -0.35700
 Alpha  occ. eigenvalues --   -0.35568  -0.35016  -0.34888  -0.34524  -0.34369
 Alpha  occ. eigenvalues --   -0.34161  -0.33991  -0.33972  -0.33309  -0.33059
 Alpha  occ. eigenvalues --   -0.32889  -0.32496  -0.32244  -0.32215  -0.31688
 Alpha  occ. eigenvalues --   -0.31183  -0.30871  -0.30566  -0.30458  -0.29584
 Alpha  occ. eigenvalues --   -0.29244  -0.28851  -0.28471  -0.27873  -0.27742
 Alpha  occ. eigenvalues --   -0.27318  -0.26983  -0.22906  -0.21394
 Alpha virt. eigenvalues --   -0.08447  -0.06556  -0.01794  -0.01226   0.00487
 Alpha virt. eigenvalues --    0.01966   0.02996   0.03632   0.04109   0.04261
 Alpha virt. eigenvalues --    0.04742   0.05336   0.08087   0.08484   0.09090

 Mulliken charges:
               1
     1  Mg   0.826390
     2  C    0.112936
     3  C   -0.180302
     4  C   -0.180922
     5  C   -0.182872
     6  N   -0.641157
     7  C    0.303472
     8  C   -0.153027
     9  C   -0.121294
    10  C    0.300163
    11  C   -0.309384
    12  C   -0.186567
    13  C   -0.272496
    14  C    0.634134
    15  O   -0.485218
    16  O   -0.469491
    17  N   -0.751372
    18  C    0.364097
    19  C    0.051017
    20  C   -0.087586
    21  C    0.354352
    22  C   -0.389761
    23  C    0.266178
    24  O   -0.407755
    25  N   -0.686663
    26  C    0.287643
    27  C    0.049692
    28  C   -0.041963
    29  C    0.366544
    30  C    0.231253
    31  C   -0.208330
    32  C   -0.306241
    33  N   -0.684524
    34  C    0.197371
    35  C    0.004008
    36  C    0.075937
    37  C    0.268689
    38  C   -0.385731
    39  C    0.332557
    40  O   -0.458142
    41  C   -0.337881
    42  C    0.627610
    43  O   -0.482230
    44  O   -0.416564
    45  C   -0.099486
    46  C   -0.005915
    47  C   -0.132371
    48  C    0.129101
    49  C   -0.391199
    50  C   -0.227816
    51  C   -0.163275
    52  C   -0.140240
    53  C   -0.072653
    54  C   -0.298683
    55  C   -0.143652
    56  C   -0.173892
    57  C   -0.171601
    58  C   -0.061476
    59  C   -0.309509
    60  C   -0.164461
    61  C   -0.156619
    62  C   -0.163621
    63  C   -0.042491
    64  C   -0.293231
    65  C   -0.295560
    66  H    0.066320
    67  H    0.129115
    68  H    0.089257
    69  H    0.119207
    70  H    0.121878
    71  H    0.129860
    72  H    0.081841
    73  H    0.117443
    74  H    0.098848
    75  H    0.118726
    76  H    0.145219
    77  H    0.122647
    78  H    0.133138
    79  H    0.158333
    80  H    0.110780
    81  H    0.091988
    82  H    0.101331
    83  H    0.099415
    84  H    0.118835
    85  H    0.121256
    86  H    0.114235
    87  H    0.128831
    88  H    0.150996
    89  H    0.127367
    90  H    0.159886
    91  H    0.114655
    92  H    0.134559
    93  H    0.072982
    94  H    0.138516
    95  H    0.108032
    96  H    0.130274
    97  H    0.101065
    98  H    0.088630
    99  H    0.092131
   100  H    0.078738
   101  H    0.104762
   102  H    0.069760
   103  H    0.059318
   104  H    0.077430
   105  H    0.114170
   106  H    0.113531
   107  H    0.024843
   108  H    0.100765
   109  H    0.090867
   110  H    0.101071
   111  H    0.094434
   112  H    0.079421
   113  H    0.080427
   114  H    0.070626
   115  H    0.097478
   116  H    0.116899
   117  H    0.077401
   118  H    0.086438
   119  H    0.072727
   120  H    0.090968
   121  H    0.075837
   122  H    0.074346
   123  H    0.074378
   124  H    0.039910
   125  H    0.091666
   126  H    0.125184
   127  H    0.085368
   128  H    0.110698
   129  H    0.108241
   130  H    0.109336
   131  H    0.141103
   132  H    0.141085
   133  O   -0.424096
   134  H    0.059355
 Sum of Mulliken charges =   0.00000

 Dipole moment (field-independent basis, Debye):
    X=              2.1921    Y=             -4.1298    Z=             -1.3588  Tot=              4.8689
 Quadrupole moment (field-independent basis, Debye-Ang):
   XX=           -377.4914   YY=           -432.5876   ZZ=           -390.8202
   XY=              0.4149   XZ=             20.6761   YZ=            -35.4490

 Normal termination of Gaussian 09 at Wed Oct  9 04:45:40 2019.
