 Gaussian 09, Revision D.01,
 Gaussian 09:  ES64L-G09RevD.01 24-Apr-2013

 ----------------------------------------------------------------------
 # td=(NStates=1) iop(3/107=0140000000,3/108=0140000000) iop(3/107=0140
 000000,3/108=0140000000) CAM-B3LYP/6-31G(d,p)
 ----------------------------------------------------------------------

 --
 TD
 --
 Symbolic Z-matrix:
 Charge =  0 Multiplicity = 1

                         Standard orientation:
 ---------------------------------------------------------------------
 Center     Atomic      Atomic             Coordinates (Angstroms)
 Number     Number       Type             X           Y           Z
 ---------------------------------------------------------------------
      1         12           0       -5.731013    1.211462    0.212694
      2          6           0       -4.923577   -2.099425   -0.422391
      3          6           0       -3.488277    1.215363    2.810339
      4          6           0       -6.324867    4.500801    0.677026
      5          6           0       -8.053399    1.102198   -2.440813
      6          7           0       -4.329050   -0.260614    1.078567
      7          6           0       -4.174485   -1.562108    0.638834
      8          6           0       -3.167710   -2.329783    1.501681
      9          6           0       -2.968133   -1.249128    2.635295
     10          6           0       -3.607171    0.011621    2.157392
     11          6           0       -3.439203   -1.617599    3.997034
     12          6           0       -1.876712   -2.648477    0.718532
     13          6           0       -0.833027   -3.357810    1.529196
     14          6           0        0.400735   -3.722126    0.798209
     15          8           0        0.714301   -3.367377   -0.333427
     16          8           0        1.154604   -4.633483    1.463787
     17          7           0       -5.036548    2.585352    1.452527
     18          6           0       -4.138574    2.488510    2.535909
     19          6           0       -3.814025    3.756785    3.147606
     20          6           0       -4.719994    4.656199    2.466918
     21          6           0       -5.472477    3.826014    1.560444
     22          6           0       -2.841172    4.002863    4.223409
     23          6           0       -4.703441    6.140330    2.811946
     24          8           0       -4.109059    6.702321    3.666891
     25          7           0       -6.916293    2.523002   -0.839563
     26          6           0       -7.085431    3.857007   -0.392710
     27          6           0       -8.118503    4.444749   -1.225790
     28          6           0       -8.605992    3.543906   -2.108544
     29          6           0       -7.835775    2.331250   -1.891399
     30          6           0       -8.520520    5.869072   -1.223939
     31          6           0       -9.617700    3.680384   -3.216454
     32          6           0       -8.924057    3.783366   -4.573167
     33          7           0       -6.353675   -0.133214   -1.047312
     34          6           0       -7.408763   -0.106493   -2.022061
     35          6           0       -7.451370   -1.419045   -2.748168
     36          6           0       -6.529646   -2.201519   -2.061224
     37          6           0       -5.756500   -1.431611   -1.167532
     38          6           0       -8.455739   -1.748784   -3.860516
     39          6           0       -6.163626   -3.611095   -1.925375
     40          8           0       -6.660296   -4.630795   -2.513138
     41          6           0       -4.948229   -3.601306   -0.877399
     42          6           0       -5.248142   -4.717777    0.228432
     43          8           0       -5.800225   -4.448678    1.299215
     44          8           0       -5.114080   -5.904710   -0.227781
     45          6           0       -5.474439   -7.041550    0.641602
     46          6           0        2.449253   -4.997149    0.776549
     47          6           0        3.561274   -4.058527    1.004544
     48          6           0        4.176879   -3.338540    0.131001
     49          6           0        3.782352   -3.120375   -1.351909
     50          6           0        5.262651   -2.416481    0.600500
     51          6           0        6.686287   -2.692961    0.029489
     52          6           0        7.777484   -1.794546    0.514855
     53          6           0        9.129883   -2.008513   -0.130923
     54          6           0        9.692423   -3.478201    0.070588
     55          6           0       10.125430   -0.959088    0.386491
     56          6           0       11.406258   -0.832774   -0.437286
     57          6           0       12.262009    0.298797    0.125280
     58          6           0       13.605120    0.574437   -0.618070
     59          6           0       14.511139   -0.652700   -0.532907
     60          6           0       14.221210    1.853234   -0.206198
     61          6           0       15.537963    2.230939   -0.971204
     62          6           0       16.026339    3.629942   -0.497363
     63          6           0       17.397597    3.933480   -1.193514
     64          6           0       17.197851    3.879949   -2.823852
     65          6           0       17.899435    5.301179   -0.796943
     66          1           0       -2.848816    1.205013    3.705595
     67          1           0       -6.835236    5.493676    0.834522
     68          1           0       -8.977211    1.066901   -3.145795
     69          1           0       -3.762081   -3.202768    1.850175
     70          1           0       -1.797141   -1.032231    2.687315
     71          1           0       -2.900572   -2.444508    4.172702
     72          1           0       -3.159355   -0.714483    4.749160
     73          1           0       -4.403206   -1.793139    3.970269
     74          1           0       -2.168379   -3.220008   -0.024398
     75          1           0       -1.432236   -1.715493    0.525317
     76          1           0       -0.501029   -2.938028    2.519264
     77          1           0       -1.352961   -4.155884    1.822485
     78          1           0       -1.766837    3.798979    3.824396
     79          1           0       -2.937894    5.089141    4.310570
     80          1           0       -3.011380    3.471818    5.264868
     81          1           0       -5.327128    6.595842    2.024575
     82          1           0      -10.212973    2.743226   -3.198141
     83          1           0      -10.264934    4.516222   -3.135200
     84          1           0       -9.729817    3.536999   -5.409171
     85          1           0       -8.432245    4.760255   -4.649354
     86          1           0       -8.120755    3.085676   -4.794489
     87          1           0       -8.235357   -1.075604   -4.827034
     88          1           0       -8.394815   -2.711456   -4.202940
     89          1           0       -9.482731   -1.466381   -3.727774
     90          1           0       -4.172243   -3.793225   -1.479841
     91          1           0        2.764149   -5.869617    1.312360
     92          1           0        2.225086   -5.248652   -0.140150
     93          1           0        3.864618   -4.065696    2.158088
     94          1           0        2.773836   -3.489578   -1.437585
     95          1           0        3.774217   -2.000451   -1.776517
     96          1           0        4.447612   -3.905858   -2.057440
     97          1           0        4.882944   -1.334951    0.530146
     98          1           0        5.319457   -2.508748    1.700308
     99          1           0        6.954723   -3.827501    0.102962
    100          1           0        6.603734   -2.533821   -1.150399
    101          1           0        7.536252   -0.842942    0.319400
    102          1           0        7.836284   -1.949627    1.750089
    103          1           0        8.877399   -1.961966   -1.381918
    104          1           0        9.025807   -4.447682   -0.216974
    105          1           0       10.657267   -3.787455   -0.435569
    106          1           0        9.852086   -3.584664    1.170800
    107          1           0        9.433178    0.007460    0.167809
    108          1           0       10.336358   -1.321900    1.449529
    109          1           0       11.801237   -1.712200   -0.342418
    110          1           0       11.215597   -0.557354   -1.455167
    111          1           0       11.805085    1.275538    0.065151
    112          1           0       12.418022   -0.007893    1.220249
    113          1           0       13.129652    0.785256   -1.731367
    114          1           0       14.767584   -0.515601    0.418719
    115          1           0       13.916897   -1.531174   -0.858331
    116          1           0       15.185289   -0.754771   -1.212531
    117          1           0       13.604311    2.620918   -0.086484
    118          1           0       14.371992    1.704899    0.850867
    119          1           0       16.402516    1.703693   -0.828258
    120          1           0       15.168857    2.436462   -2.078641
    121          1           0       15.322133    4.528344   -0.667764
    122          1           0       16.227066    3.870583    0.635207
    123          1           0       18.074037    3.128974   -1.054848
    124          1           0       16.370291    4.507022   -2.983702
    125          1           0       18.237562    4.155827   -3.327019
    126          1           0       16.824656    2.933672   -3.135667
    127          1           0       18.114888    5.322766    0.320280
    128          1           0       18.912472    5.378982   -1.364033
    129          1           0       17.187817    6.121309   -0.864791
    130          1           0       -5.064351   -7.877787    0.195151
    131          1           0       -6.478200   -7.183363    0.568067
    132          1           0       -5.034128   -7.048737    1.668123
    133          8           0       -8.124646    6.779001   -0.432021
    134          1           0       -9.196032    6.197014   -2.141542
 ---------------------------------------------------------------------

 SCF Done:  E(RCAM-B3LYP) =  -3043.46650415     A.U. after   16 cycles

 Excitation energies and oscillator strengths:

 Excited State   1:      Singlet-A      1.9781 eV  626.79 nm  f=0.1701  <S**2>=0.000
     243 -> 246       -0.29159
     244 -> 245        0.63609
 This state for optimization and/or second-order correction.
 Total Energy, E(TD-HF/TD-KS) =  -3043.39381091
 Copying the excited state density for this state as the 1-particle RhoCI density.

 The electronic state is 1-A.
 Alpha  occ. eigenvalues --  -46.80374 -19.24340 -19.21661 -19.18314 -19.17706
 Alpha  occ. eigenvalues --  -19.17148 -19.16705 -19.16603 -14.38683 -14.37204
 Alpha  occ. eigenvalues --  -14.36832 -14.36608 -10.35945 -10.34726 -10.31821
 Alpha  occ. eigenvalues --  -10.31681 -10.30787 -10.27755 -10.27726 -10.27200
 Alpha  occ. eigenvalues --  -10.27008 -10.26785 -10.26578 -10.26535 -10.26134
 Alpha  occ. eigenvalues --  -10.26027 -10.25899 -10.25494 -10.25200 -10.24867
 Alpha  occ. eigenvalues --  -10.24650 -10.24481 -10.24215 -10.24092 -10.23989
 Alpha  occ. eigenvalues --  -10.23935 -10.23837 -10.23583 -10.23338 -10.23226
 Alpha  occ. eigenvalues --  -10.23152 -10.23031 -10.22955 -10.22843 -10.22802
 Alpha  occ. eigenvalues --  -10.22668 -10.22655 -10.22549 -10.22412 -10.22409
 Alpha  occ. eigenvalues --  -10.22004 -10.21952 -10.21720 -10.21688 -10.21680
 Alpha  occ. eigenvalues --  -10.21631 -10.21606 -10.21278 -10.21164 -10.20852
 Alpha  occ. eigenvalues --  -10.20810 -10.20443 -10.19986 -10.19190 -10.19064
 Alpha  occ. eigenvalues --  -10.17859  -3.09181  -1.84094  -1.83682  -1.83588
 Alpha  occ. eigenvalues --   -1.15796  -1.12083  -1.09413  -1.04327  -1.04032
 Alpha  occ. eigenvalues --   -1.03567  -1.03076  -1.00769  -1.00009  -0.98035
 Alpha  occ. eigenvalues --   -0.96869  -0.88784  -0.87142  -0.86184  -0.85756
 Alpha  occ. eigenvalues --   -0.85482  -0.84507  -0.84336  -0.83528  -0.83062
 Alpha  occ. eigenvalues --   -0.82868  -0.82391  -0.82142  -0.80657  -0.80349
 Alpha  occ. eigenvalues --   -0.79610  -0.78606  -0.78235  -0.77040  -0.76612
 Alpha  occ. eigenvalues --   -0.75534  -0.74927  -0.74401  -0.74213  -0.72169
 Alpha  occ. eigenvalues --   -0.71964  -0.70514  -0.70294  -0.69956  -0.69695
 Alpha  occ. eigenvalues --   -0.69312  -0.68897  -0.67639  -0.66760  -0.66483
 Alpha  occ. eigenvalues --   -0.66184  -0.64885  -0.63933  -0.62449  -0.62325
 Alpha  occ. eigenvalues --   -0.61808  -0.61302  -0.60358  -0.59040  -0.58920
 Alpha  occ. eigenvalues --   -0.58860  -0.57740  -0.57655  -0.56845  -0.56692
 Alpha  occ. eigenvalues --   -0.56377  -0.55777  -0.55552  -0.55096  -0.54671
 Alpha  occ. eigenvalues --   -0.54411  -0.54243  -0.53228  -0.53021  -0.52795
 Alpha  occ. eigenvalues --   -0.52390  -0.52138  -0.51424  -0.51252  -0.51174
 Alpha  occ. eigenvalues --   -0.50568  -0.49945  -0.49744  -0.49132  -0.48836
 Alpha  occ. eigenvalues --   -0.48621  -0.48404  -0.48336  -0.48159  -0.48046
 Alpha  occ. eigenvalues --   -0.47580  -0.47533  -0.47057  -0.46985  -0.46784
 Alpha  occ. eigenvalues --   -0.46725  -0.46222  -0.46050  -0.45834  -0.45642
 Alpha  occ. eigenvalues --   -0.45430  -0.45320  -0.45307  -0.44973  -0.44723
 Alpha  occ. eigenvalues --   -0.44598  -0.44407  -0.44366  -0.44068  -0.43621
 Alpha  occ. eigenvalues --   -0.43371  -0.43202  -0.43026  -0.42853  -0.42587
 Alpha  occ. eigenvalues --   -0.42321  -0.42288  -0.42128  -0.42033  -0.41778
 Alpha  occ. eigenvalues --   -0.41744  -0.41637  -0.41399  -0.41372  -0.41138
 Alpha  occ. eigenvalues --   -0.41070  -0.40595  -0.40200  -0.40128  -0.40092
 Alpha  occ. eigenvalues --   -0.39978  -0.39852  -0.39630  -0.39267  -0.39124
 Alpha  occ. eigenvalues --   -0.39059  -0.38697  -0.38516  -0.38364  -0.38073
 Alpha  occ. eigenvalues --   -0.38048  -0.37923  -0.37861  -0.37656  -0.37296
 Alpha  occ. eigenvalues --   -0.37084  -0.36778  -0.36486  -0.36080  -0.35650
 Alpha  occ. eigenvalues --   -0.35572  -0.35313  -0.34997  -0.34824  -0.34665
 Alpha  occ. eigenvalues --   -0.34012  -0.33743  -0.33659  -0.33457  -0.33215
 Alpha  occ. eigenvalues --   -0.32763  -0.32398  -0.31831  -0.31632  -0.31412
 Alpha  occ. eigenvalues --   -0.31319  -0.30602  -0.30463  -0.30353  -0.29934
 Alpha  occ. eigenvalues --   -0.28723  -0.28228  -0.28213  -0.27966  -0.27868
 Alpha  occ. eigenvalues --   -0.27781  -0.27392  -0.22858  -0.21452
 Alpha virt. eigenvalues --   -0.08569  -0.06727  -0.02507  -0.01002   0.00475
 Alpha virt. eigenvalues --    0.03216   0.03409   0.03762   0.04154   0.04634
 Alpha virt. eigenvalues --    0.04758   0.05520   0.07968   0.08412   0.09245

 Mulliken charges:
               1
     1  Mg   0.827203
     2  C    0.076420
     3  C   -0.207164
     4  C   -0.177064
     5  C   -0.166234
     6  N   -0.631814
     7  C    0.270041
     8  C   -0.181057
     9  C   -0.183016
    10  C    0.398592
    11  C   -0.273462
    12  C   -0.138763
    13  C   -0.275249
    14  C    0.608257
    15  O   -0.482685
    16  O   -0.491508
    17  N   -0.679523
    18  C    0.260336
    19  C    0.076179
    20  C   -0.086488
    21  C    0.349830
    22  C   -0.400403
    23  C    0.286875
    24  O   -0.397791
    25  N   -0.688153
    26  C    0.270963
    27  C   -0.024664
    28  C    0.046480
    29  C    0.291590
    30  C    0.235763
    31  C   -0.239173
    32  C   -0.311160
    33  N   -0.703864
    34  C    0.249055
    35  C    0.028272
    36  C    0.036267
    37  C    0.269007
    38  C   -0.380105
    39  C    0.349793
    40  O   -0.492490
    41  C   -0.286706
    42  C    0.596767
    43  O   -0.494507
    44  O   -0.404798
    45  C   -0.097054
    46  C    0.030828
    47  C   -0.154003
    48  C    0.173148
    49  C   -0.362805
    50  C   -0.232934
    51  C   -0.168077
    52  C   -0.123646
    53  C   -0.050494
    54  C   -0.318014
    55  C   -0.165203
    56  C   -0.150018
    57  C   -0.170182
    58  C   -0.068328
    59  C   -0.284329
    60  C   -0.168518
    61  C   -0.159872
    62  C   -0.181386
    63  C   -0.062162
    64  C   -0.320190
    65  C   -0.301129
    66  H    0.081460
    67  H    0.143420
    68  H    0.090115
    69  H    0.127902
    70  H    0.082690
    71  H    0.115709
    72  H    0.087684
    73  H    0.134708
    74  H    0.117174
    75  H    0.126961
    76  H    0.134174
    77  H    0.143551
    78  H    0.116107
    79  H    0.165522
    80  H    0.119822
    81  H    0.076192
    82  H    0.111924
    83  H    0.121882
    84  H    0.093619
    85  H    0.119219
    86  H    0.123959
    87  H    0.105095
    88  H    0.154759
    89  H    0.135899
    90  H    0.162134
    91  H    0.115017
    92  H    0.124314
    93  H    0.078254
    94  H    0.153052
    95  H    0.109253
    96  H    0.086288
    97  H    0.094639
    98  H    0.088155
    99  H    0.089608
   100  H    0.074073
   101  H    0.104789
   102  H    0.052139
   103  H    0.045193
   104  H    0.081802
   105  H    0.102092
   106  H    0.095230
   107  H    0.072093
   108  H    0.091612
   109  H    0.106322
   110  H    0.094514
   111  H    0.088703
   112  H    0.064563
   113  H    0.030954
   114  H    0.109304
   115  H    0.090937
   116  H    0.108603
   117  H    0.097012
   118  H    0.081501
   119  H    0.110569
   120  H    0.093403
   121  H    0.075198
   122  H    0.071901
   123  H    0.094260
   124  H    0.109253
   125  H    0.081827
   126  H    0.106934
   127  H    0.088614
   128  H    0.088831
   129  H    0.109483
   130  H    0.137047
   131  H    0.155261
   132  H    0.137275
   133  O   -0.440998
   134  H    0.063966
 Sum of Mulliken charges =   0.00000

 Dipole moment (field-independent basis, Debye):
    X=              1.5079    Y=             -5.7510    Z=             -0.4798  Tot=              5.9647
 Quadrupole moment (field-independent basis, Debye-Ang):
   XX=           -381.0601   YY=           -428.4126   ZZ=           -393.7022
   XY=             10.2174   XZ=             26.2732   YZ=            -31.0066

 Normal termination of Gaussian 09 at Sat Oct  5 05:24:43 2019.
