 Gaussian 09, Revision D.01,
 Gaussian 09:  ES64L-G09RevD.01 24-Apr-2013

 ----------------------------------------------------------------------
 # td=(NStates=1) iop(3/107=0140000000,3/108=0140000000) iop(3/107=0140
 000000,3/108=0140000000) CAM-B3LYP/6-31G(d,p)
 ----------------------------------------------------------------------

 --
 TD
 --
 Symbolic Z-matrix:
 Charge =  0 Multiplicity = 1

                         Standard orientation:
 ---------------------------------------------------------------------
 Center     Atomic      Atomic             Coordinates (Angstroms)
 Number     Number       Type             X           Y           Z
 ---------------------------------------------------------------------
      1         12           0       -5.742522    1.129555    0.332578
      2          6           0       -4.878095   -2.106176   -0.529943
      3          6           0       -3.365685    1.184257    2.747373
      4          6           0       -6.406247    4.484546    0.760844
      5          6           0       -8.029022    1.056616   -2.314744
      6          7           0       -4.349457   -0.310092    1.087144
      7          6           0       -4.215344   -1.649848    0.691968
      8          6           0       -3.175420   -2.317794    1.574401
      9          6           0       -2.841997   -1.288155    2.617730
     10          6           0       -3.606362   -0.109871    2.144619
     11          6           0       -3.250334   -1.662517    4.125252
     12          6           0       -2.020856   -2.795297    0.714080
     13          6           0       -0.972191   -3.666017    1.501694
     14          6           0        0.267805   -3.951831    0.660262
     15          8           0        0.549643   -3.500490   -0.412011
     16          8           0        1.071258   -4.734214    1.431869
     17          7           0       -4.921862    2.614273    1.495785
     18          6           0       -3.989014    2.376983    2.443719
     19          6           0       -3.710593    3.699904    3.091287
     20          6           0       -4.664908    4.605581    2.625652
     21          6           0       -5.430654    3.954625    1.544949
     22          6           0       -2.778811    3.976451    4.249262
     23          6           0       -4.756796    6.019461    2.947565
     24          8           0       -3.993930    6.517385    3.832822
     25          7           0       -6.990020    2.609978   -0.720443
     26          6           0       -7.049578    3.834422   -0.295214
     27          6           0       -7.967637    4.609307   -1.177578
     28          6           0       -8.489762    3.630446   -2.120593
     29          6           0       -7.851788    2.371548   -1.725884
     30          6           0       -8.332203    6.033171   -1.248604
     31          6           0       -9.513181    3.804862   -3.165777
     32          6           0       -8.953490    4.003339   -4.516684
     33          7           0       -6.254411   -0.162409   -1.107453
     34          6           0       -7.267423   -0.056220   -2.059042
     35          6           0       -7.429824   -1.322314   -2.770864
     36          6           0       -6.491002   -2.225161   -2.141935
     37          6           0       -5.859673   -1.448356   -1.176615
     38          6           0       -8.596268   -1.651059   -3.716371
     39          6           0       -6.005916   -3.546883   -2.109766
     40          8           0       -6.376914   -4.548388   -2.790125
     41          6           0       -4.950243   -3.568377   -0.996888
     42          6           0       -5.114240   -4.662480    0.002400
     43          8           0       -5.577189   -4.421339    1.073725
     44          8           0       -4.812262   -5.915971   -0.422652
     45          6           0       -5.090700   -6.963719    0.440654
     46          6           0        2.370466   -5.102670    0.856632
     47          6           0        3.527133   -4.104139    1.121672
     48          6           0        4.016374   -3.203651    0.199990
     49          6           0        3.716505   -3.233182   -1.261279
     50          6           0        5.063489   -2.251270    0.663078
     51          6           0        6.512565   -2.592626    0.094726
     52          6           0        7.605854   -1.718632    0.527914
     53          6           0        8.885507   -1.983383   -0.089502
     54          6           0        9.496840   -3.385575    0.264022
     55          6           0        9.907243   -0.910443    0.275802
     56          6           0       11.262084   -0.851881   -0.294783
     57          6           0       12.116880    0.415344    0.164756
     58          6           0       13.419323    0.490055   -0.656961
     59          6           0       14.312130   -0.660469   -0.570127
     60          6           0       14.130802    1.800107   -0.180023
     61          6           0       15.418480    2.118880   -0.929678
     62          6           0       15.983996    3.569012   -0.578856
     63          6           0       17.399499    3.954910   -1.302625
     64          6           0       17.147314    4.083957   -2.803433
     65          6           0       17.810068    5.313319   -0.843167
     66          1           0       -2.553562    1.122498    3.604460
     67          1           0       -6.737064    5.531316    0.786142
     68          1           0       -8.661040    1.067491   -3.289033
     69          1           0       -3.572568   -3.250376    2.017936
     70          1           0       -1.871770   -1.160394    2.611509
     71          1           0       -2.425939   -2.577560    4.356152
     72          1           0       -3.113799   -0.792057    4.703539
     73          1           0       -4.173999   -2.077008    4.153458
     74          1           0       -2.460267   -3.195783   -0.121290
     75          1           0       -1.253392   -2.108241    0.522711
     76          1           0       -0.864208   -3.331541    2.511065
     77          1           0       -1.427851   -4.829505    1.631016
     78          1           0       -1.768983    3.552851    4.019993
     79          1           0       -2.853917    4.941462    4.562825
     80          1           0       -3.082507    3.324783    5.090205
     81          1           0       -5.720406    6.562769    2.533504
     82          1           0      -10.208338    3.076845   -3.238876
     83          1           0      -10.013633    4.682126   -2.900039
     84          1           0       -9.784372    4.096070   -5.095401
     85          1           0       -8.444416    4.932458   -4.529699
     86          1           0       -8.439060    3.179237   -5.187748
     87          1           0       -8.244925   -1.109782   -4.397845
     88          1           0       -8.199382   -2.668141   -4.113409
     89          1           0       -9.540282   -1.518224   -3.344367
     90          1           0       -3.954083   -3.861545   -1.503092
     91          1           0        2.672339   -6.022102    1.231060
     92          1           0        2.073289   -5.319711   -0.125805
     93          1           0        3.864795   -4.124466    2.233552
     94          1           0        2.858705   -3.615859   -1.491002
     95          1           0        3.759665   -2.107723   -1.776668
     96          1           0        4.529773   -3.750804   -1.665140
     97          1           0        5.010242   -1.235136    0.207088
     98          1           0        5.185697   -2.125605    1.695578
     99          1           0        6.801376   -3.601772    0.135246
    100          1           0        6.539240   -2.511061   -1.090864
    101          1           0        7.466853   -0.771949    0.297115
    102          1           0        7.615203   -1.823389    1.774245
    103          1           0        8.817370   -1.813167   -1.284212
    104          1           0        8.812439   -4.153334    0.047335
    105          1           0       10.426354   -3.865473   -0.038695
    106          1           0        9.483399   -3.612914    1.384870
    107          1           0        9.421160    0.046112    0.135528
    108          1           0        9.898269   -1.095526    1.452648
    109          1           0       11.700168   -1.865125   -0.232137
    110          1           0       11.001231   -0.460279   -1.532738
    111          1           0       11.587446    1.307921   -0.102205
    112          1           0       12.541613    0.304582    1.135420
    113          1           0       13.110594    0.790257   -1.699796
    114          1           0       14.660311   -1.072149    0.494593
    115          1           0       13.869743   -1.475019   -1.092909
    116          1           0       15.252076   -0.517233   -1.165666
    117          1           0       13.478376    2.613736   -0.299733
    118          1           0       14.163124    1.738841    0.958529
    119          1           0       15.974940    1.152272   -0.645398
    120          1           0       15.219883    2.195548   -2.065602
    121          1           0       15.225689    4.212209   -0.949948
    122          1           0       16.280727    3.603563    0.442721
    123          1           0       18.028548    3.095728   -1.090021
    124          1           0       16.339454    4.814585   -3.034085
    125          1           0       18.004938    4.656661   -3.551015
    126          1           0       16.948838    3.356749   -3.299811
    127          1           0       17.916377    5.625168    0.289493
    128          1           0       18.644442    5.746933   -1.485386
    129          1           0       17.073934    6.017773   -1.153277
    130          1           0       -4.856027   -7.939280    0.115330
    131          1           0       -6.199411   -6.886106    0.653987
    132          1           0       -4.512228   -7.040036    1.322712
    133          8           0       -7.811083    6.896679   -0.539331
    134          1           0       -9.087466    6.363986   -2.041410
 ---------------------------------------------------------------------

 SCF Done:  E(RCAM-B3LYP) =  -3043.42322913     A.U. after   16 cycles

 Excitation energies and oscillator strengths:

 Excited State   1:      Singlet-A      2.0988 eV  590.73 nm  f=0.1260  <S**2>=0.000
     243 -> 246       -0.32680
     244 -> 245        0.61028
 This state for optimization and/or second-order correction.
 Total Energy, E(TD-HF/TD-KS) =  -3043.34609919
 Copying the excited state density for this state as the 1-particle RhoCI density.

 The electronic state is 1-A.
 Alpha  occ. eigenvalues --  -46.82505 -19.23124 -19.21913 -19.18227 -19.17525
 Alpha  occ. eigenvalues --  -19.16922 -19.16708 -19.16222 -14.39571 -14.37085
 Alpha  occ. eigenvalues --  -14.36710 -14.36624 -10.35583 -10.35543 -10.30957
 Alpha  occ. eigenvalues --  -10.30939 -10.30608 -10.28860 -10.28082 -10.27445
 Alpha  occ. eigenvalues --  -10.26806 -10.26798 -10.26724 -10.26240 -10.26104
 Alpha  occ. eigenvalues --  -10.26026 -10.25969 -10.25549 -10.25522 -10.25376
 Alpha  occ. eigenvalues --  -10.25337 -10.25123 -10.24506 -10.24330 -10.24106
 Alpha  occ. eigenvalues --  -10.24078 -10.23990 -10.23647 -10.23308 -10.23042
 Alpha  occ. eigenvalues --  -10.23027 -10.23015 -10.22993 -10.22904 -10.22877
 Alpha  occ. eigenvalues --  -10.22185 -10.22143 -10.22131 -10.21837 -10.21811
 Alpha  occ. eigenvalues --  -10.21683 -10.21427 -10.21337 -10.21165 -10.21059
 Alpha  occ. eigenvalues --  -10.20876 -10.20860 -10.20850 -10.20839 -10.20666
 Alpha  occ. eigenvalues --  -10.20665 -10.20595 -10.20515 -10.20391 -10.19851
 Alpha  occ. eigenvalues --  -10.19677  -3.10906  -1.85845  -1.85381  -1.85297
 Alpha  occ. eigenvalues --   -1.15032  -1.13354  -1.06673  -1.05703  -1.05611
 Alpha  occ. eigenvalues --   -1.03899  -1.03889  -1.01729  -1.00882  -0.99928
 Alpha  occ. eigenvalues --   -0.98213  -0.89781  -0.87258  -0.87121  -0.86169
 Alpha  occ. eigenvalues --   -0.85524  -0.84915  -0.84875  -0.83922  -0.83455
 Alpha  occ. eigenvalues --   -0.83340  -0.82512  -0.81818  -0.80713  -0.80173
 Alpha  occ. eigenvalues --   -0.79264  -0.78676  -0.78100  -0.77616  -0.77097
 Alpha  occ. eigenvalues --   -0.75766  -0.75352  -0.74504  -0.73921  -0.72760
 Alpha  occ. eigenvalues --   -0.72628  -0.71666  -0.71395  -0.70489  -0.70303
 Alpha  occ. eigenvalues --   -0.69651  -0.69089  -0.68187  -0.67498  -0.66752
 Alpha  occ. eigenvalues --   -0.66113  -0.65528  -0.64551  -0.62972  -0.62354
 Alpha  occ. eigenvalues --   -0.62219  -0.61766  -0.60115  -0.59667  -0.59219
 Alpha  occ. eigenvalues --   -0.59028  -0.58029  -0.57991  -0.57696  -0.57534
 Alpha  occ. eigenvalues --   -0.56297  -0.56238  -0.55742  -0.55346  -0.54991
 Alpha  occ. eigenvalues --   -0.54318  -0.53957  -0.53343  -0.53158  -0.52736
 Alpha  occ. eigenvalues --   -0.52471  -0.52142  -0.51782  -0.51577  -0.51396
 Alpha  occ. eigenvalues --   -0.51335  -0.51037  -0.50627  -0.50256  -0.49899
 Alpha  occ. eigenvalues --   -0.49537  -0.49355  -0.48962  -0.48919  -0.48130
 Alpha  occ. eigenvalues --   -0.47946  -0.47652  -0.47371  -0.47203  -0.47080
 Alpha  occ. eigenvalues --   -0.46879  -0.46694  -0.46503  -0.45995  -0.45939
 Alpha  occ. eigenvalues --   -0.45806  -0.45762  -0.45407  -0.44977  -0.44706
 Alpha  occ. eigenvalues --   -0.44680  -0.44608  -0.44587  -0.44319  -0.43889
 Alpha  occ. eigenvalues --   -0.43697  -0.43677  -0.43244  -0.42989  -0.42730
 Alpha  occ. eigenvalues --   -0.42674  -0.42499  -0.42338  -0.42170  -0.41902
 Alpha  occ. eigenvalues --   -0.41714  -0.41309  -0.41104  -0.40963  -0.40857
 Alpha  occ. eigenvalues --   -0.40773  -0.40352  -0.40183  -0.40038  -0.39781
 Alpha  occ. eigenvalues --   -0.39670  -0.39601  -0.39525  -0.39424  -0.39281
 Alpha  occ. eigenvalues --   -0.39159  -0.39026  -0.38956  -0.38722  -0.38298
 Alpha  occ. eigenvalues --   -0.38219  -0.38133  -0.37661  -0.37526  -0.37310
 Alpha  occ. eigenvalues --   -0.37127  -0.37010  -0.36674  -0.36407  -0.36201
 Alpha  occ. eigenvalues --   -0.35702  -0.35550  -0.35405  -0.35018  -0.34604
 Alpha  occ. eigenvalues --   -0.34480  -0.34292  -0.34140  -0.33720  -0.33367
 Alpha  occ. eigenvalues --   -0.33101  -0.32689  -0.32347  -0.32175  -0.31672
 Alpha  occ. eigenvalues --   -0.31483  -0.31003  -0.30870  -0.29841  -0.29620
 Alpha  occ. eigenvalues --   -0.28295  -0.27868  -0.27612  -0.27593  -0.27550
 Alpha  occ. eigenvalues --   -0.27232  -0.26901  -0.23120  -0.21650
 Alpha virt. eigenvalues --   -0.08086  -0.07020  -0.03009  -0.01161   0.00392
 Alpha virt. eigenvalues --    0.01899   0.02490   0.02951   0.03476   0.04280
 Alpha virt. eigenvalues --    0.05010   0.05853   0.07744   0.08406   0.08833

 Mulliken charges:
               1
     1  Mg   0.845500
     2  C    0.020592
     3  C   -0.206142
     4  C   -0.160469
     5  C   -0.181752
     6  N   -0.617112
     7  C    0.285772
     8  C   -0.172012
     9  C   -0.142913
    10  C    0.365912
    11  C   -0.296422
    12  C   -0.158388
    13  C   -0.283308
    14  C    0.614514
    15  O   -0.452586
    16  O   -0.476995
    17  N   -0.749226
    18  C    0.370047
    19  C    0.024137
    20  C   -0.026254
    21  C    0.318695
    22  C   -0.375787
    23  C    0.232656
    24  O   -0.437454
    25  N   -0.688672
    26  C    0.340782
    27  C   -0.061729
    28  C    0.026408
    29  C    0.262346
    30  C    0.232315
    31  C   -0.246306
    32  C   -0.312954
    33  N   -0.744611
    34  C    0.312074
    35  C   -0.063433
    36  C    0.087366
    37  C    0.316594
    38  C   -0.332582
    39  C    0.325092
    40  O   -0.494175
    41  C   -0.318148
    42  C    0.627531
    43  O   -0.453406
    44  O   -0.436180
    45  C   -0.083613
    46  C    0.014048
    47  C   -0.168032
    48  C    0.152106
    49  C   -0.346139
    50  C   -0.223512
    51  C   -0.194398
    52  C   -0.115403
    53  C   -0.054028
    54  C   -0.339484
    55  C   -0.139264
    56  C   -0.161891
    57  C   -0.148497
    58  C   -0.058855
    59  C   -0.314728
    60  C   -0.172922
    61  C   -0.190376
    62  C   -0.170761
    63  C   -0.053934
    64  C   -0.281766
    65  C   -0.303792
    66  H    0.085063
    67  H    0.138578
    68  H    0.097095
    69  H    0.131621
    70  H    0.121481
    71  H    0.076318
    72  H    0.123085
    73  H    0.142415
    74  H    0.113018
    75  H    0.132180
    76  H    0.143750
    77  H    0.098759
    78  H    0.113077
    79  H    0.172935
    80  H    0.119518
    81  H    0.093236
    82  H    0.119064
    83  H    0.116760
    84  H    0.118154
    85  H    0.118746
    86  H    0.097504
    87  H    0.145775
    88  H    0.139851
    89  H    0.142123
    90  H    0.156818
    91  H    0.117148
    92  H    0.117076
    93  H    0.084201
    94  H    0.143897
    95  H    0.083286
    96  H    0.134720
    97  H    0.103317
    98  H    0.104680
    99  H    0.105859
   100  H    0.065818
   101  H    0.100240
   102  H    0.054265
   103  H    0.063336
   104  H    0.105166
   105  H    0.109907
   106  H    0.089510
   107  H    0.077442
   108  H    0.059413
   109  H    0.100543
   110  H    0.028152
   111  H    0.100094
   112  H    0.098020
   113  H    0.079072
   114  H    0.085540
   115  H    0.111300
   116  H    0.104516
   117  H    0.082685
   118  H    0.072587
   119  H    0.088437
   120  H    0.081296
   121  H    0.098354
   122  H    0.100959
   123  H    0.095658
   124  H    0.093358
   125  H    0.047606
   126  H    0.107924
   127  H    0.082389
   128  H    0.094225
   129  H    0.109239
   130  H    0.126077
   131  H    0.121856
   132  H    0.115765
   133  O   -0.433465
   134  H    0.067533
 Sum of Mulliken charges =   0.00000

 Dipole moment (field-independent basis, Debye):
    X=              1.0345    Y=             -5.5318    Z=              0.0152  Tot=              5.6277
 Quadrupole moment (field-independent basis, Debye-Ang):
   XX=           -382.8879   YY=           -441.9953   ZZ=           -394.4067
   XY=             -1.8653   XZ=             16.3559   YZ=            -38.2564

 Normal termination of Gaussian 09 at Mon Oct  7 17:10:32 2019.
