 Gaussian 09, Revision D.01,
 Gaussian 09:  ES64L-G09RevD.01 24-Apr-2013

 ----------------------------------------------------------------------
 # td=(NStates=1) iop(3/107=0140000000,3/108=0140000000) iop(3/107=0140
 000000,3/108=0140000000) CAM-B3LYP/6-31G(d,p)
 ----------------------------------------------------------------------

 --
 TD
 --
 Symbolic Z-matrix:
 Charge =  0 Multiplicity = 1

                         Standard orientation:
 ---------------------------------------------------------------------
 Center     Atomic      Atomic             Coordinates (Angstroms)
 Number     Number       Type             X           Y           Z
 ---------------------------------------------------------------------
      1         12           0       -5.614744    1.220758    0.187849
      2          6           0       -5.057678   -2.178820   -0.291082
      3          6           0       -3.381962    1.224788    2.678298
      4          6           0       -6.251155    4.580320    0.679424
      5          6           0       -8.008854    1.077685   -2.352693
      6          7           0       -4.326146   -0.305254    1.030658
      7          6           0       -4.234703   -1.615398    0.649253
      8          6           0       -3.102493   -2.324640    1.498112
      9          6           0       -2.938980   -1.244786    2.651823
     10          6           0       -3.571034   -0.004377    2.077298
     11          6           0       -3.551142   -1.767785    3.968317
     12          6           0       -1.875664   -2.628609    0.686766
     13          6           0       -0.957233   -3.544646    1.525551
     14          6           0        0.313330   -3.789928    0.670909
     15          8           0        0.536105   -3.318025   -0.434924
     16          8           0        1.103580   -4.712709    1.307286
     17          7           0       -4.878990    2.724710    1.341680
     18          6           0       -4.002322    2.437227    2.363545
     19          6           0       -3.703697    3.699347    3.077500
     20          6           0       -4.548425    4.639876    2.572440
     21          6           0       -5.278435    3.974961    1.459483
     22          6           0       -2.883190    3.793818    4.326539
     23          6           0       -4.577840    6.004965    2.996039
     24          8           0       -4.054618    6.617728    3.957536
     25          7           0       -6.793161    2.633519   -0.742246
     26          6           0       -6.914126    3.902270   -0.377326
     27          6           0       -7.867320    4.570698   -1.252181
     28          6           0       -8.339055    3.588960   -2.139883
     29          6           0       -7.685792    2.394274   -1.723677
     30          6           0       -8.269260    5.948792   -1.275450
     31          6           0       -9.514946    3.747273   -3.138512
     32          6           0       -8.858243    3.789875   -4.557749
     33          7           0       -6.332660   -0.134718   -1.037284
     34          6           0       -7.277615   -0.046738   -2.076569
     35          6           0       -7.474298   -1.339050   -2.695585
     36          6           0       -6.651081   -2.184401   -2.075713
     37          6           0       -5.966139   -1.465684   -1.044889
     38          6           0       -8.538515   -1.636230   -3.803327
     39          6           0       -6.245898   -3.540662   -1.966347
     40          8           0       -6.568292   -4.450734   -2.608012
     41          6           0       -5.043445   -3.615068   -0.914719
     42          6           0       -5.332552   -4.585504    0.128565
     43          8           0       -5.766221   -4.525600    1.273967
     44          8           0       -4.953880   -5.861971   -0.331670
     45          6           0       -5.282245   -7.024952    0.563519
     46          6           0        2.352000   -5.030999    0.647071
     47          6           0        3.407069   -4.043544    0.978255
     48          6           0        4.038366   -3.214487    0.076781
     49          6           0        3.727065   -3.199751   -1.392108
     50          6           0        5.175689   -2.386945    0.599075
     51          6           0        6.568164   -2.808291    0.003836
     52          6           0        7.673409   -1.814717    0.511607
     53          6           0        9.109441   -2.068378   -0.009647
     54          6           0        9.685779   -3.501747    0.283818
     55          6           0       10.014928   -0.936487    0.463548
     56          6           0       11.409501   -0.856096   -0.298950
     57          6           0       12.239722    0.297180    0.161770
     58          6           0       13.637334    0.484893   -0.579102
     59          6           0       14.527346   -0.785564   -0.350516
     60          6           0       14.098695    1.847393   -0.244999
     61          6           0       15.367123    2.250194   -0.898414
     62          6           0       15.899458    3.548881   -0.585473
     63          6           0       17.236597    3.990542   -1.373465
     64          6           0       16.882088    4.087550   -2.904753
     65          6           0       17.537066    5.393420   -0.854953
     66          1           0       -2.643717    1.144887    3.439373
     67          1           0       -6.492426    5.531009    0.876752
     68          1           0       -8.811981    0.991030   -3.045315
     69          1           0       -3.585359   -3.341631    1.816274
     70          1           0       -1.972203   -1.049459    2.749878
     71          1           0       -3.148688   -2.688978    4.409988
     72          1           0       -3.247645   -1.010443    4.642324
     73          1           0       -4.549369   -1.819593    3.968737
     74          1           0       -1.950016   -3.060696   -0.452714
     75          1           0       -1.280226   -1.800880    0.444630
     76          1           0       -0.714119   -3.132294    2.411840
     77          1           0       -1.384184   -4.513923    1.699382
     78          1           0       -1.794560    3.891832    3.977318
     79          1           0       -3.029802    4.844896    4.729624
     80          1           0       -3.245546    3.318962    4.983208
     81          1           0       -5.250742    6.664160    2.252857
     82          1           0      -10.301419    2.964234   -3.169873
     83          1           0      -10.093921    4.690121   -2.783508
     84          1           0       -9.663645    3.752319   -5.126848
     85          1           0       -8.055890    4.556737   -4.492089
     86          1           0       -8.273188    2.735472   -4.713706
     87          1           0       -8.554224   -0.952048   -4.767322
     88          1           0       -8.245433   -2.508985   -3.914170
     89          1           0       -9.581692   -1.503039   -3.305701
     90          1           0       -4.253834   -4.098616   -1.372928
     91          1           0        2.515036   -6.028224    1.003809
     92          1           0        1.994626   -5.143082   -0.343477
     93          1           0        3.784117   -4.156519    2.108264
     94          1           0        2.731325   -3.640500   -1.622009
     95          1           0        3.719785   -2.077498   -1.773226
     96          1           0        4.650319   -3.670716   -2.112994
     97          1           0        5.118265   -1.352125    0.457509
     98          1           0        4.976716   -2.348787    1.827147
     99          1           0        6.861094   -3.816269    0.214859
    100          1           0        6.587283   -2.547962   -1.090098
    101          1           0        7.372312   -0.611334    0.512440
    102          1           0        7.854532   -1.978526    1.597628
    103          1           0        9.010578   -2.100309   -1.299746
    104          1           0        9.118297   -4.433806   -0.305764
    105          1           0       10.767276   -3.567323    0.074524
    106          1           0        9.794478   -3.499305    1.407935
    107          1           0        9.718567    0.124330    0.262662
    108          1           0        9.992635   -1.000022    1.532195
    109          1           0       11.842475   -1.979693    0.037072
    110          1           0       11.415271   -0.930724   -1.377272
    111          1           0       11.563463    1.167952    0.265592
    112          1           0       12.424342   -0.155943    1.166747
    113          1           0       13.365928    0.588858   -1.668409
    114          1           0       14.935845   -0.713135    0.601877
    115          1           0       13.976230   -1.789986   -0.592014
    116          1           0       15.442945   -0.849841   -1.147526
    117          1           0       13.370847    2.699732   -0.390739
    118          1           0       14.139998    2.066507    1.009393
    119          1           0       16.288492    1.446444   -0.696390
    120          1           0       15.226314    1.974826   -2.023378
    121          1           0       15.030402    4.334074   -0.704301
    122          1           0       16.060104    3.491356    0.503078
    123          1           0       18.103292    3.118007   -1.171430
    124          1           0       16.106118    4.652571   -2.924362
    125          1           0       17.799252    4.453731   -3.536105
    126          1           0       16.474781    2.949709   -3.345904
    127          1           0       17.599277    5.277532    0.236587
    128          1           0       18.553602    5.799654   -1.358527
    129          1           0       16.761203    6.163124   -1.241251
    130          1           0       -4.744400   -7.757559   -0.058379
    131          1           0       -6.350492   -7.349267    0.626527
    132          1           0       -4.777932   -6.791248    1.583252
    133          8           0       -7.891337    6.820617   -0.469350
    134          1           0       -8.888856    6.199495   -2.192660
 ---------------------------------------------------------------------

 SCF Done:  E(RCAM-B3LYP) =  -3043.41014872     A.U. after   16 cycles

 Excitation energies and oscillator strengths:

 Excited State   1:      Singlet-A      2.1101 eV  587.59 nm  f=0.1386  <S**2>=0.000
     243 -> 246       -0.30461
     244 -> 245        0.63152
 This state for optimization and/or second-order correction.
 Total Energy, E(TD-HF/TD-KS) =  -3043.33260562
 Copying the excited state density for this state as the 1-particle RhoCI density.

 The electronic state is 1-A.
 Alpha  occ. eigenvalues --  -46.81445 -19.21617 -19.20949 -19.18139 -19.17783
 Alpha  occ. eigenvalues --  -19.17121 -19.17098 -19.16273 -14.38907 -14.37468
 Alpha  occ. eigenvalues --  -14.37028 -14.36919 -10.35126 -10.34597 -10.31772
 Alpha  occ. eigenvalues --  -10.30682 -10.29706 -10.27924 -10.27853 -10.27371
 Alpha  occ. eigenvalues --  -10.27295 -10.26515 -10.26426 -10.26329 -10.26278
 Alpha  occ. eigenvalues --  -10.26000 -10.25880 -10.25544 -10.24936 -10.24863
 Alpha  occ. eigenvalues --  -10.24777 -10.24534 -10.24343 -10.24241 -10.24012
 Alpha  occ. eigenvalues --  -10.23975 -10.23895 -10.23828 -10.23571 -10.23467
 Alpha  occ. eigenvalues --  -10.23465 -10.23178 -10.22939 -10.22938 -10.22856
 Alpha  occ. eigenvalues --  -10.22833 -10.22810 -10.22726 -10.22679 -10.22670
 Alpha  occ. eigenvalues --  -10.22489 -10.22465 -10.22462 -10.22366 -10.22259
 Alpha  occ. eigenvalues --  -10.22156 -10.22010 -10.21979 -10.21815 -10.21566
 Alpha  occ. eigenvalues --  -10.21472 -10.21357 -10.21356 -10.21111 -10.20905
 Alpha  occ. eigenvalues --  -10.20262  -3.10146  -1.85080  -1.84619  -1.84560
 Alpha  occ. eigenvalues --   -1.12463  -1.11688  -1.10734  -1.04662  -1.04480
 Alpha  occ. eigenvalues --   -1.04452  -1.02282  -1.01620  -1.00852  -1.00553
 Alpha  occ. eigenvalues --   -0.99467  -0.89390  -0.86031  -0.85800  -0.85734
 Alpha  occ. eigenvalues --   -0.85310  -0.84895  -0.84396  -0.84159  -0.84138
 Alpha  occ. eigenvalues --   -0.83355  -0.82716  -0.82122  -0.80887  -0.79982
 Alpha  occ. eigenvalues --   -0.79123  -0.78540  -0.78033  -0.77794  -0.76692
 Alpha  occ. eigenvalues --   -0.76272  -0.75297  -0.74254  -0.73323  -0.72415
 Alpha  occ. eigenvalues --   -0.70544  -0.70520  -0.70450  -0.70202  -0.70172
 Alpha  occ. eigenvalues --   -0.69914  -0.68892  -0.67851  -0.66958  -0.66251
 Alpha  occ. eigenvalues --   -0.66060  -0.64685  -0.64273  -0.62643  -0.62298
 Alpha  occ. eigenvalues --   -0.61968  -0.61661  -0.59405  -0.58669  -0.58322
 Alpha  occ. eigenvalues --   -0.58229  -0.57832  -0.57402  -0.56964  -0.56884
 Alpha  occ. eigenvalues --   -0.56796  -0.56535  -0.55881  -0.54859  -0.54273
 Alpha  occ. eigenvalues --   -0.54261  -0.53795  -0.53257  -0.52636  -0.52215
 Alpha  occ. eigenvalues --   -0.51698  -0.51215  -0.51008  -0.50603  -0.50525
 Alpha  occ. eigenvalues --   -0.50161  -0.49966  -0.49566  -0.49313  -0.49143
 Alpha  occ. eigenvalues --   -0.48899  -0.48792  -0.48433  -0.48372  -0.48060
 Alpha  occ. eigenvalues --   -0.47820  -0.47736  -0.47107  -0.47019  -0.46962
 Alpha  occ. eigenvalues --   -0.46723  -0.46480  -0.46292  -0.45975  -0.45754
 Alpha  occ. eigenvalues --   -0.45633  -0.45557  -0.45311  -0.45221  -0.45019
 Alpha  occ. eigenvalues --   -0.44965  -0.44771  -0.44657  -0.44151  -0.44054
 Alpha  occ. eigenvalues --   -0.44024  -0.43804  -0.43422  -0.43246  -0.42818
 Alpha  occ. eigenvalues --   -0.42686  -0.42570  -0.42280  -0.42123  -0.42048
 Alpha  occ. eigenvalues --   -0.41582  -0.41318  -0.41064  -0.40963  -0.40846
 Alpha  occ. eigenvalues --   -0.40683  -0.40558  -0.40394  -0.40308  -0.40133
 Alpha  occ. eigenvalues --   -0.39978  -0.39863  -0.39822  -0.39783  -0.39349
 Alpha  occ. eigenvalues --   -0.39019  -0.38868  -0.38609  -0.38594  -0.38425
 Alpha  occ. eigenvalues --   -0.38283  -0.38138  -0.37425  -0.37262  -0.36922
 Alpha  occ. eigenvalues --   -0.36600  -0.36538  -0.36389  -0.36000  -0.35807
 Alpha  occ. eigenvalues --   -0.35433  -0.35335  -0.35158  -0.35009  -0.34641
 Alpha  occ. eigenvalues --   -0.34170  -0.33867  -0.33743  -0.33019  -0.32817
 Alpha  occ. eigenvalues --   -0.32406  -0.32072  -0.31921  -0.31793  -0.31648
 Alpha  occ. eigenvalues --   -0.30961  -0.30681  -0.30588  -0.30235  -0.29819
 Alpha  occ. eigenvalues --   -0.29647  -0.29019  -0.28749  -0.27921  -0.27291
 Alpha  occ. eigenvalues --   -0.26969  -0.26961  -0.23507  -0.21758
 Alpha virt. eigenvalues --   -0.08165  -0.07118  -0.01844  -0.00799   0.00870
 Alpha virt. eigenvalues --    0.02488   0.02667   0.03351   0.03718   0.04320
 Alpha virt. eigenvalues --    0.05244   0.05985   0.08039   0.08462   0.08660

 Mulliken charges:
               1
     1  Mg   0.826622
     2  C    0.087591
     3  C   -0.168520
     4  C   -0.116456
     5  C   -0.155014
     6  N   -0.637796
     7  C    0.287827
     8  C   -0.161470
     9  C   -0.150586
    10  C    0.348932
    11  C   -0.304998
    12  C   -0.176496
    13  C   -0.256411
    14  C    0.594021
    15  O   -0.470733
    16  O   -0.479936
    17  N   -0.712031
    18  C    0.305983
    19  C    0.018864
    20  C    0.006228
    21  C    0.331491
    22  C   -0.364509
    23  C    0.222419
    24  O   -0.436113
    25  N   -0.691590
    26  C    0.310165
    27  C   -0.024495
    28  C    0.020858
    29  C    0.261602
    30  C    0.224052
    31  C   -0.246228
    32  C   -0.289051
    33  N   -0.747648
    34  C    0.292741
    35  C   -0.026789
    36  C    0.070350
    37  C    0.268883
    38  C   -0.332554
    39  C    0.351905
    40  O   -0.403634
    41  C   -0.319073
    42  C    0.623370
    43  O   -0.483684
    44  O   -0.497889
    45  C   -0.080855
    46  C    0.003118
    47  C   -0.130468
    48  C    0.159236
    49  C   -0.359543
    50  C   -0.220852
    51  C   -0.175869
    52  C   -0.166202
    53  C   -0.032758
    54  C   -0.309560
    55  C   -0.181262
    56  C   -0.178193
    57  C   -0.172627
    58  C   -0.040624
    59  C   -0.312458
    60  C   -0.154737
    61  C   -0.144281
    62  C   -0.165132
    63  C   -0.052428
    64  C   -0.274416
    65  C   -0.284828
    66  H    0.089304
    67  H    0.110141
    68  H    0.094202
    69  H    0.116880
    70  H    0.104878
    71  H    0.115812
    72  H    0.107624
    73  H    0.138124
    74  H    0.104660
    75  H    0.127690
    76  H    0.140892
    77  H    0.140722
    78  H    0.123745
    79  H    0.153391
    80  H    0.124621
    81  H    0.059463
    82  H    0.110393
    83  H    0.104033
    84  H    0.120359
    85  H    0.127800
    86  H    0.085411
    87  H    0.117846
    88  H    0.146799
    89  H    0.124438
    90  H    0.168104
    91  H    0.115783
    92  H    0.120373
    93  H    0.082849
    94  H    0.144640
    95  H    0.102330
    96  H    0.090801
    97  H    0.111012
    98  H    0.067747
    99  H    0.113084
   100  H    0.106917
   101  H    0.070597
   102  H    0.084535
   103  H    0.027210
   104  H    0.094984
   105  H    0.114159
   106  H    0.093497
   107  H    0.089731
   108  H    0.098305
   109  H    0.049102
   110  H    0.097448
   111  H    0.087882
   112  H    0.097706
   113  H    0.084013
   114  H    0.124056
   115  H    0.107487
   116  H    0.082263
   117  H    0.095508
   118  H    0.036432
   119  H    0.056183
   120  H    0.074542
   121  H    0.066912
   122  H    0.096954
   123  H    0.065756
   124  H    0.121202
   125  H    0.091750
   126  H    0.061505
   127  H    0.109045
   128  H    0.077321
   129  H    0.098919
   130  H    0.129749
   131  H    0.134617
   132  H    0.126276
   133  O   -0.446558
   134  H    0.062587
 Sum of Mulliken charges =   0.00000

 Dipole moment (field-independent basis, Debye):
    X=              2.1606    Y=             -6.0988    Z=             -1.1286  Tot=              6.5679
 Quadrupole moment (field-independent basis, Debye-Ang):
   XX=           -379.6310   YY=           -450.7978   ZZ=           -395.7191
   XY=             20.7142   XZ=             26.6174   YZ=            -32.3496

 Normal termination of Gaussian 09 at Mon Oct  7 23:15:34 2019.
