 Gaussian 09, Revision D.01,
 Gaussian 09:  ES64L-G09RevD.01 24-Apr-2013

 ----------------------------------------------------------------------
 # td=(NStates=1) iop(3/107=0140000000,3/108=0140000000) iop(3/107=0140
 000000,3/108=0140000000) CAM-B3LYP/6-31G(d,p)
 ----------------------------------------------------------------------

 --
 TD
 --
 Symbolic Z-matrix:
 Charge =  0 Multiplicity = 1

                         Standard orientation:
 ---------------------------------------------------------------------
 Center     Atomic      Atomic             Coordinates (Angstroms)
 Number     Number       Type             X           Y           Z
 ---------------------------------------------------------------------
      1         12           0       -5.615482    1.193499    0.148914
      2          6           0       -5.080192   -2.138758   -0.272942
      3          6           0       -3.330998    1.237400    2.654124
      4          6           0       -6.141721    4.578188    0.606257
      5          6           0       -8.030249    1.089644   -2.384331
      6          7           0       -4.391743   -0.287905    1.057827
      7          6           0       -4.241364   -1.540721    0.673580
      8          6           0       -3.187865   -2.268587    1.445958
      9          6           0       -2.764658   -1.192950    2.505251
     10          6           0       -3.540026   -0.013574    2.114615
     11          6           0       -3.196963   -1.670520    3.979240
     12          6           0       -1.997365   -2.693854    0.676272
     13          6           0       -1.074310   -3.579973    1.290614
     14          6           0        0.218585   -3.876175    0.644241
     15          8           0        0.393628   -3.387172   -0.445266
     16          8           0        1.034127   -4.681440    1.282965
     17          7           0       -4.891438    2.583425    1.515923
     18          6           0       -3.906250    2.405318    2.427245
     19          6           0       -3.696041    3.688598    3.090368
     20          6           0       -4.543430    4.620047    2.443588
     21          6           0       -5.231317    3.958666    1.520688
     22          6           0       -2.799149    3.848576    4.319066
     23          6           0       -4.677638    6.090032    2.848755
     24          8           0       -3.978668    6.637499    3.726521
     25          7           0       -6.823556    2.558814   -0.734526
     26          6           0       -6.874963    3.876429   -0.407902
     27          6           0       -7.859213    4.593049   -1.233422
     28          6           0       -8.418161    3.647134   -2.076920
     29          6           0       -7.701754    2.402966   -1.807444
     30          6           0       -8.243383    5.943696   -1.035119
     31          6           0       -9.510367    3.822149   -3.087725
     32          6           0       -8.926942    4.083829   -4.496618
     33          7           0       -6.272876   -0.142631   -1.183584
     34          6           0       -7.356599   -0.027023   -2.121553
     35          6           0       -7.592668   -1.378033   -2.672072
     36          6           0       -6.680257   -2.195022   -2.097571
     37          6           0       -5.941597   -1.395315   -1.165293
     38          6           0       -8.604859   -1.714938   -3.680229
     39          6           0       -6.166969   -3.617561   -1.963681
     40          8           0       -6.566052   -4.558885   -2.601284
     41          6           0       -5.049316   -3.614476   -0.876079
     42          6           0       -5.380803   -4.623865    0.108591
     43          8           0       -5.834176   -4.362591    1.272403
     44          8           0       -5.084240   -5.925739   -0.334852
     45          6           0       -5.486217   -6.875282    0.656090
     46          6           0        2.368741   -5.060833    0.793342
     47          6           0        3.441557   -4.057005    1.074665
     48          6           0        4.003513   -3.212962    0.155605
     49          6           0        3.737112   -3.122606   -1.245007
     50          6           0        5.106709   -2.382201    0.612448
     51          6           0        6.541882   -2.766447    0.051873
     52          6           0        7.561498   -1.724324    0.497896
     53          6           0        8.990021   -2.056094    0.006467
     54          6           0        9.502733   -3.460706    0.245676
     55          6           0       10.045864   -0.946312    0.480127
     56          6           0       11.460800   -0.920083   -0.260333
     57          6           0       12.152366    0.269774    0.171522
     58          6           0       13.479863    0.467189   -0.693329
     59          6           0       14.443219   -0.763332   -0.546074
     60          6           0       14.211121    1.691139   -0.158651
     61          6           0       15.421974    2.155196   -1.032051
     62          6           0       16.101872    3.425477   -0.576299
     63          6           0       17.351631    3.839609   -1.319912
     64          6           0       17.117790    4.129801   -2.866561
     65          6           0       18.004832    5.145134   -0.757868
     66          1           0       -2.646951    1.321709    3.471634
     67          1           0       -6.403381    5.585245    0.637091
     68          1           0       -9.012066    0.912366   -3.026017
     69          1           0       -3.411981   -3.112149    2.218835
     70          1           0       -1.659804   -1.024788    2.369848
     71          1           0       -2.590282   -2.643098    4.232983
     72          1           0       -2.977790   -0.902812    4.769240
     73          1           0       -4.211302   -1.865820    4.013735
     74          1           0       -2.296256   -3.211709   -0.270598
     75          1           0       -1.524256   -1.780036    0.093801
     76          1           0       -0.883487   -3.046722    2.323029
     77          1           0       -1.487136   -4.534221    1.705390
     78          1           0       -1.756684    3.910660    3.867017
     79          1           0       -2.875687    4.809678    4.624703
     80          1           0       -3.013129    3.143947    5.000365
     81          1           0       -5.520108    6.645549    2.300425
     82          1           0       -9.997048    2.860553   -2.990329
     83          1           0      -10.178157    4.509907   -2.868351
     84          1           0       -9.716634    4.294923   -5.092815
     85          1           0       -8.201661    4.899814   -4.218677
     86          1           0       -8.426852    3.255987   -4.860614
     87          1           0       -8.623987   -1.062066   -4.492136
     88          1           0       -8.491026   -2.671327   -4.050925
     89          1           0       -9.900116   -1.525959   -3.311391
     90          1           0       -4.136085   -3.807407   -1.652919
     91          1           0        2.419126   -6.037893    1.215159
     92          1           0        2.080685   -5.289481   -0.358169
     93          1           0        3.770553   -3.903978    2.013354
     94          1           0        2.674102   -3.625550   -1.547250
     95          1           0        3.625497   -2.010369   -1.538741
     96          1           0        4.501611   -3.674647   -1.982428
     97          1           0        4.918272   -1.326929    0.495594
     98          1           0        5.216597   -2.601430    1.727558
     99          1           0        6.729349   -3.853837    0.282638
    100          1           0        6.450562   -2.725797   -0.998863
    101          1           0        7.300246   -0.575474    0.089474
    102          1           0        7.424013   -1.656030    1.663069
    103          1           0        9.098789   -1.974414   -1.223343
    104          1           0        8.822582   -4.198515   -0.191994
    105          1           0       10.371550   -3.604944   -0.288320
    106          1           0        9.611764   -3.693182    1.487433
    107          1           0        9.714772    0.107428    0.227851
    108          1           0       10.321293   -1.047889    1.559532
    109          1           0       11.921636   -1.775866    0.015864
    110          1           0       11.310908   -1.056041   -1.355637
    111          1           0       11.715528    1.342743   -0.021992
    112          1           0       12.252317    0.236405    1.153793
    113          1           0       13.156418    0.482145   -1.707335
    114          1           0       14.863864   -0.639021    0.531384
    115          1           0       14.078586   -1.694127   -0.788758
    116          1           0       15.239972   -0.436373   -1.127135
    117          1           0       13.572048    2.630215    0.006066
    118          1           0       14.575587    1.671324    0.966546
    119          1           0       16.121684    1.253579   -1.221829
    120          1           0       15.015657    2.405549   -2.123509
    121          1           0       15.387492    4.170400   -0.534455
    122          1           0       16.337356    3.251074    0.494212
    123          1           0       18.064465    3.206855   -1.225089
    124          1           0       16.276850    4.673287   -3.052181
    125          1           0       18.016529    4.399388   -3.353822
    126          1           0       16.684818    3.146911   -3.163674
    127          1           0       18.100029    5.189481    0.276480
    128          1           0       18.823772    5.279823   -1.531008
    129          1           0       17.162033    6.020624   -0.976122
    130          1           0       -5.598416   -7.877457   -0.187178
    131          1           0       -6.412949   -6.578766    1.203710
    132          1           0       -4.640587   -7.047526    1.468968
    133          8           0       -7.730291    6.817168   -0.337610
    134          1           0       -9.147110    6.144408   -1.607707
 ---------------------------------------------------------------------

 SCF Done:  E(RCAM-B3LYP) =  -3043.47718036     A.U. after   15 cycles

 Excitation energies and oscillator strengths:

 Excited State   1:      Singlet-A      2.0990 eV  590.67 nm  f=0.1341  <S**2>=0.000
     243 -> 245        0.11607
     243 -> 246       -0.29465
     244 -> 245        0.61649
 This state for optimization and/or second-order correction.
 Total Energy, E(TD-HF/TD-KS) =  -3043.40004225
 Copying the excited state density for this state as the 1-particle RhoCI density.

 The electronic state is 1-A.
 Alpha  occ. eigenvalues --  -46.80980 -19.23359 -19.21878 -19.18342 -19.18111
 Alpha  occ. eigenvalues --  -19.17489 -19.16753 -19.15782 -14.38813 -14.37433
 Alpha  occ. eigenvalues --  -14.36683 -14.35725 -10.36183 -10.34174 -10.32836
 Alpha  occ. eigenvalues --  -10.31274 -10.29508 -10.29502 -10.29101 -10.27733
 Alpha  occ. eigenvalues --  -10.27173 -10.27173 -10.26934 -10.26275 -10.26071
 Alpha  occ. eigenvalues --  -10.25901 -10.25634 -10.25512 -10.25206 -10.24999
 Alpha  occ. eigenvalues --  -10.24424 -10.24320 -10.24159 -10.23993 -10.23911
 Alpha  occ. eigenvalues --  -10.23851 -10.23778 -10.23749 -10.23602 -10.23359
 Alpha  occ. eigenvalues --  -10.23276 -10.23190 -10.22961 -10.22737 -10.22664
 Alpha  occ. eigenvalues --  -10.22237 -10.22104 -10.22044 -10.21992 -10.21983
 Alpha  occ. eigenvalues --  -10.21827 -10.21703 -10.21660 -10.21567 -10.21534
 Alpha  occ. eigenvalues --  -10.21460 -10.21443 -10.20834 -10.20780 -10.20142
 Alpha  occ. eigenvalues --  -10.20120 -10.19916 -10.19724 -10.19672 -10.19330
 Alpha  occ. eigenvalues --  -10.19096  -3.09632  -1.84575  -1.84117  -1.84028
 Alpha  occ. eigenvalues --   -1.13501  -1.12029  -1.08750  -1.05906  -1.05003
 Alpha  occ. eigenvalues --   -1.04683  -1.03187  -1.01524  -1.00420  -0.99235
 Alpha  occ. eigenvalues --   -0.98480  -0.88004  -0.87344  -0.87004  -0.85821
 Alpha  occ. eigenvalues --   -0.85556  -0.85358  -0.84743  -0.84269  -0.83459
 Alpha  occ. eigenvalues --   -0.83166  -0.82277  -0.81733  -0.80763  -0.80112
 Alpha  occ. eigenvalues --   -0.79718  -0.78863  -0.77741  -0.77037  -0.76852
 Alpha  occ. eigenvalues --   -0.75818  -0.75480  -0.74297  -0.72648  -0.71929
 Alpha  occ. eigenvalues --   -0.71571  -0.70871  -0.70544  -0.70177  -0.69875
 Alpha  occ. eigenvalues --   -0.69330  -0.68939  -0.67795  -0.67399  -0.66413
 Alpha  occ. eigenvalues --   -0.65620  -0.65079  -0.64029  -0.62542  -0.62049
 Alpha  occ. eigenvalues --   -0.61565  -0.61023  -0.60814  -0.59985  -0.59362
 Alpha  occ. eigenvalues --   -0.58817  -0.58527  -0.57987  -0.57609  -0.56982
 Alpha  occ. eigenvalues --   -0.56634  -0.56134  -0.55821  -0.55736  -0.54796
 Alpha  occ. eigenvalues --   -0.54328  -0.53681  -0.52774  -0.52758  -0.52546
 Alpha  occ. eigenvalues --   -0.51829  -0.51590  -0.51415  -0.50854  -0.50531
 Alpha  occ. eigenvalues --   -0.49973  -0.49863  -0.49757  -0.49532  -0.49459
 Alpha  occ. eigenvalues --   -0.49132  -0.48638  -0.48583  -0.48361  -0.48270
 Alpha  occ. eigenvalues --   -0.48182  -0.47766  -0.47443  -0.47332  -0.46704
 Alpha  occ. eigenvalues --   -0.46256  -0.46102  -0.46083  -0.45828  -0.45782
 Alpha  occ. eigenvalues --   -0.45539  -0.45388  -0.45212  -0.45154  -0.44966
 Alpha  occ. eigenvalues --   -0.44882  -0.44677  -0.44489  -0.44348  -0.43836
 Alpha  occ. eigenvalues --   -0.43679  -0.43490  -0.43371  -0.43208  -0.42958
 Alpha  occ. eigenvalues --   -0.42781  -0.42487  -0.42176  -0.42096  -0.41806
 Alpha  occ. eigenvalues --   -0.41678  -0.41481  -0.41168  -0.40960  -0.40837
 Alpha  occ. eigenvalues --   -0.40819  -0.40472  -0.40377  -0.40147  -0.39996
 Alpha  occ. eigenvalues --   -0.39848  -0.39827  -0.39569  -0.39475  -0.39405
 Alpha  occ. eigenvalues --   -0.39222  -0.39154  -0.38751  -0.38507  -0.38222
 Alpha  occ. eigenvalues --   -0.38087  -0.37797  -0.37570  -0.37381  -0.37236
 Alpha  occ. eigenvalues --   -0.36813  -0.36602  -0.36234  -0.36014  -0.35642
 Alpha  occ. eigenvalues --   -0.35325  -0.35296  -0.35121  -0.34829  -0.34630
 Alpha  occ. eigenvalues --   -0.34450  -0.34305  -0.33910  -0.33303  -0.33011
 Alpha  occ. eigenvalues --   -0.32767  -0.32587  -0.32464  -0.32300  -0.32066
 Alpha  occ. eigenvalues --   -0.31534  -0.31302  -0.29729  -0.29582  -0.29470
 Alpha  occ. eigenvalues --   -0.29165  -0.28576  -0.28311  -0.27897  -0.27690
 Alpha  occ. eigenvalues --   -0.27545  -0.26814  -0.23036  -0.21423
 Alpha virt. eigenvalues --   -0.08012  -0.06701  -0.01699  -0.00605  -0.00320
 Alpha virt. eigenvalues --    0.01359   0.01633   0.03605   0.04116   0.04340
 Alpha virt. eigenvalues --    0.04968   0.05807   0.07039   0.08639   0.09062

 Mulliken charges:
               1
     1  Mg   0.818095
     2  C    0.054069
     3  C   -0.192334
     4  C   -0.146335
     5  C   -0.189064
     6  N   -0.631039
     7  C    0.337512
     8  C   -0.157315
     9  C   -0.162994
    10  C    0.348237
    11  C   -0.322833
    12  C   -0.162948
    13  C   -0.266440
    14  C    0.609134
    15  O   -0.473332
    16  O   -0.471266
    17  N   -0.732781
    18  C    0.372143
    19  C   -0.028434
    20  C   -0.008750
    21  C    0.292334
    22  C   -0.359032
    23  C    0.259542
    24  O   -0.424187
    25  N   -0.683219
    26  C    0.300852
    27  C   -0.010303
    28  C    0.000049
    29  C    0.238936
    30  C    0.241387
    31  C   -0.233475
    32  C   -0.300048
    33  N   -0.733603
    34  C    0.290163
    35  C    0.022226
    36  C    0.045299
    37  C    0.301760
    38  C   -0.372938
    39  C    0.362921
    40  O   -0.431379
    41  C   -0.316793
    42  C    0.660998
    43  O   -0.493212
    44  O   -0.444970
    45  C   -0.076016
    46  C    0.000278
    47  C   -0.117648
    48  C    0.191088
    49  C   -0.380692
    50  C   -0.248082
    51  C   -0.176962
    52  C   -0.149524
    53  C   -0.045735
    54  C   -0.291113
    55  C   -0.183245
    56  C   -0.193317
    57  C   -0.148551
    58  C   -0.062682
    59  C   -0.308887
    60  C   -0.180632
    61  C   -0.173192
    62  C   -0.169200
    63  C   -0.050902
    64  C   -0.325200
    65  C   -0.291813
    66  H    0.073425
    67  H    0.129695
    68  H    0.103606
    69  H    0.122470
    70  H    0.120410
    71  H    0.097695
    72  H    0.110295
    73  H    0.143592
    74  H    0.102210
    75  H    0.112709
    76  H    0.105272
    77  H    0.130482
    78  H    0.118551
    79  H    0.158326
    80  H    0.126680
    81  H    0.097856
    82  H    0.102604
    83  H    0.119285
    84  H    0.118736
    85  H    0.111600
    86  H    0.120554
    87  H    0.139635
    88  H    0.151644
    89  H    0.073057
    90  H    0.173256
    91  H    0.127280
    92  H    0.107026
    93  H    0.080859
    94  H    0.125553
    95  H    0.112894
    96  H    0.110025
    97  H    0.106999
    98  H    0.083385
    99  H    0.101410
   100  H    0.107969
   101  H    0.073466
   102  H    0.083158
   103  H    0.054167
   104  H    0.102559
   105  H    0.115918
   106  H    0.064793
   107  H    0.087557
   108  H    0.084827
   109  H    0.112004
   110  H    0.078028
   111  H    0.069982
   112  H    0.098149
   113  H    0.094564
   114  H    0.087315
   115  H    0.106254
   116  H    0.107381
   117  H    0.077556
   118  H    0.077210
   119  H    0.084954
   120  H    0.069177
   121  H    0.099476
   122  H    0.078985
   123  H    0.100742
   124  H    0.115182
   125  H    0.105471
   126  H    0.092318
   127  H    0.107139
   128  H    0.094089
   129  H    0.060771
   130  H    0.094769
   131  H    0.152050
   132  H    0.110602
   133  O   -0.447718
   134  H    0.055458
 Sum of Mulliken charges =   0.00000

 Dipole moment (field-independent basis, Debye):
    X=              2.5235    Y=             -5.6740    Z=             -1.5042  Tot=              6.3895
 Quadrupole moment (field-independent basis, Debye-Ang):
   XX=           -371.1269   YY=           -447.6779   ZZ=           -392.3887
   XY=             -0.0140   XZ=             23.9353   YZ=            -30.1389

 Normal termination of Gaussian 09 at Tue Oct  8 16:18:59 2019.
