 Gaussian 09, Revision D.01,
 Gaussian 09:  ES64L-G09RevD.01 24-Apr-2013

 ----------------------------------------------------------------------
 # td=(NStates=1) iop(3/107=0140000000,3/108=0140000000) iop(3/107=0140
 000000,3/108=0140000000) CAM-B3LYP/6-31G(d,p)
 ----------------------------------------------------------------------

 --
 TD
 --
 Symbolic Z-matrix:
 Charge =  0 Multiplicity = 1

                         Standard orientation:
 ---------------------------------------------------------------------
 Center     Atomic      Atomic             Coordinates (Angstroms)
 Number     Number       Type             X           Y           Z
 ---------------------------------------------------------------------
      1         12           0       -5.623242    1.226512    0.223074
      2          6           0       -5.045355   -2.116761   -0.272861
      3          6           0       -3.251246    1.193463    2.642753
      4          6           0       -6.115974    4.614649    0.646999
      5          6           0       -8.208477    1.211299   -2.234755
      6          7           0       -4.319361   -0.254530    1.033516
      7          6           0       -4.295303   -1.537029    0.694999
      8          6           0       -3.232458   -2.311428    1.479597
      9          6           0       -2.920383   -1.329440    2.608404
     10          6           0       -3.497403   -0.019591    2.078121
     11          6           0       -3.529424   -1.691668    3.871849
     12          6           0       -2.025335   -2.653759    0.585093
     13          6           0       -1.071509   -3.539371    1.394473
     14          6           0        0.200496   -3.791318    0.603069
     15          8           0        0.500789   -3.357750   -0.541127
     16          8           0        1.028765   -4.713521    1.199212
     17          7           0       -4.963122    2.606333    1.503547
     18          6           0       -3.975217    2.343088    2.408803
     19          6           0       -3.656353    3.673540    3.130498
     20          6           0       -4.445123    4.603233    2.541429
     21          6           0       -5.207153    3.959117    1.500608
     22          6           0       -2.564764    3.886857    4.229742
     23          6           0       -4.575329    6.035491    2.871716
     24          8           0       -3.790322    6.615527    3.682483
     25          7           0       -6.901450    2.672156   -0.672285
     26          6           0       -6.885497    3.933998   -0.383221
     27          6           0       -7.796282    4.599178   -1.273375
     28          6           0       -8.409237    3.654278   -2.056317
     29          6           0       -7.710592    2.401138   -1.688801
     30          6           0       -8.251188    5.980795   -1.231809
     31          6           0       -9.470669    3.778228   -3.203389
     32          6           0       -8.675762    3.895039   -4.570995
     33          7           0       -6.418317   -0.154728   -1.058037
     34          6           0       -7.421064   -0.029790   -2.031277
     35          6           0       -7.629948   -1.339888   -2.683100
     36          6           0       -6.834447   -2.232846   -1.974775
     37          6           0       -6.097881   -1.467818   -0.922917
     38          6           0       -8.474012   -1.697225   -3.731556
     39          6           0       -6.260282   -3.618373   -1.968241
     40          8           0       -6.616447   -4.689033   -2.455189
     41          6           0       -5.085026   -3.547120   -0.839951
     42          6           0       -5.270023   -4.598730    0.201436
     43          8           0       -5.631896   -4.370280    1.391368
     44          8           0       -5.209978   -5.848162   -0.284968
     45          6           0       -5.578384   -6.896734    0.605530
     46          6           0        2.295717   -4.961734    0.539040
     47          6           0        3.316915   -4.011734    0.935496
     48          6           0        3.941830   -3.112185    0.139587
     49          6           0        3.671348   -3.055541   -1.329186
     50          6           0        5.099668   -2.219930    0.695669
     51          6           0        6.405914   -2.559746   -0.020148
     52          6           0        7.591803   -1.697148    0.503733
     53          6           0        8.994297   -1.964031   -0.109067
     54          6           0        9.544821   -3.390347    0.184131
     55          6           0        9.973981   -0.890308    0.390799
     56          6           0       11.425461   -0.983003   -0.250094
     57          6           0       12.215927    0.294421    0.242327
     58          6           0       13.641623    0.356961   -0.538728
     59          6           0       14.397513   -0.893938   -0.416806
     60          6           0       14.336299    1.629425   -0.104946
     61          6           0       15.457349    2.021771   -0.954631
     62          6           0       16.090778    3.403291   -0.615631
     63          6           0       17.350072    3.822526   -1.276012
     64          6           0       17.070895    3.886792   -2.889917
     65          6           0       17.905923    5.200844   -0.862966
     66          1           0       -2.534184    1.265089    3.473271
     67          1           0       -6.314541    5.686826    0.670729
     68          1           0       -8.995212    1.168471   -2.959185
     69          1           0       -3.442961   -3.351572    1.825065
     70          1           0       -1.814490   -1.246553    2.509977
     71          1           0       -2.867397   -2.417327    4.276843
     72          1           0       -3.562801   -0.878114    4.647699
     73          1           0       -4.475039   -1.864319    3.757002
     74          1           0       -2.185739   -2.993073   -0.482738
     75          1           0       -1.596835   -1.745785    0.522408
     76          1           0       -0.664007   -2.851512    2.326401
     77          1           0       -1.527892   -4.579304    1.734796
     78          1           0       -1.446701    3.665047    3.990579
     79          1           0       -2.792945    5.000200    4.740249
     80          1           0       -2.506510    3.044628    4.912540
     81          1           0       -5.163650    6.458058    2.364994
     82          1           0      -10.198947    3.001328   -3.284293
     83          1           0       -9.881089    4.747216   -3.000366
     84          1           0       -9.287103    3.831388   -5.552404
     85          1           0       -7.983183    4.739709   -4.391903
     86          1           0       -7.961797    3.163447   -4.638445
     87          1           0       -8.161156   -1.409246   -4.741320
     88          1           0       -8.697495   -2.853140   -3.946704
     89          1           0       -9.565184   -1.352356   -3.544116
     90          1           0       -4.202184   -3.661509   -1.205460
     91          1           0        2.573209   -5.938563    1.056608
     92          1           0        2.448895   -5.099907   -0.644862
     93          1           0        3.773358   -4.167663    1.973843
     94          1           0        2.807715   -3.379269   -1.424753
     95          1           0        3.763387   -2.052328   -1.940274
     96          1           0        4.433081   -3.581799   -1.780059
     97          1           0        5.105939   -1.187884    0.365700
     98          1           0        5.156240   -2.235805    1.783791
     99          1           0        6.442566   -3.659888    0.249553
    100          1           0        6.428895   -2.284013   -1.037624
    101          1           0        7.274785   -0.509275    0.332130
    102          1           0        7.503678   -1.787434    1.582428
    103          1           0        8.836788   -1.986488   -1.195016
    104          1           0        8.836475   -4.238045   -0.260770
    105          1           0       10.517036   -3.753822   -0.099214
    106          1           0        9.518658   -3.706598    1.285004
    107          1           0        9.450744    0.019929    0.151385
    108          1           0       10.145333   -0.919944    1.607577
    109          1           0       11.935941   -2.018366    0.059073
    110          1           0       11.397249   -0.825339   -1.316248
    111          1           0       11.460002    1.095366   -0.075759
    112          1           0       12.310632    0.513134    1.237652
    113          1           0       13.341474    0.051253   -1.680652
    114          1           0       14.609397   -1.147833    0.695034
    115          1           0       13.886585   -1.809021   -0.864902
    116          1           0       15.358604   -0.780597   -0.948818
    117          1           0       13.604577    2.551079   -0.182010
    118          1           0       14.509143    1.599713    1.034024
    119          1           0       16.397975    1.280579   -0.778821
    120          1           0       15.129213    1.971799   -1.999575
    121          1           0       15.323805    4.176597   -0.745103
    122          1           0       16.470324    3.240583    0.440525
    123          1           0       18.089712    3.118327   -0.966193
    124          1           0       16.313072    4.618423   -3.255274
    125          1           0       17.876371    4.218796   -3.536115
    126          1           0       16.768861    2.858473   -2.994704
    127          1           0       18.117016    5.127855    0.188865
    128          1           0       18.858761    5.298065   -1.347158
    129          1           0       17.322933    6.002896   -0.954484
    130          1           0       -5.582244   -7.915106   -0.039708
    131          1           0       -6.627604   -6.625717    0.864669
    132          1           0       -4.839958   -6.879019    1.227504
    133          8           0       -7.674180    6.820328   -0.536519
    134          1           0       -9.147957    6.394303   -1.781611
 ---------------------------------------------------------------------

 SCF Done:  E(RCAM-B3LYP) =  -3043.42806957     A.U. after   16 cycles

 Excitation energies and oscillator strengths:

 Excited State   1:      Singlet-A      2.0764 eV  597.12 nm  f=0.2190  <S**2>=0.000
     243 -> 246       -0.25696
     244 -> 245        0.64976
 This state for optimization and/or second-order correction.
 Total Energy, E(TD-HF/TD-KS) =  -3043.35176453
 Copying the excited state density for this state as the 1-particle RhoCI density.

 The electronic state is 1-A.
 Alpha  occ. eigenvalues --  -46.81911 -19.22565 -19.22136 -19.17672 -19.17338
 Alpha  occ. eigenvalues --  -19.17232 -19.16665 -19.16223 -14.39059 -14.37557
 Alpha  occ. eigenvalues --  -14.37046 -14.36936 -10.35662 -10.34859 -10.32495
 Alpha  occ. eigenvalues --  -10.30428 -10.29044 -10.28279 -10.27664 -10.27417
 Alpha  occ. eigenvalues --  -10.27129 -10.27035 -10.26937 -10.26895 -10.26862
 Alpha  occ. eigenvalues --  -10.26455 -10.25909 -10.25853 -10.25502 -10.25474
 Alpha  occ. eigenvalues --  -10.24820 -10.24384 -10.24064 -10.23988 -10.23809
 Alpha  occ. eigenvalues --  -10.23798 -10.23780 -10.23381 -10.23378 -10.23358
 Alpha  occ. eigenvalues --  -10.23307 -10.22933 -10.22894 -10.22816 -10.22710
 Alpha  occ. eigenvalues --  -10.22653 -10.22522 -10.22468 -10.22382 -10.22073
 Alpha  occ. eigenvalues --  -10.22063 -10.22019 -10.21970 -10.21597 -10.21389
 Alpha  occ. eigenvalues --  -10.21335 -10.21170 -10.21122 -10.21121 -10.20694
 Alpha  occ. eigenvalues --  -10.20643 -10.20632 -10.20571 -10.19684 -10.19034
 Alpha  occ. eigenvalues --  -10.18280  -3.10472  -1.85420  -1.84930  -1.84885
 Alpha  occ. eigenvalues --   -1.13195  -1.12083  -1.06423  -1.06041  -1.04294
 Alpha  occ. eigenvalues --   -1.02634  -1.02383  -1.02305  -1.01859  -0.99679
 Alpha  occ. eigenvalues --   -0.98481  -0.88342  -0.87423  -0.86034  -0.85491
 Alpha  occ. eigenvalues --   -0.85374  -0.84788  -0.84228  -0.84030  -0.83565
 Alpha  occ. eigenvalues --   -0.83105  -0.83042  -0.82381  -0.80648  -0.80191
 Alpha  occ. eigenvalues --   -0.78812  -0.78430  -0.77996  -0.77693  -0.76859
 Alpha  occ. eigenvalues --   -0.75403  -0.75025  -0.74702  -0.73416  -0.72174
 Alpha  occ. eigenvalues --   -0.71416  -0.71330  -0.70175  -0.69867  -0.69672
 Alpha  occ. eigenvalues --   -0.69353  -0.69186  -0.68541  -0.67437  -0.66703
 Alpha  occ. eigenvalues --   -0.66404  -0.64674  -0.63971  -0.62669  -0.62157
 Alpha  occ. eigenvalues --   -0.61901  -0.61803  -0.60098  -0.59304  -0.59049
 Alpha  occ. eigenvalues --   -0.58741  -0.58452  -0.58142  -0.58077  -0.57153
 Alpha  occ. eigenvalues --   -0.57029  -0.56737  -0.55609  -0.55085  -0.54802
 Alpha  occ. eigenvalues --   -0.54504  -0.54128  -0.53334  -0.53188  -0.52658
 Alpha  occ. eigenvalues --   -0.52520  -0.51951  -0.51465  -0.51048  -0.50688
 Alpha  occ. eigenvalues --   -0.50660  -0.50162  -0.49946  -0.49771  -0.49451
 Alpha  occ. eigenvalues --   -0.49224  -0.48838  -0.48491  -0.48238  -0.47850
 Alpha  occ. eigenvalues --   -0.47705  -0.47466  -0.47403  -0.47272  -0.46982
 Alpha  occ. eigenvalues --   -0.46610  -0.46468  -0.46184  -0.46032  -0.45970
 Alpha  occ. eigenvalues --   -0.45590  -0.45276  -0.45058  -0.45005  -0.44947
 Alpha  occ. eigenvalues --   -0.44845  -0.44619  -0.44451  -0.44253  -0.44016
 Alpha  occ. eigenvalues --   -0.43668  -0.43270  -0.43060  -0.42868  -0.42685
 Alpha  occ. eigenvalues --   -0.42550  -0.42371  -0.42246  -0.41893  -0.41699
 Alpha  occ. eigenvalues --   -0.41332  -0.41181  -0.41090  -0.41056  -0.40948
 Alpha  occ. eigenvalues --   -0.40746  -0.40644  -0.40410  -0.40294  -0.40027
 Alpha  occ. eigenvalues --   -0.39898  -0.39769  -0.39668  -0.39372  -0.39212
 Alpha  occ. eigenvalues --   -0.39183  -0.38813  -0.38060  -0.37925  -0.37785
 Alpha  occ. eigenvalues --   -0.37730  -0.37277  -0.37256  -0.37176  -0.37013
 Alpha  occ. eigenvalues --   -0.36781  -0.36766  -0.36197  -0.36105  -0.35823
 Alpha  occ. eigenvalues --   -0.35405  -0.35347  -0.34874  -0.34716  -0.34226
 Alpha  occ. eigenvalues --   -0.34198  -0.33907  -0.33839  -0.33437  -0.33145
 Alpha  occ. eigenvalues --   -0.32578  -0.32228  -0.31731  -0.31571  -0.31274
 Alpha  occ. eigenvalues --   -0.30561  -0.30469  -0.30010  -0.29956  -0.29830
 Alpha  occ. eigenvalues --   -0.29161  -0.28554  -0.27997  -0.27960  -0.27899
 Alpha  occ. eigenvalues --   -0.27666  -0.26838  -0.23227  -0.21390
 Alpha virt. eigenvalues --   -0.08257  -0.06352  -0.02387  -0.01187   0.00223
 Alpha virt. eigenvalues --    0.01947   0.02963   0.03429   0.03767   0.03987
 Alpha virt. eigenvalues --    0.04748   0.05214   0.07612   0.08565   0.09118

 Mulliken charges:
               1
     1  Mg   0.830003
     2  C    0.059135
     3  C   -0.177668
     4  C   -0.177644
     5  C   -0.127338
     6  N   -0.640469
     7  C    0.342673
     8  C   -0.158213
     9  C   -0.159080
    10  C    0.329797
    11  C   -0.280970
    12  C   -0.172072
    13  C   -0.269655
    14  C    0.607110
    15  O   -0.482385
    16  O   -0.464527
    17  N   -0.733567
    18  C    0.319280
    19  C    0.030346
    20  C   -0.037008
    21  C    0.316338
    22  C   -0.387170
    23  C    0.335659
    24  O   -0.446390
    25  N   -0.683187
    26  C    0.332018
    27  C   -0.051301
    28  C   -0.001856
    29  C    0.282676
    30  C    0.223250
    31  C   -0.232292
    32  C   -0.319132
    33  N   -0.688303
    34  C    0.237880
    35  C    0.066236
    36  C    0.006860
    37  C    0.248132
    38  C   -0.434935
    39  C    0.370218
    40  O   -0.443825
    41  C   -0.280694
    42  C    0.598169
    43  O   -0.507783
    44  O   -0.436151
    45  C   -0.058765
    46  C    0.007554
    47  C   -0.135887
    48  C    0.130131
    49  C   -0.358786
    50  C   -0.223798
    51  C   -0.182761
    52  C   -0.177828
    53  C   -0.041762
    54  C   -0.320464
    55  C   -0.160249
    56  C   -0.183786
    57  C   -0.173850
    58  C   -0.039702
    59  C   -0.297933
    60  C   -0.160586
    61  C   -0.172547
    62  C   -0.152627
    63  C   -0.063716
    64  C   -0.327023
    65  C   -0.307443
    66  H    0.085407
    67  H    0.145829
    68  H    0.103167
    69  H    0.119970
    70  H    0.092783
    71  H    0.117134
    72  H    0.098623
    73  H    0.142776
    74  H    0.128338
    75  H    0.125703
    76  H    0.126871
    77  H    0.136753
    78  H    0.117627
    79  H    0.159825
    80  H    0.113973
    81  H    0.067814
    82  H    0.116897
    83  H    0.116391
    84  H    0.104359
    85  H    0.111751
    86  H    0.127234
    87  H    0.138028
    88  H    0.137018
    89  H    0.114375
    90  H    0.149161
    91  H    0.104451
    92  H    0.116919
    93  H    0.075000
    94  H    0.140798
    95  H    0.091315
    96  H    0.130170
    97  H    0.101525
    98  H    0.095338
    99  H    0.095548
   100  H    0.105628
   101  H    0.053820
   102  H    0.096011
   103  H    0.090259
   104  H    0.076221
   105  H    0.113119
   106  H    0.089498
   107  H    0.092651
   108  H    0.071141
   109  H    0.087245
   110  H    0.102383
   111  H    0.079202
   112  H    0.096476
   113  H    0.059768
   114  H    0.074631
   115  H    0.099441
   116  H    0.104417
   117  H    0.079272
   118  H    0.089214
   119  H    0.062564
   120  H    0.104626
   121  H    0.085859
   122  H    0.077744
   123  H    0.086854
   124  H    0.094864
   125  H    0.096056
   126  H    0.108118
   127  H    0.087969
   128  H    0.103724
   129  H    0.111303
   130  H    0.109722
   131  H    0.140439
   132  H    0.134037
   133  O   -0.432694
   134  H    0.079209
 Sum of Mulliken charges =   0.00000

 Dipole moment (field-independent basis, Debye):
    X=              1.1360    Y=             -4.0134    Z=             -1.0821  Tot=              4.3092
 Quadrupole moment (field-independent basis, Debye-Ang):
   XX=           -371.6441   YY=           -442.0630   ZZ=           -392.4766
   XY=              4.7552   XZ=             23.1750   YZ=            -29.7153

 Normal termination of Gaussian 09 at Tue Oct  8 05:34:07 2019.
