 Gaussian 09, Revision D.01,
 Gaussian 09:  ES64L-G09RevD.01 24-Apr-2013

 ----------------------------------------------------------------------
 # td=(NStates=1) iop(3/107=0140000000,3/108=0140000000) iop(3/107=0140
 000000,3/108=0140000000) CAM-B3LYP/6-31G(d,p)
 ----------------------------------------------------------------------

 --
 TD
 --
 Symbolic Z-matrix:
 Charge =  0 Multiplicity = 1

                         Standard orientation:
 ---------------------------------------------------------------------
 Center     Atomic      Atomic             Coordinates (Angstroms)
 Number     Number       Type             X           Y           Z
 ---------------------------------------------------------------------
      1         12           0       -5.717257    1.149518    0.278831
      2          6           0       -5.024006   -2.151564   -0.413177
      3          6           0       -3.380143    1.068679    2.802643
      4          6           0       -6.249027    4.570968    0.688463
      5          6           0       -7.995989    1.257021   -2.396665
      6          7           0       -4.324003   -0.414939    1.004781
      7          6           0       -4.261434   -1.616585    0.624443
      8          6           0       -3.271206   -2.419569    1.444142
      9          6           0       -3.046569   -1.386900    2.639140
     10          6           0       -3.580793   -0.109053    2.166199
     11          6           0       -3.653952   -1.729779    3.904806
     12          6           0       -2.035643   -2.751723    0.621162
     13          6           0       -0.951960   -3.506564    1.438680
     14          6           0        0.292747   -3.842400    0.607103
     15          8           0        0.652777   -3.434866   -0.512229
     16          8           0        1.058590   -4.752454    1.237846
     17          7           0       -4.885993    2.603551    1.454074
     18          6           0       -3.924689    2.342904    2.480496
     19          6           0       -3.690467    3.509957    3.212592
     20          6           0       -4.547058    4.531626    2.683731
     21          6           0       -5.269943    3.870276    1.530589
     22          6           0       -2.775633    3.628952    4.450886
     23          6           0       -4.482336    6.013060    3.007135
     24          8           0       -3.820696    6.495811    3.844842
     25          7           0       -6.849490    2.618531   -0.708266
     26          6           0       -6.965987    3.927347   -0.368614
     27          6           0       -7.936802    4.682700   -1.116143
     28          6           0       -8.516039    3.801569   -2.040030
     29          6           0       -7.825365    2.483392   -1.712172
     30          6           0       -8.200485    6.141428   -1.148407
     31          6           0       -9.557379    3.942078   -3.036663
     32          6           0       -8.900891    4.000497   -4.478222
     33          7           0       -6.439078   -0.084749   -1.014864
     34          6           0       -7.358715    0.042256   -2.014913
     35          6           0       -7.639247   -1.294301   -2.641625
     36          6           0       -6.750110   -2.116304   -2.059422
     37          6           0       -6.015604   -1.403891   -1.056636
     38          6           0       -8.538533   -1.615099   -3.816868
     39          6           0       -6.250948   -3.544655   -2.170203
     40          8           0       -6.587064   -4.522443   -2.704359
     41          6           0       -5.060584   -3.574939   -1.043125
     42          6           0       -5.403452   -4.577151   -0.050922
     43          8           0       -5.786861   -4.509094    1.127337
     44          8           0       -5.123863   -5.829698   -0.497613
     45          6           0       -5.508534   -6.879514    0.389532
     46          6           0        2.255242   -5.028494    0.459005
     47          6           0        3.465362   -4.155763    0.928835
     48          6           0        4.080252   -3.234712    0.145611
     49          6           0        3.848158   -2.956810   -1.253190
     50          6           0        5.256560   -2.476471    0.793449
     51          6           0        6.598912   -2.652640    0.123248
     52          6           0        7.755999   -1.724754    0.727971
     53          6           0        9.034493   -1.970158    0.067408
     54          6           0        9.565031   -3.479554    0.261817
     55          6           0       10.106548   -1.039253    0.553323
     56          6           0       11.368949   -0.907188   -0.279326
     57          6           0       12.249737    0.183827    0.247088
     58          6           0       13.593339    0.438256   -0.462647
     59          6           0       14.558540   -0.740829   -0.319617
     60          6           0       14.336499    1.771206   -0.025499
     61          6           0       15.455149    2.136625   -1.127340
     62          6           0       16.005561    3.389534   -0.722314
     63          6           0       17.311133    3.949640   -1.550620
     64          6           0       17.071413    4.190390   -3.140126
     65          6           0       17.906522    5.288439   -0.893491
     66          1           0       -2.637633    1.059235    3.556588
     67          1           0       -6.356275    5.605492    0.671821
     68          1           0       -8.716589    1.293106   -3.175044
     69          1           0       -3.766878   -3.385282    1.677739
     70          1           0       -1.908490   -1.194175    2.810593
     71          1           0       -3.180295   -2.562714    4.394235
     72          1           0       -3.670002   -1.105253    4.829766
     73          1           0       -4.708021   -2.130224    3.612411
     74          1           0       -2.287489   -3.566274   -0.218472
     75          1           0       -1.437628   -1.833712    0.182633
     76          1           0       -0.542969   -2.788397    2.219792
     77          1           0       -1.312939   -4.490896    1.832719
     78          1           0       -1.847728    3.308270    4.136344
     79          1           0       -2.709380    4.658556    4.810850
     80          1           0       -3.154446    3.013053    5.182251
     81          1           0       -4.999887    6.699221    2.313861
     82          1           0      -10.241438    3.069099   -2.961520
     83          1           0      -10.194408    4.792497   -2.907190
     84          1           0       -9.678514    4.091552   -5.142101
     85          1           0       -8.324979    4.881448   -4.491068
     86          1           0       -8.506956    3.096718   -4.873712
     87          1           0       -8.332705   -0.903676   -4.903461
     88          1           0       -8.430450   -2.670264   -3.911395
     89          1           0       -9.636060   -1.142972   -3.586295
     90          1           0       -4.308137   -3.850017   -1.630426
     91          1           0        2.365130   -6.100667    0.741131
     92          1           0        2.102187   -4.883302   -0.667496
     93          1           0        3.731704   -4.332720    2.021473
     94          1           0        2.729397   -3.100143   -1.549352
     95          1           0        4.157884   -1.998078   -1.529088
     96          1           0        4.478247   -3.656803   -1.845251
     97          1           0        5.046011   -1.489573    0.378716
     98          1           0        5.368067   -2.619341    1.927908
     99          1           0        6.882147   -3.645300    0.231788
    100          1           0        6.394722   -2.311420   -0.950355
    101          1           0        7.442433   -0.783266    0.549004
    102          1           0        7.838212   -1.777567    1.779128
    103          1           0        9.178253   -1.604411   -1.112002
    104          1           0        8.783983   -4.143233   -0.474268
    105          1           0       10.564931   -3.623570   -0.098734
    106          1           0        9.475261   -3.829511    1.395204
    107          1           0        9.545313    0.017865    0.773533
    108          1           0       10.433520   -1.438799    1.660398
    109          1           0       11.907563   -1.931110   -0.066461
    110          1           0       11.238541   -0.914785   -1.385903
    111          1           0       11.586775    1.112003    0.088520
    112          1           0       12.471657   -0.037241    1.293435
    113          1           0       13.275338    0.655977   -1.568074
    114          1           0       14.952402   -0.661959    0.884679
    115          1           0       14.077438   -1.781005   -0.399817
    116          1           0       15.501927   -0.517290   -0.742783
    117          1           0       13.413916    2.603531    0.048672
    118          1           0       14.732276    1.722463    1.159024
    119          1           0       16.443853    1.507707   -1.032704
    120          1           0       15.089062    2.256448   -2.263194
    121          1           0       15.437001    4.393770   -0.975397
    122          1           0       16.344153    3.602649    0.282838
    123          1           0       18.249711    3.289232   -1.658223
    124          1           0       16.102602    4.619399   -3.479934
    125          1           0       17.921155    4.623932   -3.493570
    126          1           0       16.918480    3.004769   -3.588355
    127          1           0       18.209293    4.819144    0.166432
    128          1           0       18.836361    5.739247   -1.246363
    129          1           0       17.139071    6.248682   -0.414837
    130          1           0       -5.490474   -7.759102   -0.398346
    131          1           0       -6.557440   -6.906370    0.769345
    132          1           0       -4.828492   -6.776246    1.176936
    133          8           0       -7.740997    6.996372   -0.416758
    134          1           0       -8.997098    6.405532   -1.916300
 ---------------------------------------------------------------------

 SCF Done:  E(RCAM-B3LYP) =  -3043.45886692     A.U. after   16 cycles

 Excitation energies and oscillator strengths:

 Excited State   1:      Singlet-A      1.9743 eV  627.99 nm  f=0.2234  <S**2>=0.000
     243 -> 246       -0.24890
     244 -> 245        0.65547
 This state for optimization and/or second-order correction.
 Total Energy, E(TD-HF/TD-KS) =  -3043.38631238
 Copying the excited state density for this state as the 1-particle RhoCI density.

 The electronic state is 1-A.
 Alpha  occ. eigenvalues --  -46.81628 -19.22115 -19.21712 -19.20076 -19.17947
 Alpha  occ. eigenvalues --  -19.16878 -19.16641 -19.16280 -14.38534 -14.37362
 Alpha  occ. eigenvalues --  -14.37267 -14.36801 -10.34890 -10.34848 -10.33599
 Alpha  occ. eigenvalues --  -10.31318 -10.29331 -10.27333 -10.27158 -10.27088
 Alpha  occ. eigenvalues --  -10.27010 -10.26991 -10.26616 -10.26612 -10.26542
 Alpha  occ. eigenvalues --  -10.26189 -10.26060 -10.25882 -10.25596 -10.25460
 Alpha  occ. eigenvalues --  -10.25098 -10.24884 -10.24695 -10.24680 -10.24338
 Alpha  occ. eigenvalues --  -10.24279 -10.24265 -10.24173 -10.23969 -10.23834
 Alpha  occ. eigenvalues --  -10.23690 -10.23543 -10.23437 -10.23351 -10.23308
 Alpha  occ. eigenvalues --  -10.23209 -10.23051 -10.22785 -10.22748 -10.22710
 Alpha  occ. eigenvalues --  -10.22588 -10.22507 -10.22446 -10.22010 -10.21776
 Alpha  occ. eigenvalues --  -10.21727 -10.21593 -10.21497 -10.21484 -10.21449
 Alpha  occ. eigenvalues --  -10.21247 -10.20917 -10.20882 -10.20853 -10.20021
 Alpha  occ. eigenvalues --  -10.19858  -3.10249  -1.85170  -1.84720  -1.84672
 Alpha  occ. eigenvalues --   -1.13563  -1.13186  -1.12289  -1.08544  -1.07513
 Alpha  occ. eigenvalues --   -1.03045  -1.02761  -1.01947  -1.00169  -0.99020
 Alpha  occ. eigenvalues --   -0.98032  -0.88890  -0.86381  -0.86288  -0.85902
 Alpha  occ. eigenvalues --   -0.85199  -0.84955  -0.84037  -0.83899  -0.83438
 Alpha  occ. eigenvalues --   -0.82417  -0.82289  -0.80943  -0.80205  -0.79486
 Alpha  occ. eigenvalues --   -0.79142  -0.77975  -0.77403  -0.77143  -0.76074
 Alpha  occ. eigenvalues --   -0.75269  -0.74165  -0.73895  -0.72932  -0.72412
 Alpha  occ. eigenvalues --   -0.71128  -0.70574  -0.69715  -0.69415  -0.69260
 Alpha  occ. eigenvalues --   -0.69016  -0.68191  -0.67641  -0.67158  -0.65649
 Alpha  occ. eigenvalues --   -0.64958  -0.64110  -0.63682  -0.62111  -0.61714
 Alpha  occ. eigenvalues --   -0.61509  -0.61016  -0.60058  -0.59191  -0.58096
 Alpha  occ. eigenvalues --   -0.57680  -0.57272  -0.56995  -0.56846  -0.56285
 Alpha  occ. eigenvalues --   -0.56157  -0.56090  -0.55445  -0.54855  -0.54582
 Alpha  occ. eigenvalues --   -0.54185  -0.53553  -0.53105  -0.52392  -0.52255
 Alpha  occ. eigenvalues --   -0.52169  -0.51898  -0.51727  -0.51339  -0.50933
 Alpha  occ. eigenvalues --   -0.50338  -0.50054  -0.49724  -0.49624  -0.49329
 Alpha  occ. eigenvalues --   -0.49004  -0.48891  -0.48476  -0.48092  -0.47985
 Alpha  occ. eigenvalues --   -0.47791  -0.47756  -0.47193  -0.46964  -0.46899
 Alpha  occ. eigenvalues --   -0.46672  -0.46297  -0.46027  -0.45846  -0.45613
 Alpha  occ. eigenvalues --   -0.45530  -0.45371  -0.45175  -0.45063  -0.44981
 Alpha  occ. eigenvalues --   -0.44496  -0.44281  -0.44235  -0.44045  -0.43773
 Alpha  occ. eigenvalues --   -0.43737  -0.43501  -0.43330  -0.43098  -0.42651
 Alpha  occ. eigenvalues --   -0.42612  -0.42471  -0.42210  -0.42047  -0.41923
 Alpha  occ. eigenvalues --   -0.41726  -0.41529  -0.41436  -0.41338  -0.40990
 Alpha  occ. eigenvalues --   -0.40936  -0.40587  -0.40499  -0.40366  -0.40132
 Alpha  occ. eigenvalues --   -0.39922  -0.39888  -0.39825  -0.39722  -0.39558
 Alpha  occ. eigenvalues --   -0.39109  -0.38734  -0.38656  -0.38558  -0.38197
 Alpha  occ. eigenvalues --   -0.38100  -0.37994  -0.37796  -0.37424  -0.36872
 Alpha  occ. eigenvalues --   -0.36761  -0.36442  -0.36090  -0.35790  -0.35679
 Alpha  occ. eigenvalues --   -0.35347  -0.35084  -0.34666  -0.34539  -0.33840
 Alpha  occ. eigenvalues --   -0.33807  -0.33345  -0.33006  -0.32856  -0.32448
 Alpha  occ. eigenvalues --   -0.32238  -0.31912  -0.31767  -0.31689  -0.31415
 Alpha  occ. eigenvalues --   -0.31157  -0.30636  -0.30564  -0.29946  -0.29751
 Alpha  occ. eigenvalues --   -0.29397  -0.29092  -0.28680  -0.28596  -0.27100
 Alpha  occ. eigenvalues --   -0.26800  -0.26356  -0.22907  -0.21132
 Alpha virt. eigenvalues --   -0.08545  -0.06328  -0.01566  -0.00188   0.01067
 Alpha virt. eigenvalues --    0.02510   0.02922   0.03404   0.04464   0.04760
 Alpha virt. eigenvalues --    0.05107   0.06035   0.07531   0.08564   0.09129

 Mulliken charges:
               1
     1  Mg   0.840923
     2  C    0.054683
     3  C   -0.158532
     4  C   -0.147767
     5  C   -0.171862
     6  N   -0.642647
     7  C    0.360145
     8  C   -0.157116
     9  C   -0.165661
    10  C    0.334682
    11  C   -0.304960
    12  C   -0.170991
    13  C   -0.260041
    14  C    0.602076
    15  O   -0.499482
    16  O   -0.451210
    17  N   -0.708143
    18  C    0.294177
    19  C    0.013578
    20  C   -0.094248
    21  C    0.310403
    22  C   -0.372090
    23  C    0.251331
    24  O   -0.386732
    25  N   -0.665303
    26  C    0.309712
    27  C   -0.029074
    28  C    0.077092
    29  C    0.249469
    30  C    0.253252
    31  C   -0.287795
    32  C   -0.320416
    33  N   -0.757639
    34  C    0.280929
    35  C    0.023201
    36  C    0.014016
    37  C    0.311798
    38  C   -0.355070
    39  C    0.361936
    40  O   -0.386961
    41  C   -0.319651
    42  C    0.633380
    43  O   -0.507489
    44  O   -0.449471
    45  C   -0.073192
    46  C   -0.013487
    47  C   -0.144294
    48  C    0.167002
    49  C   -0.399050
    50  C   -0.226925
    51  C   -0.185064
    52  C   -0.161701
    53  C   -0.026311
    54  C   -0.302325
    55  C   -0.147488
    56  C   -0.176276
    57  C   -0.153825
    58  C   -0.038380
    59  C   -0.296991
    60  C   -0.163314
    61  C   -0.161264
    62  C   -0.157191
    63  C   -0.074333
    64  C   -0.295006
    65  C   -0.305516
    66  H    0.089438
    67  H    0.125296
    68  H    0.075318
    69  H    0.130150
    70  H    0.086445
    71  H    0.110556
    72  H    0.116078
    73  H    0.114532
    74  H    0.101467
    75  H    0.119526
    76  H    0.137777
    77  H    0.135663
    78  H    0.123304
    79  H    0.154672
    80  H    0.129713
    81  H    0.068321
    82  H    0.117280
    83  H    0.122880
    84  H    0.117404
    85  H    0.128895
    86  H    0.121027
    87  H    0.097179
    88  H    0.150374
    89  H    0.113413
    90  H    0.163954
    91  H    0.101394
    92  H    0.137117
    93  H    0.078252
    94  H    0.148631
    95  H    0.113272
    96  H    0.127443
    97  H    0.094223
    98  H    0.087429
    99  H    0.107654
   100  H    0.083395
   101  H    0.101653
   102  H    0.097359
   103  H    0.054479
   104  H    0.076492
   105  H    0.113122
   106  H    0.091234
   107  H    0.056399
   108  H    0.056851
   109  H    0.077425
   110  H    0.091482
   111  H    0.077763
   112  H    0.092863
   113  H    0.067640
   114  H    0.051357
   115  H    0.104603
   116  H    0.118637
   117  H    0.073154
   118  H    0.076124
   119  H    0.101054
   120  H    0.103335
   121  H    0.086387
   122  H    0.103314
   123  H    0.081254
   124  H    0.104073
   125  H    0.116197
   126  H    0.047264
   127  H    0.079887
   128  H    0.115480
   129  H    0.061903
   130  H    0.112429
   131  H    0.130595
   132  H    0.130816
   133  O   -0.413301
   134  H    0.059701
 Sum of Mulliken charges =   0.00000

 Dipole moment (field-independent basis, Debye):
    X=             -0.3410    Y=             -4.3852    Z=             -2.3367  Tot=              4.9806
 Quadrupole moment (field-independent basis, Debye-Ang):
   XX=           -354.8684   YY=           -447.5161   ZZ=           -391.9216
   XY=              6.5002   XZ=             32.3660   YZ=            -33.1595

 Normal termination of Gaussian 09 at Tue Oct  8 17:14:41 2019.
