 Gaussian 09, Revision D.01,
 Gaussian 09:  ES64L-G09RevD.01 24-Apr-2013

 ----------------------------------------------------------------------
 # td=(NStates=1) iop(3/107=0140000000,3/108=0140000000) iop(3/107=0140
 000000,3/108=0140000000) CAM-B3LYP/6-31G(d,p)
 ----------------------------------------------------------------------

 --
 TD
 --
 Symbolic Z-matrix:
 Charge =  0 Multiplicity = 1

                         Standard orientation:
 ---------------------------------------------------------------------
 Center     Atomic      Atomic             Coordinates (Angstroms)
 Number     Number       Type             X           Y           Z
 ---------------------------------------------------------------------
      1         12           0       -5.587270    1.268553    0.217477
      2          6           0       -5.073516   -2.193596   -0.345541
      3          6           0       -3.306672    1.180513    2.624552
      4          6           0       -6.189333    4.719524    0.636283
      5          6           0       -8.105035    1.155253   -2.221125
      6          7           0       -4.349579   -0.303708    0.991919
      7          6           0       -4.275823   -1.614944    0.555627
      8          6           0       -3.235506   -2.318606    1.498673
      9          6           0       -2.810716   -1.320430    2.516304
     10          6           0       -3.487953   -0.030040    1.983367
     11          6           0       -3.373847   -1.614636    3.960709
     12          6           0       -1.967422   -2.775185    0.675530
     13          6           0       -0.979308   -3.652986    1.489159
     14          6           0        0.243992   -3.950417    0.593531
     15          8           0        0.427663   -3.603608   -0.469315
     16          8           0        0.984807   -4.869015    1.224244
     17          7           0       -4.873233    2.737001    1.389571
     18          6           0       -3.884857    2.500670    2.344644
     19          6           0       -3.595588    3.679835    3.104222
     20          6           0       -4.352119    4.685605    2.510024
     21          6           0       -5.132324    3.994426    1.430401
     22          6           0       -2.690155    3.815786    4.273452
     23          6           0       -4.452409    6.038231    2.840525
     24          8           0       -3.881600    6.678037    3.643662
     25          7           0       -6.932326    2.749724   -0.571498
     26          6           0       -6.955878    4.039216   -0.244482
     27          6           0       -7.957538    4.662612   -1.089017
     28          6           0       -8.381695    3.685230   -1.999964
     29          6           0       -7.795786    2.530817   -1.709545
     30          6           0       -8.218641    6.106509   -1.173270
     31          6           0       -9.372889    3.917131   -3.143259
     32          6           0       -8.758338    3.822902   -4.588351
     33          7           0       -6.366909   -0.144158   -1.080580
     34          6           0       -7.394655    0.008691   -1.930564
     35          6           0       -7.740909   -1.311475   -2.616070
     36          6           0       -6.762703   -2.246932   -2.060533
     37          6           0       -6.051452   -1.396772   -1.094431
     38          6           0       -8.644419   -1.540314   -3.718241
     39          6           0       -6.288623   -3.569453   -1.947890
     40          8           0       -6.654982   -4.526488   -2.550996
     41          6           0       -5.171358   -3.573073   -0.854435
     42          6           0       -5.319628   -4.686201    0.287983
     43          8           0       -5.620161   -4.427750    1.421816
     44          8           0       -5.137651   -5.863108   -0.298063
     45          6           0       -5.481229   -7.018680    0.408983
     46          6           0        2.234730   -5.243598    0.578778
     47          6           0        3.443530   -4.281865    1.000649
     48          6           0        3.999111   -3.439461    0.237361
     49          6           0        3.693075   -3.327021   -1.223680
     50          6           0        5.152817   -2.467378    0.744058
     51          6           0        6.438357   -2.671239    0.112900
     52          6           0        7.565291   -1.745320    0.552906
     53          6           0        8.964493   -1.883828   -0.124175
     54          6           0        9.502184   -3.348875    0.038004
     55          6           0        9.972967   -0.800312    0.407146
     56          6           0       11.273533   -0.687650   -0.414514
     57          6           0       12.186416    0.402841    0.070668
     58          6           0       13.443681    0.489789   -0.708378
     59          6           0       14.315370   -0.704690   -0.442870
     60          6           0       14.176889    1.860488   -0.134533
     61          6           0       15.424485    2.047444   -0.935280
     62          6           0       16.068350    3.449593   -0.611240
     63          6           0       17.483723    3.746639   -1.317073
     64          6           0       17.370371    4.012262   -2.784322
     65          6           0       18.220022    5.052576   -0.658584
     66          1           0       -2.524594    1.152721    3.449746
     67          1           0       -6.560982    5.751853    0.831662
     68          1           0       -8.885389    1.305627   -2.958224
     69          1           0       -3.728192   -3.105112    1.895501
     70          1           0       -1.744084   -1.416489    2.639691
     71          1           0       -2.889927   -2.549415    4.567391
     72          1           0       -3.399057   -0.789122    4.495699
     73          1           0       -4.575705   -1.753016    3.949874
     74          1           0       -2.295217   -3.311210   -0.374771
     75          1           0       -1.519855   -1.902527    0.291883
     76          1           0       -0.678288   -3.138265    2.423903
     77          1           0       -1.553413   -4.817083    1.494294
     78          1           0       -1.781197    3.208603    4.099127
     79          1           0       -2.776190    4.796375    4.531203
     80          1           0       -3.242159    3.253839    5.109108
     81          1           0       -5.119190    6.721082    2.183068
     82          1           0      -10.236948    3.055597   -3.047550
     83          1           0       -9.970367    4.778352   -3.044574
     84          1           0       -9.605582    3.768074   -5.246156
     85          1           0       -8.186042    4.755876   -4.572306
     86          1           0       -8.241891    3.022842   -4.737279
     87          1           0       -8.386637   -0.964271   -4.612525
     88          1           0       -8.457637   -2.551961   -4.119544
     89          1           0       -9.704248   -1.130709   -3.449853
     90          1           0       -4.380127   -3.785457   -1.445730
     91          1           0        2.382465   -6.244977    0.707703
     92          1           0        2.273041   -5.178923   -0.674999
     93          1           0        3.679232   -4.613622    2.130293
     94          1           0        2.667437   -3.368002   -1.297380
     95          1           0        3.972943   -2.285781   -1.523032
     96          1           0        4.397651   -4.106150   -1.631994
     97          1           0        4.852666   -1.433283    0.642653
     98          1           0        5.334142   -2.747696    1.846606
     99          1           0        6.784222   -3.803034    0.112070
    100          1           0        6.345254   -2.560867   -0.901682
    101          1           0        7.188557   -0.731200    0.101152
    102          1           0        7.821841   -1.836745    1.557266
    103          1           0        9.020536   -1.809532   -1.315181
    104          1           0        8.744309   -4.048557   -0.355769
    105          1           0       10.571842   -3.682185   -0.138610
    106          1           0        9.475125   -3.362577    1.198450
    107          1           0        9.417605    0.278098    0.464103
    108          1           0       10.479929   -1.012838    1.387563
    109          1           0       11.701836   -1.833862   -0.401826
    110          1           0       11.144753   -0.339224   -1.499119
    111          1           0       11.556144    1.268805   -0.001456
    112          1           0       12.260395    0.018036    1.182185
    113          1           0       13.024544    0.439566   -1.803019
    114          1           0       14.739369   -0.977166    0.595191
    115          1           0       13.759035   -1.654328   -0.818503
    116          1           0       15.362910   -0.696194   -0.979428
    117          1           0       13.435730    2.683296   -0.384795
    118          1           0       14.443814    1.620254    0.997370
    119          1           0       16.050267    1.323087   -0.806628
    120          1           0       15.033567    2.157799   -1.873723
    121          1           0       15.413248    4.453015   -0.914162
    122          1           0       16.028361    3.305314    0.457163
    123          1           0       18.057098    2.927665   -1.160734
    124          1           0       16.809929    4.956542   -2.750653
    125          1           0       18.362814    4.104279   -3.217621
    126          1           0       16.850080    3.206789   -3.491568
    127          1           0       18.460828    4.945282    0.374265
    128          1           0       19.007737    5.253917   -1.205583
    129          1           0       17.569800    5.928740   -0.600115
    130          1           0       -5.258264   -7.866789   -0.375104
    131          1           0       -6.607104   -6.951746    0.771540
    132          1           0       -4.941564   -7.078514    1.271353
    133          8           0       -7.804159    6.996300   -0.448006
    134          1           0       -8.831363    6.289889   -2.240691
 ---------------------------------------------------------------------

 SCF Done:  E(RCAM-B3LYP) =  -3043.40334093     A.U. after   16 cycles

 Excitation energies and oscillator strengths:

 Excited State   1:      Singlet-A      1.9404 eV  638.95 nm  f=0.1972  <S**2>=0.000
     243 -> 246        0.22795
     244 -> 245        0.66111
 This state for optimization and/or second-order correction.
 Total Energy, E(TD-HF/TD-KS) =  -3043.33203144
 Copying the excited state density for this state as the 1-particle RhoCI density.

 The electronic state is 1-A.
 Alpha  occ. eigenvalues --  -46.82799 -19.24021 -19.22025 -19.18738 -19.17818
 Alpha  occ. eigenvalues --  -19.17330 -19.17052 -19.15846 -14.38872 -14.37921
 Alpha  occ. eigenvalues --  -14.37707 -14.36202 -10.36457 -10.34431 -10.31123
 Alpha  occ. eigenvalues --  -10.30883 -10.28803 -10.28616 -10.28056 -10.27828
 Alpha  occ. eigenvalues --  -10.27642 -10.27366 -10.27307 -10.27230 -10.27211
 Alpha  occ. eigenvalues --  -10.26900 -10.25961 -10.25847 -10.25799 -10.24813
 Alpha  occ. eigenvalues --  -10.24256 -10.24165 -10.24146 -10.24046 -10.23965
 Alpha  occ. eigenvalues --  -10.23945 -10.23916 -10.23649 -10.23512 -10.23413
 Alpha  occ. eigenvalues --  -10.23412 -10.23114 -10.22931 -10.22582 -10.22509
 Alpha  occ. eigenvalues --  -10.22478 -10.22371 -10.22265 -10.22163 -10.22105
 Alpha  occ. eigenvalues --  -10.22061 -10.22004 -10.21906 -10.21871 -10.21864
 Alpha  occ. eigenvalues --  -10.21634 -10.21395 -10.21359 -10.21177 -10.20930
 Alpha  occ. eigenvalues --  -10.20858 -10.20822 -10.20479 -10.20368 -10.18747
 Alpha  occ. eigenvalues --  -10.18137  -3.11182  -1.86140  -1.85663  -1.85563
 Alpha  occ. eigenvalues --   -1.16166  -1.15863  -1.08832  -1.08293  -1.07470
 Alpha  occ. eigenvalues --   -1.07229  -1.06458  -1.02619  -1.01608  -0.99747
 Alpha  occ. eigenvalues --   -0.98904  -0.89431  -0.86680  -0.85757  -0.85727
 Alpha  occ. eigenvalues --   -0.85461  -0.84715  -0.84512  -0.83973  -0.83229
 Alpha  occ. eigenvalues --   -0.82808  -0.82543  -0.81013  -0.80595  -0.80041
 Alpha  occ. eigenvalues --   -0.79036  -0.78756  -0.78345  -0.78090  -0.76369
 Alpha  occ. eigenvalues --   -0.75895  -0.75367  -0.73984  -0.73811  -0.72786
 Alpha  occ. eigenvalues --   -0.71303  -0.70848  -0.70321  -0.69924  -0.69720
 Alpha  occ. eigenvalues --   -0.69237  -0.68577  -0.67087  -0.66944  -0.65727
 Alpha  occ. eigenvalues --   -0.65534  -0.64365  -0.64152  -0.62348  -0.62017
 Alpha  occ. eigenvalues --   -0.61966  -0.61419  -0.60519  -0.59255  -0.58832
 Alpha  occ. eigenvalues --   -0.58447  -0.57885  -0.57532  -0.57231  -0.57005
 Alpha  occ. eigenvalues --   -0.56772  -0.56318  -0.55587  -0.55080  -0.54678
 Alpha  occ. eigenvalues --   -0.54328  -0.53645  -0.53042  -0.52689  -0.52471
 Alpha  occ. eigenvalues --   -0.52194  -0.51743  -0.51624  -0.51440  -0.51198
 Alpha  occ. eigenvalues --   -0.50883  -0.50287  -0.49983  -0.49874  -0.49751
 Alpha  occ. eigenvalues --   -0.49396  -0.49281  -0.49088  -0.48418  -0.48101
 Alpha  occ. eigenvalues --   -0.47904  -0.47808  -0.47668  -0.47531  -0.47221
 Alpha  occ. eigenvalues --   -0.46746  -0.46652  -0.46532  -0.46241  -0.46029
 Alpha  occ. eigenvalues --   -0.45857  -0.45782  -0.45508  -0.45407  -0.44996
 Alpha  occ. eigenvalues --   -0.44897  -0.44724  -0.44646  -0.44365  -0.44313
 Alpha  occ. eigenvalues --   -0.43985  -0.43566  -0.43555  -0.43093  -0.43052
 Alpha  occ. eigenvalues --   -0.42840  -0.42674  -0.42289  -0.42248  -0.42226
 Alpha  occ. eigenvalues --   -0.42022  -0.41831  -0.41741  -0.41524  -0.41122
 Alpha  occ. eigenvalues --   -0.40963  -0.40845  -0.40685  -0.40572  -0.40268
 Alpha  occ. eigenvalues --   -0.40210  -0.40058  -0.39606  -0.39496  -0.39438
 Alpha  occ. eigenvalues --   -0.39145  -0.38786  -0.38677  -0.37962  -0.37934
 Alpha  occ. eigenvalues --   -0.37724  -0.37678  -0.37535  -0.36930  -0.36844
 Alpha  occ. eigenvalues --   -0.36788  -0.36439  -0.36153  -0.35886  -0.35795
 Alpha  occ. eigenvalues --   -0.35474  -0.35289  -0.34909  -0.34570  -0.34495
 Alpha  occ. eigenvalues --   -0.34354  -0.33873  -0.33668  -0.33608  -0.33348
 Alpha  occ. eigenvalues --   -0.33092  -0.32548  -0.32276  -0.31892  -0.31722
 Alpha  occ. eigenvalues --   -0.31292  -0.30965  -0.30793  -0.30375  -0.29274
 Alpha  occ. eigenvalues --   -0.28939  -0.28747  -0.28538  -0.28243  -0.27650
 Alpha  occ. eigenvalues --   -0.26944  -0.26425  -0.23651  -0.21428
 Alpha virt. eigenvalues --   -0.09093  -0.07227  -0.01355   0.00579   0.01019
 Alpha virt. eigenvalues --    0.02675   0.03513   0.03629   0.04626   0.05223
 Alpha virt. eigenvalues --    0.05724   0.06154   0.07939   0.08180   0.08816

 Mulliken charges:
               1
     1  Mg   0.834422
     2  C    0.103583
     3  C   -0.202196
     4  C   -0.155878
     5  C   -0.155349
     6  N   -0.659446
     7  C    0.279851
     8  C   -0.134034
     9  C   -0.131400
    10  C    0.354194
    11  C   -0.309292
    12  C   -0.183317
    13  C   -0.262050
    14  C    0.598846
    15  O   -0.401508
    16  O   -0.458929
    17  N   -0.688385
    18  C    0.269993
    19  C    0.058522
    20  C   -0.012636
    21  C    0.297928
    22  C   -0.363869
    23  C    0.198490
    24  O   -0.404540
    25  N   -0.709935
    26  C    0.363182
    27  C   -0.057400
    28  C    0.055106
    29  C    0.235378
    30  C    0.257209
    31  C   -0.270635
    32  C   -0.296021
    33  N   -0.696363
    34  C    0.305831
    35  C    0.028033
    36  C    0.052843
    37  C    0.270750
    38  C   -0.400247
    39  C    0.319632
    40  O   -0.442356
    41  C   -0.318392
    42  C    0.611597
    43  O   -0.451861
    44  O   -0.409204
    45  C   -0.091985
    46  C   -0.014689
    47  C   -0.134190
    48  C    0.116771
    49  C   -0.367234
    50  C   -0.209849
    51  C   -0.177302
    52  C   -0.153469
    53  C   -0.065657
    54  C   -0.312326
    55  C   -0.155503
    56  C   -0.183135
    57  C   -0.138586
    58  C   -0.049974
    59  C   -0.310481
    60  C   -0.183835
    61  C   -0.154263
    62  C   -0.168703
    63  C   -0.064112
    64  C   -0.293625
    65  C   -0.327020
    66  H    0.084657
    67  H    0.156517
    68  H    0.095037
    69  H    0.130643
    70  H    0.101845
    71  H    0.095510
    72  H    0.124809
    73  H    0.097856
    74  H    0.082801
    75  H    0.123043
    76  H    0.134929
    77  H    0.114344
    78  H    0.126662
    79  H    0.156962
    80  H    0.119994
    81  H    0.045715
    82  H    0.072325
    83  H    0.122583
    84  H    0.112849
    85  H    0.121411
    86  H    0.120126
    87  H    0.140944
    88  H    0.155107
    89  H    0.127036
    90  H    0.164976
    91  H    0.119804
    92  H    0.090319
    93  H    0.076729
    94  H    0.158666
    95  H    0.100445
    96  H    0.128263
    97  H    0.102288
    98  H    0.087160
    99  H    0.072108
   100  H    0.104927
   101  H    0.086226
   102  H    0.104621
   103  H    0.069721
   104  H    0.106714
   105  H    0.104872
   106  H    0.077093
   107  H    0.065506
   108  H    0.086643
   109  H    0.070854
   110  H    0.068876
   111  H    0.094704
   112  H    0.067380
   113  H    0.078337
   114  H    0.098475
   115  H    0.093876
   116  H    0.085321
   117  H    0.092299
   118  H    0.082599
   119  H    0.100243
   120  H    0.105913
   121  H    0.050527
   122  H    0.087896
   123  H    0.090084
   124  H    0.103056
   125  H    0.103641
   126  H    0.082322
   127  H    0.103077
   128  H    0.110790
   129  H    0.097610
   130  H    0.128397
   131  H    0.118773
   132  H    0.139711
   133  O   -0.429573
   134  H    0.023049
 Sum of Mulliken charges =   0.00000

 Dipole moment (field-independent basis, Debye):
    X=              1.7756    Y=             -7.3081    Z=             -1.9132  Tot=              7.7602
 Quadrupole moment (field-independent basis, Debye-Ang):
   XX=           -376.9551   YY=           -449.8417   ZZ=           -394.9102
   XY=             20.5844   XZ=             24.7650   YZ=            -29.1750

 Normal termination of Gaussian 09 at Tue Oct  8 07:41:35 2019.
