 Gaussian 09, Revision D.01,
 Gaussian 09:  ES64L-G09RevD.01 24-Apr-2013

 ----------------------------------------------------------------------
 # td=(NStates=1) iop(3/107=0140000000,3/108=0140000000) iop(3/107=0140
 000000,3/108=0140000000) CAM-B3LYP/6-31G(d,p)
 ----------------------------------------------------------------------

 --
 TD
 --
 Symbolic Z-matrix:
 Charge =  0 Multiplicity = 1

                         Standard orientation:
 ---------------------------------------------------------------------
 Center     Atomic      Atomic             Coordinates (Angstroms)
 Number     Number       Type             X           Y           Z
 ---------------------------------------------------------------------
      1         12           0       -5.644833    1.197582    0.215484
      2          6           0       -4.979068   -2.099713   -0.339746
      3          6           0       -3.366622    1.141428    2.684205
      4          6           0       -6.167944    4.582380    0.612599
      5          6           0       -8.113606    1.128564   -2.175962
      6          7           0       -4.310627   -0.286821    1.143587
      7          6           0       -4.266522   -1.554502    0.729467
      8          6           0       -3.149398   -2.338264    1.492893
      9          6           0       -2.847120   -1.333683    2.529748
     10          6           0       -3.515060   -0.082955    2.161690
     11          6           0       -3.276871   -1.734154    3.873679
     12          6           0       -1.987253   -2.778325    0.609626
     13          6           0       -0.915227   -3.568237    1.378142
     14          6           0        0.376612   -3.884229    0.579605
     15          8           0        0.597242   -3.512739   -0.563343
     16          8           0        1.128483   -4.688354    1.220635
     17          7           0       -4.957730    2.626108    1.378309
     18          6           0       -4.006377    2.402160    2.369725
     19          6           0       -3.654753    3.663455    2.972153
     20          6           0       -4.461415    4.691330    2.486856
     21          6           0       -5.262970    3.987687    1.503079
     22          6           0       -2.641022    3.745438    4.051754
     23          6           0       -4.484984    5.969369    2.881548
     24          8           0       -3.843356    6.554846    3.733444
     25          7           0       -6.994604    2.587613   -0.656442
     26          6           0       -7.110439    3.991638   -0.288992
     27          6           0       -8.149337    4.584172   -1.116633
     28          6           0       -8.588440    3.601390   -1.988368
     29          6           0       -7.913455    2.409607   -1.649169
     30          6           0       -8.373817    5.987328   -1.155695
     31          6           0       -9.656955    3.733331   -3.085510
     32          6           0       -9.007401    3.907656   -4.458165
     33          7           0       -6.365597   -0.036353   -1.045475
     34          6           0       -7.473672   -0.108597   -2.073777
     35          6           0       -7.713604   -1.433081   -2.539201
     36          6           0       -6.757683   -2.133764   -1.917170
     37          6           0       -6.031074   -1.321316   -1.037930
     38          6           0       -8.588968   -1.825407   -3.692920
     39          6           0       -6.205271   -3.508878   -1.933918
     40          8           0       -6.726612   -4.498152   -2.541844
     41          6           0       -5.070512   -3.542386   -0.880613
     42          6           0       -5.348485   -4.620556    0.118955
     43          8           0       -5.824087   -4.348984    1.235930
     44          8           0       -4.936996   -5.799324   -0.286694
     45          6           0       -5.353134   -6.917085    0.529690
     46          6           0        2.382900   -5.171248    0.455593
     47          6           0        3.554848   -4.268605    0.828286
     48          6           0        4.131422   -3.290640    0.062480
     49          6           0        3.741233   -3.032067   -1.305445
     50          6           0        5.181112   -2.360420    0.629825
     51          6           0        6.531871   -2.717811   -0.026345
     52          6           0        7.703234   -1.884874    0.782061
     53          6           0        9.050940   -1.951044    0.114351
     54          6           0        9.732790   -3.305755    0.228276
     55          6           0       10.037376   -0.765417    0.572864
     56          6           0       11.359789   -0.717790   -0.210802
     57          6           0       12.255647    0.429540    0.219063
     58          6           0       13.516695    0.516170   -0.702055
     59          6           0       14.407370   -0.695706   -0.392921
     60          6           0       14.277328    1.823600   -0.238549
     61          6           0       15.556480    2.134009   -1.079289
     62          6           0       15.987590    3.505655   -0.734796
     63          6           0       17.330870    3.896301   -1.380446
     64          6           0       17.088196    3.928422   -2.894290
     65          6           0       17.871771    5.208175   -0.738619
     66          1           0       -2.735894    1.257696    3.620305
     67          1           0       -6.563894    5.662249    0.672833
     68          1           0       -8.979139    0.890584   -3.027790
     69          1           0       -3.562288   -3.360850    1.912470
     70          1           0       -1.856641   -1.078642    2.766161
     71          1           0       -2.762731   -2.576583    4.192648
     72          1           0       -2.939297   -1.073081    4.762634
     73          1           0       -4.286502   -2.025567    4.049585
     74          1           0       -2.434036   -3.479567   -0.275087
     75          1           0       -1.745402   -1.783075    0.132358
     76          1           0       -0.578036   -2.929627    2.194121
     77          1           0       -1.297619   -4.421946    2.065152
     78          1           0       -1.490430    3.723139    3.566121
     79          1           0       -2.773878    4.798881    4.543179
     80          1           0       -2.586901    3.243087    4.918007
     81          1           0       -5.278809    6.787639    2.392760
     82          1           0      -10.454315    3.039235   -3.058749
     83          1           0      -10.265044    4.745723   -2.787277
     84          1           0       -9.822686    3.968959   -5.195642
     85          1           0       -8.513424    4.853274   -4.448579
     86          1           0       -8.392872    2.902570   -4.604634
     87          1           0       -8.248496   -1.305113   -4.638358
     88          1           0       -8.699804   -2.933551   -4.056775
     89          1           0       -9.558467   -1.456106   -3.530367
     90          1           0       -4.084494   -3.585294   -1.486467
     91          1           0        2.378836   -6.259870    0.880282
     92          1           0        2.173113   -5.172958   -0.575883
     93          1           0        3.934083   -4.594593    1.974548
     94          1           0        2.579634   -2.839850   -1.479544
     95          1           0        4.149049   -2.107746   -1.619822
     96          1           0        4.190921   -3.918640   -2.202100
     97          1           0        5.112752   -1.370806    0.395697
     98          1           0        5.251336   -2.764831    1.775218
     99          1           0        6.993053   -3.779869   -0.019806
    100          1           0        6.645598   -2.484612   -1.004123
    101          1           0        7.293782   -0.867250    0.759630
    102          1           0        7.721139   -2.369856    1.914570
    103          1           0        8.793520   -1.788470   -1.116180
    104          1           0        9.186095   -4.277428   -0.216141
    105          1           0       10.763771   -3.183456   -0.242293
    106          1           0        9.995587   -3.514565    1.299763
    107          1           0        9.434383    0.292752    0.328369
    108          1           0       10.237838   -1.157307    1.690270
    109          1           0       12.033790   -1.673672   -0.040425
    110          1           0       11.147915   -0.540961   -1.259628
    111          1           0       11.629624    1.398177    0.256172
    112          1           0       12.538914    0.333360    1.276870
    113          1           0       13.316844    0.459098   -1.650903
    114          1           0       14.715425   -0.803200    0.607343
    115          1           0       13.845141   -1.691261   -0.604101
    116          1           0       15.219737   -0.517907   -1.034911
    117          1           0       13.559581    2.674184   -0.459611
    118          1           0       14.471759    1.921553    0.784059
    119          1           0       16.226254    1.390785   -1.052399
    120          1           0       15.140993    2.210081   -2.024843
    121          1           0       15.142659    4.258201   -0.923246
    122          1           0       16.211074    3.380680    0.522707
    123          1           0       17.990042    3.107099   -1.152296
    124          1           0       16.281020    4.492782   -3.267727
    125          1           0       18.076024    4.373256   -3.319375
    126          1           0       17.232462    2.836029   -3.459902
    127          1           0       18.109374    5.292852    0.293807
    128          1           0       18.868412    5.517331   -1.341719
    129          1           0       17.077986    5.991579   -0.833767
    130          1           0       -4.667594   -7.778941   -0.068828
    131          1           0       -6.446762   -7.167208    0.322533
    132          1           0       -5.084337   -6.635235    1.689703
    133          8           0       -7.920873    6.842177   -0.473051
    134          1           0       -9.037934    6.332320   -1.932161
 ---------------------------------------------------------------------

 SCF Done:  E(RCAM-B3LYP) =  -3043.41506742     A.U. after   15 cycles

 Excitation energies and oscillator strengths:

 Excited State   1:      Singlet-A      2.0366 eV  608.78 nm  f=0.1348  <S**2>=0.000
     243 -> 245       -0.13350
     243 -> 246       -0.26980
     244 -> 245        0.61984
     244 -> 246       -0.11483
 This state for optimization and/or second-order correction.
 Total Energy, E(TD-HF/TD-KS) =  -3043.34022337
 Copying the excited state density for this state as the 1-particle RhoCI density.

 The electronic state is 1-A.
 Alpha  occ. eigenvalues --  -46.81010 -19.24219 -19.22405 -19.17653 -19.17421
 Alpha  occ. eigenvalues --  -19.16814 -19.15878 -19.15661 -14.38291 -14.37546
 Alpha  occ. eigenvalues --  -14.36981 -14.36505 -10.35933 -10.34386 -10.32251
 Alpha  occ. eigenvalues --  -10.30979 -10.29385 -10.29145 -10.28805 -10.27505
 Alpha  occ. eigenvalues --  -10.27199 -10.27167 -10.27068 -10.26379 -10.26321
 Alpha  occ. eigenvalues --  -10.26276 -10.26236 -10.26061 -10.25884 -10.25866
 Alpha  occ. eigenvalues --  -10.25026 -10.24666 -10.24578 -10.24530 -10.24263
 Alpha  occ. eigenvalues --  -10.24224 -10.24077 -10.24036 -10.23968 -10.23908
 Alpha  occ. eigenvalues --  -10.23802 -10.23646 -10.23488 -10.23005 -10.22975
 Alpha  occ. eigenvalues --  -10.22878 -10.22802 -10.22746 -10.22705 -10.22550
 Alpha  occ. eigenvalues --  -10.22346 -10.22293 -10.21990 -10.21975 -10.21907
 Alpha  occ. eigenvalues --  -10.21840 -10.21650 -10.21423 -10.21415 -10.21246
 Alpha  occ. eigenvalues --  -10.21092 -10.20666 -10.20516 -10.20197 -10.19589
 Alpha  occ. eigenvalues --  -10.18528  -3.09804  -1.84708  -1.84309  -1.84221
 Alpha  occ. eigenvalues --   -1.15216  -1.14340  -1.08701  -1.06064  -1.04677
 Alpha  occ. eigenvalues --   -1.04386  -1.03306  -1.02629  -0.99664  -0.99118
 Alpha  occ. eigenvalues --   -0.97677  -0.88079  -0.87073  -0.86339  -0.85591
 Alpha  occ. eigenvalues --   -0.85498  -0.84460  -0.84404  -0.84113  -0.84024
 Alpha  occ. eigenvalues --   -0.83565  -0.82900  -0.81841  -0.80459  -0.79698
 Alpha  occ. eigenvalues --   -0.79168  -0.78591  -0.77619  -0.77099  -0.76773
 Alpha  occ. eigenvalues --   -0.75499  -0.75466  -0.74216  -0.72963  -0.72839
 Alpha  occ. eigenvalues --   -0.70542  -0.70350  -0.69821  -0.69801  -0.69677
 Alpha  occ. eigenvalues --   -0.69187  -0.68398  -0.67856  -0.67210  -0.66144
 Alpha  occ. eigenvalues --   -0.65516  -0.64483  -0.64117  -0.62740  -0.62186
 Alpha  occ. eigenvalues --   -0.61952  -0.60913  -0.60189  -0.59567  -0.58891
 Alpha  occ. eigenvalues --   -0.58883  -0.58402  -0.58154  -0.57535  -0.56442
 Alpha  occ. eigenvalues --   -0.56266  -0.56184  -0.55665  -0.55383  -0.55170
 Alpha  occ. eigenvalues --   -0.54067  -0.53307  -0.52709  -0.52562  -0.52393
 Alpha  occ. eigenvalues --   -0.51801  -0.51577  -0.51172  -0.50742  -0.50618
 Alpha  occ. eigenvalues --   -0.50505  -0.50102  -0.49799  -0.49302  -0.48870
 Alpha  occ. eigenvalues --   -0.48696  -0.48407  -0.48230  -0.47878  -0.47647
 Alpha  occ. eigenvalues --   -0.47517  -0.47395  -0.47038  -0.46699  -0.46580
 Alpha  occ. eigenvalues --   -0.46332  -0.46112  -0.46064  -0.45953  -0.45827
 Alpha  occ. eigenvalues --   -0.45402  -0.45178  -0.45015  -0.45006  -0.44647
 Alpha  occ. eigenvalues --   -0.44482  -0.44211  -0.43753  -0.43625  -0.43353
 Alpha  occ. eigenvalues --   -0.43252  -0.43214  -0.42743  -0.42638  -0.42460
 Alpha  occ. eigenvalues --   -0.42244  -0.42120  -0.41931  -0.41768  -0.41611
 Alpha  occ. eigenvalues --   -0.41380  -0.41061  -0.40850  -0.40726  -0.40583
 Alpha  occ. eigenvalues --   -0.40409  -0.40237  -0.40216  -0.39848  -0.39629
 Alpha  occ. eigenvalues --   -0.39423  -0.39289  -0.39196  -0.39140  -0.39017
 Alpha  occ. eigenvalues --   -0.38655  -0.38601  -0.38489  -0.38272  -0.37952
 Alpha  occ. eigenvalues --   -0.37757  -0.37516  -0.37405  -0.37317  -0.37116
 Alpha  occ. eigenvalues --   -0.36945  -0.36631  -0.36562  -0.36459  -0.35845
 Alpha  occ. eigenvalues --   -0.35705  -0.35604  -0.35128  -0.34829  -0.34772
 Alpha  occ. eigenvalues --   -0.34511  -0.34059  -0.33869  -0.33607  -0.33518
 Alpha  occ. eigenvalues --   -0.33022  -0.32500  -0.32471  -0.32141  -0.31338
 Alpha  occ. eigenvalues --   -0.31227  -0.31080  -0.30351  -0.29797  -0.29591
 Alpha  occ. eigenvalues --   -0.29384  -0.28581  -0.28216  -0.27787  -0.27456
 Alpha  occ. eigenvalues --   -0.26747  -0.25980  -0.22799  -0.22052
 Alpha virt. eigenvalues --   -0.08869  -0.06823  -0.01803  -0.00837   0.00673
 Alpha virt. eigenvalues --    0.01116   0.02628   0.03857   0.04270   0.04762
 Alpha virt. eigenvalues --    0.05076   0.06181   0.07795   0.08423   0.08781

 Mulliken charges:
               1
     1  Mg   0.828894
     2  C    0.014916
     3  C   -0.227961
     4  C   -0.180588
     5  C   -0.190759
     6  N   -0.651460
     7  C    0.320672
     8  C   -0.160936
     9  C   -0.141338
    10  C    0.431220
    11  C   -0.326462
    12  C   -0.141401
    13  C   -0.278475
    14  C    0.605924
    15  O   -0.498019
    16  O   -0.439582
    17  N   -0.702864
    18  C    0.329541
    19  C    0.036603
    20  C    0.142635
    21  C    0.263903
    22  C   -0.410031
    23  C    0.149386
    24  O   -0.418990
    25  N   -0.650199
    26  C    0.232844
    27  C   -0.020955
    28  C    0.050575
    29  C    0.321096
    30  C    0.247404
    31  C   -0.250944
    32  C   -0.292952
    33  N   -0.737707
    34  C    0.196985
    35  C    0.071903
    36  C    0.029850
    37  C    0.375299
    38  C   -0.389368
    39  C    0.355583
    40  O   -0.484861
    41  C   -0.302547
    42  C    0.641466
    43  O   -0.492955
    44  O   -0.414848
    45  C   -0.090886
    46  C   -0.018106
    47  C   -0.126923
    48  C    0.170888
    49  C   -0.374339
    50  C   -0.215388
    51  C   -0.199235
    52  C   -0.151171
    53  C   -0.035951
    54  C   -0.308685
    55  C   -0.158720
    56  C   -0.165290
    57  C   -0.165988
    58  C   -0.050614
    59  C   -0.311437
    60  C   -0.182378
    61  C   -0.166944
    62  C   -0.150600
    63  C   -0.035901
    64  C   -0.311050
    65  C   -0.305167
    66  H    0.081676
    67  H    0.141806
    68  H    0.064712
    69  H    0.111378
    70  H    0.114513
    71  H    0.112134
    72  H    0.093837
    73  H    0.131248
    74  H    0.089259
    75  H    0.113847
    76  H    0.135548
    77  H    0.126225
    78  H    0.099557
    79  H    0.146536
    80  H    0.140218
    81  H    0.043019
    82  H    0.123979
    83  H    0.082480
    84  H    0.110333
    85  H    0.127159
    86  H    0.101673
    87  H    0.133583
    88  H    0.152415
    89  H    0.133091
    90  H    0.168657
    91  H    0.114039
    92  H    0.152939
    93  H    0.067381
    94  H    0.159922
    95  H    0.111581
    96  H    0.074556
    97  H    0.118454
    98  H    0.093794
    99  H    0.090293
   100  H    0.112391
   101  H    0.084894
   102  H    0.063550
   103  H    0.037355
   104  H    0.092246
   105  H    0.102012
   106  H    0.095299
   107  H    0.074647
   108  H    0.080097
   109  H    0.083847
   110  H    0.096894
   111  H    0.066495
   112  H    0.088575
   113  H    0.087984
   114  H    0.109735
   115  H    0.080837
   116  H    0.102424
   117  H    0.074829
   118  H    0.095950
   119  H    0.100311
   120  H    0.103042
   121  H    0.082497
   122  H    0.031442
   123  H    0.095971
   124  H    0.117276
   125  H    0.085848
   126  H    0.084235
   127  H    0.116075
   128  H    0.073160
   129  H    0.095241
   130  H    0.113679
   131  H    0.148417
   132  H    0.136579
   133  O   -0.408957
   134  H    0.046672
 Sum of Mulliken charges =   0.00000

 Dipole moment (field-independent basis, Debye):
    X=              2.8603    Y=             -6.5704    Z=             -1.7204  Tot=              7.3696
 Quadrupole moment (field-independent basis, Debye-Ang):
   XX=           -367.2045   YY=           -442.2361   ZZ=           -393.3738
   XY=             16.0697   XZ=             21.4607   YZ=            -34.5624

 Normal termination of Gaussian 09 at Fri Oct  4 18:46:21 2019.
