 Gaussian 09, Revision D.01,
 Gaussian 09:  ES64L-G09RevD.01 24-Apr-2013

 ----------------------------------------------------------------------
 # td=(NStates=1) iop(3/107=0140000000,3/108=0140000000) iop(3/107=0140
 000000,3/108=0140000000) CAM-B3LYP/6-31G(d,p)
 ----------------------------------------------------------------------

 --
 TD
 --
 Symbolic Z-matrix:
 Charge =  0 Multiplicity = 1

                         Standard orientation:
 ---------------------------------------------------------------------
 Center     Atomic      Atomic             Coordinates (Angstroms)
 Number     Number       Type             X           Y           Z
 ---------------------------------------------------------------------
      1         12           0       -5.618692    1.302477    0.156595
      2          6           0       -5.076405   -2.232255   -0.345948
      3          6           0       -3.361831    1.170520    2.576153
      4          6           0       -6.221551    4.531116    0.717693
      5          6           0       -8.097495    1.151551   -2.305506
      6          7           0       -4.361472   -0.370122    0.936021
      7          6           0       -4.249723   -1.652188    0.571350
      8          6           0       -3.186538   -2.371691    1.425257
      9          6           0       -2.833363   -1.361405    2.608362
     10          6           0       -3.538024   -0.101794    1.979691
     11          6           0       -3.329799   -1.700363    3.928325
     12          6           0       -1.835753   -2.647507    0.661168
     13          6           0       -0.902279   -3.585972    1.403122
     14          6           0        0.301657   -3.892711    0.685754
     15          8           0        0.571964   -3.597461   -0.552411
     16          8           0        1.128412   -4.654585    1.357047
     17          7           0       -4.843335    2.606628    1.468124
     18          6           0       -3.993347    2.397181    2.447491
     19          6           0       -3.712714    3.602711    3.229559
     20          6           0       -4.522584    4.509226    2.539452
     21          6           0       -5.253296    3.933564    1.492108
     22          6           0       -2.745529    3.701097    4.389680
     23          6           0       -4.538709    6.000498    2.886675
     24          8           0       -3.899597    6.532300    3.743195
     25          7           0       -6.941912    2.656829   -0.666333
     26          6           0       -7.088864    3.982813   -0.291274
     27          6           0       -8.018797    4.551158   -1.099483
     28          6           0       -8.447858    3.657987   -2.019631
     29          6           0       -7.825953    2.452119   -1.679090
     30          6           0       -8.371744    6.070216   -1.058959
     31          6           0       -9.626750    3.845044   -3.070350
     32          6           0       -9.009616    3.889572   -4.414739
     33          7           0       -6.345009   -0.075911   -1.152400
     34          6           0       -7.415510   -0.051191   -2.073675
     35          6           0       -7.525556   -1.281823   -2.666988
     36          6           0       -6.713477   -2.106702   -2.083682
     37          6           0       -5.936608   -1.413014   -1.183228
     38          6           0       -8.606043   -1.545180   -3.688219
     39          6           0       -6.339614   -3.556445   -2.139247
     40          8           0       -6.594902   -4.593760   -2.721761
     41          6           0       -5.127719   -3.572023   -1.019354
     42          6           0       -5.292356   -4.658386    0.075916
     43          8           0       -5.636915   -4.402360    1.172991
     44          8           0       -4.938562   -5.883873   -0.326104
     45          6           0       -5.187201   -6.961141    0.608871
     46          6           0        2.337650   -5.095143    0.641210
     47          6           0        3.439230   -4.146443    1.013372
     48          6           0        4.143115   -3.277710    0.143399
     49          6           0        3.612058   -2.937230   -1.285150
     50          6           0        5.212917   -2.380151    0.754091
     51          6           0        6.515007   -2.604027    0.061880
     52          6           0        7.719383   -1.810233    0.653385
     53          6           0        9.114879   -2.011616    0.028522
     54          6           0        9.611268   -3.415431    0.216238
     55          6           0       10.029922   -0.897215    0.465318
     56          6           0       11.364323   -0.944147   -0.167455
     57          6           0       12.223657    0.390422    0.220734
     58          6           0       13.455532    0.489722   -0.617951
     59          6           0       14.439600   -0.772250   -0.525395
     60          6           0       14.199266    1.796468   -0.217654
     61          6           0       15.337785    2.202775   -1.057755
     62          6           0       16.001702    3.582722   -0.613643
     63          6           0       17.270823    3.895890   -1.447469
     64          6           0       16.937568    4.159020   -2.896230
     65          6           0       17.941059    5.336254   -0.863862
     66          1           0       -2.652707    0.955269    3.519177
     67          1           0       -6.503409    5.546301    0.965842
     68          1           0       -8.840411    1.174834   -3.132495
     69          1           0       -3.691583   -3.307325    1.754816
     70          1           0       -1.843944   -1.268907    2.493540
     71          1           0       -2.730505   -2.551069    4.139218
     72          1           0       -3.214276   -1.077412    4.777866
     73          1           0       -4.366450   -2.072809    3.492233
     74          1           0       -1.894748   -3.077136   -0.256264
     75          1           0       -1.304834   -1.717727    0.456693
     76          1           0       -0.822470   -3.133176    2.544049
     77          1           0       -1.235546   -4.654361    1.512521
     78          1           0       -1.775653    3.559518    3.677972
     79          1           0       -2.754643    4.727694    4.680237
     80          1           0       -2.735926    2.696433    5.012100
     81          1           0       -5.513976    6.499127    2.451548
     82          1           0      -10.300146    2.929322   -3.031361
     83          1           0      -10.255328    4.662140   -2.795160
     84          1           0       -9.727489    3.710448   -5.119605
     85          1           0       -8.414686    4.820681   -4.394906
     86          1           0       -8.351863    3.029868   -4.641199
     87          1           0       -8.335029   -1.074608   -4.595536
     88          1           0       -8.411997   -2.799466   -3.829767
     89          1           0       -9.528577   -1.437188   -3.451106
     90          1           0       -4.323677   -3.886761   -1.569106
     91          1           0        2.619124   -6.002192    1.265548
     92          1           0        2.152282   -5.198983   -0.510637
     93          1           0        3.903295   -4.293747    2.057794
     94          1           0        2.609007   -3.260397   -1.387194
     95          1           0        3.909611   -1.679537   -1.392466
     96          1           0        4.300195   -3.326132   -1.919691
     97          1           0        4.676460   -1.358394    0.826716
     98          1           0        5.584793   -2.601204    1.743299
     99          1           0        6.810455   -3.696596    0.151829
    100          1           0        6.306094   -2.228312   -0.995660
    101          1           0        7.425478   -0.780936    0.728567
    102          1           0        7.703292   -2.020019    1.568953
    103          1           0        8.822992   -1.815124   -1.113422
    104          1           0        8.740069   -4.075355   -0.084083
    105          1           0       10.349966   -3.811437   -0.662125
    106          1           0        9.889240   -3.658689    1.199774
    107          1           0        9.532461   -0.067272    0.303638
    108          1           0       10.287520   -0.946927    1.567465
    109          1           0       12.041192   -1.893123   -0.181345
    110          1           0       11.282960   -0.863564   -1.397518
    111          1           0       11.602599    1.231375    0.054138
    112          1           0       12.586367    0.241979    1.386659
    113          1           0       13.167902    0.678959   -1.730045
    114          1           0       14.688270   -0.786603    0.667441
    115          1           0       13.860014   -1.673367   -0.933349
    116          1           0       15.412525   -0.562395   -1.059306
    117          1           0       13.526129    2.427222   -0.294990
    118          1           0       14.579883    1.713235    0.875215
    119          1           0       16.000766    1.273857   -1.183055
    120          1           0       14.915012    2.439927   -2.148588
    121          1           0       15.105016    4.436317   -0.510593
    122          1           0       16.443365    3.491823    0.385951
    123          1           0       17.953397    3.111177   -1.239040
    124          1           0       16.115354    4.938612   -3.069017
    125          1           0       17.952262    4.206713   -3.384670
    126          1           0       16.486096    3.285981   -3.190807
    127          1           0       18.105929    5.100377    0.062515
    128          1           0       19.059058    5.494252   -1.173820
    129          1           0       17.397376    6.200610   -1.222838
    130          1           0       -4.817991   -7.807689    0.105556
    131          1           0       -6.221392   -6.921114    0.873977
    132          1           0       -4.573501   -7.054144    1.481357
    133          8           0       -7.914636    6.880624   -0.272007
    134          1           0       -9.275540    6.360821   -1.925096
 ---------------------------------------------------------------------

 SCF Done:  E(RCAM-B3LYP) =  -3043.38202338     A.U. after   15 cycles

 Excitation energies and oscillator strengths:

 Excited State   1:      Singlet-A      2.1802 eV  568.68 nm  f=0.0828  <S**2>=0.000
     243 -> 245       -0.24480
     243 -> 246       -0.31303
     244 -> 245        0.54079
     244 -> 246       -0.19607
 This state for optimization and/or second-order correction.
 Total Energy, E(TD-HF/TD-KS) =  -3043.30190277
 Copying the excited state density for this state as the 1-particle RhoCI density.

 The electronic state is 1-A.
 Alpha  occ. eigenvalues --  -46.81361 -19.22965 -19.22581 -19.18907 -19.18820
 Alpha  occ. eigenvalues --  -19.18102 -19.17002 -19.16111 -14.38427 -14.36356
 Alpha  occ. eigenvalues --  -14.36252 -14.36156 -10.35207 -10.34472 -10.32982
 Alpha  occ. eigenvalues --  -10.32909 -10.30989 -10.28851 -10.27557 -10.26974
 Alpha  occ. eigenvalues --  -10.26715 -10.26422 -10.26029 -10.25888 -10.25726
 Alpha  occ. eigenvalues --  -10.25601 -10.25438 -10.25417 -10.25265 -10.24926
 Alpha  occ. eigenvalues --  -10.24453 -10.24213 -10.23934 -10.23743 -10.23730
 Alpha  occ. eigenvalues --  -10.23599 -10.23550 -10.23446 -10.23358 -10.23326
 Alpha  occ. eigenvalues --  -10.23213 -10.23011 -10.22450 -10.22422 -10.22411
 Alpha  occ. eigenvalues --  -10.22377 -10.22284 -10.22238 -10.22195 -10.22190
 Alpha  occ. eigenvalues --  -10.22166 -10.22083 -10.21914 -10.21870 -10.21864
 Alpha  occ. eigenvalues --  -10.21805 -10.21787 -10.21707 -10.21673 -10.21295
 Alpha  occ. eigenvalues --  -10.20891 -10.19803 -10.19403 -10.19401 -10.18889
 Alpha  occ. eigenvalues --  -10.18652  -3.09865  -1.84812  -1.84335  -1.84267
 Alpha  occ. eigenvalues --   -1.14553  -1.13933  -1.08568  -1.08033  -1.07788
 Alpha  occ. eigenvalues --   -1.06048  -1.01225  -1.00714  -1.00377  -1.00127
 Alpha  occ. eigenvalues --   -0.99305  -0.88041  -0.86815  -0.86331  -0.85157
 Alpha  occ. eigenvalues --   -0.85034  -0.84626  -0.84233  -0.84038  -0.83580
 Alpha  occ. eigenvalues --   -0.83154  -0.82561  -0.82272  -0.80689  -0.79800
 Alpha  occ. eigenvalues --   -0.79492  -0.78543  -0.77927  -0.77468  -0.76714
 Alpha  occ. eigenvalues --   -0.75045  -0.74805  -0.74327  -0.73381  -0.72684
 Alpha  occ. eigenvalues --   -0.71643  -0.70927  -0.70288  -0.70035  -0.69779
 Alpha  occ. eigenvalues --   -0.69346  -0.68878  -0.66764  -0.66288  -0.66050
 Alpha  occ. eigenvalues --   -0.65280  -0.64501  -0.63966  -0.62886  -0.62362
 Alpha  occ. eigenvalues --   -0.61762  -0.60869  -0.60340  -0.58836  -0.58818
 Alpha  occ. eigenvalues --   -0.58259  -0.57968  -0.57636  -0.57247  -0.56503
 Alpha  occ. eigenvalues --   -0.56483  -0.55754  -0.55443  -0.55096  -0.54479
 Alpha  occ. eigenvalues --   -0.53996  -0.53850  -0.52984  -0.52907  -0.52556
 Alpha  occ. eigenvalues --   -0.52334  -0.51987  -0.51290  -0.51022  -0.50671
 Alpha  occ. eigenvalues --   -0.50500  -0.50082  -0.50027  -0.49740  -0.49552
 Alpha  occ. eigenvalues --   -0.49008  -0.48864  -0.48482  -0.48205  -0.48114
 Alpha  occ. eigenvalues --   -0.47934  -0.47661  -0.47533  -0.47387  -0.47241
 Alpha  occ. eigenvalues --   -0.47111  -0.46883  -0.46740  -0.46301  -0.46206
 Alpha  occ. eigenvalues --   -0.46074  -0.45793  -0.45696  -0.45450  -0.44794
 Alpha  occ. eigenvalues --   -0.44484  -0.44288  -0.43994  -0.43744  -0.43661
 Alpha  occ. eigenvalues --   -0.43627  -0.43456  -0.43178  -0.43015  -0.42871
 Alpha  occ. eigenvalues --   -0.42646  -0.42535  -0.42292  -0.42170  -0.42111
 Alpha  occ. eigenvalues --   -0.41926  -0.41713  -0.41533  -0.41240  -0.41137
 Alpha  occ. eigenvalues --   -0.41070  -0.40856  -0.40518  -0.40333  -0.40076
 Alpha  occ. eigenvalues --   -0.39766  -0.39635  -0.39481  -0.39354  -0.39245
 Alpha  occ. eigenvalues --   -0.38927  -0.38669  -0.38353  -0.38297  -0.38275
 Alpha  occ. eigenvalues --   -0.38138  -0.37298  -0.37062  -0.36962  -0.36751
 Alpha  occ. eigenvalues --   -0.36717  -0.36681  -0.36283  -0.35936  -0.35873
 Alpha  occ. eigenvalues --   -0.35304  -0.35189  -0.34840  -0.34335  -0.34075
 Alpha  occ. eigenvalues --   -0.34024  -0.33729  -0.33704  -0.33508  -0.33309
 Alpha  occ. eigenvalues --   -0.32860  -0.32343  -0.31999  -0.31856  -0.31830
 Alpha  occ. eigenvalues --   -0.30953  -0.30901  -0.30270  -0.29760  -0.29714
 Alpha  occ. eigenvalues --   -0.29043  -0.28471  -0.28394  -0.28209  -0.27757
 Alpha  occ. eigenvalues --   -0.27358  -0.26263  -0.22615  -0.22146
 Alpha virt. eigenvalues --   -0.08040  -0.06555  -0.01543  -0.00492   0.00739
 Alpha virt. eigenvalues --    0.01860   0.02882   0.03748   0.04169   0.04436
 Alpha virt. eigenvalues --    0.04908   0.05714   0.08029   0.08484   0.09452

 Mulliken charges:
               1
     1  Mg   0.826755
     2  C    0.097081
     3  C   -0.210051
     4  C   -0.184520
     5  C   -0.171290
     6  N   -0.594545
     7  C    0.319938
     8  C   -0.200303
     9  C   -0.130051
    10  C    0.298817
    11  C   -0.280777
    12  C   -0.179655
    13  C   -0.255787
    14  C    0.615237
    15  O   -0.537929
    16  O   -0.440177
    17  N   -0.741448
    18  C    0.344035
    19  C    0.064812
    20  C   -0.106651
    21  C    0.378991
    22  C   -0.363042
    23  C    0.261501
    24  O   -0.393729
    25  N   -0.708541
    26  C    0.301321
    27  C   -0.052305
    28  C    0.014078
    29  C    0.292514
    30  C    0.272027
    31  C   -0.230350
    32  C   -0.298050
    33  N   -0.722399
    34  C    0.298824
    35  C    0.007676
    36  C    0.055318
    37  C    0.230517
    38  C   -0.361724
    39  C    0.387039
    40  O   -0.443989
    41  C   -0.341679
    42  C    0.610340
    43  O   -0.449909
    44  O   -0.453005
    45  C   -0.091329
    46  C   -0.009934
    47  C   -0.136482
    48  C    0.105294
    49  C   -0.352766
    50  C   -0.217608
    51  C   -0.184406
    52  C   -0.178095
    53  C   -0.045735
    54  C   -0.310951
    55  C   -0.134844
    56  C   -0.185420
    57  C   -0.146146
    58  C   -0.072269
    59  C   -0.297742
    60  C   -0.121333
    61  C   -0.181698
    62  C   -0.157156
    63  C   -0.068805
    64  C   -0.294966
    65  C   -0.314384
    66  H    0.052770
    67  H    0.123855
    68  H    0.089959
    69  H    0.124095
    70  H    0.108589
    71  H    0.111520
    72  H    0.120731
    73  H    0.120802
    74  H    0.129397
    75  H    0.124316
    76  H    0.116813
    77  H    0.146126
    78  H    0.121693
    79  H    0.167153
    80  H    0.128834
    81  H    0.062672
    82  H    0.099487
    83  H    0.116463
    84  H    0.111138
    85  H    0.116439
    86  H    0.107513
    87  H    0.133544
    88  H    0.103373
    89  H    0.142686
    90  H    0.154959
    91  H    0.114968
    92  H    0.144359
    93  H    0.078699
    94  H    0.163438
    95  H    0.067971
    96  H    0.137196
    97  H    0.102811
    98  H    0.094714
    99  H    0.099111
   100  H    0.080148
   101  H    0.083384
   102  H    0.094688
   103  H    0.065777
   104  H    0.094146
   105  H    0.086994
   106  H    0.114444
   107  H    0.100685
   108  H    0.081157
   109  H    0.096413
   110  H    0.047953
   111  H    0.099747
   112  H    0.063807
   113  H    0.068173
   114  H    0.080573
   115  H    0.101377
   116  H    0.102384
   117  H    0.090502
   118  H    0.066823
   119  H    0.078403
   120  H    0.070080
   121  H    0.065280
   122  H    0.088443
   123  H    0.096125
   124  H    0.095377
   125  H    0.096247
   126  H    0.107862
   127  H    0.109874
   128  H    0.070933
   129  H    0.111403
   130  H    0.129076
   131  H    0.139646
   132  H    0.121614
   133  O   -0.400345
   134  H    0.034475
 Sum of Mulliken charges =   0.00000

 Dipole moment (field-independent basis, Debye):
    X=              1.2577    Y=             -4.9687    Z=              0.3139  Tot=              5.1350
 Quadrupole moment (field-independent basis, Debye-Ang):
   XX=           -388.2936   YY=           -434.3792   ZZ=           -396.1862
   XY=              2.7448   XZ=             25.2403   YZ=            -33.8173

 Normal termination of Gaussian 09 at Sat Oct  5 06:05:58 2019.
