 Gaussian 09, Revision D.01,
 Gaussian 09:  ES64L-G09RevD.01 24-Apr-2013

 ----------------------------------------------------------------------
 # td=(NStates=1) iop(3/107=0140000000,3/108=0140000000) iop(3/107=0140
 000000,3/108=0140000000) CAM-B3LYP/6-31G(d,p)
 ----------------------------------------------------------------------

 --
 TD
 --
 Symbolic Z-matrix:
 Charge =  0 Multiplicity = 1

                         Standard orientation:
 ---------------------------------------------------------------------
 Center     Atomic      Atomic             Coordinates (Angstroms)
 Number     Number       Type             X           Y           Z
 ---------------------------------------------------------------------
      1         12           0       -5.541432    1.236316    0.111559
      2          6           0       -4.980775   -2.221655   -0.369382
      3          6           0       -3.480605    1.130194    2.747622
      4          6           0       -6.240671    4.592164    0.598727
      5          6           0       -7.950280    1.182305   -2.397154
      6          7           0       -4.362115   -0.313296    1.025906
      7          6           0       -4.339896   -1.580934    0.658535
      8          6           0       -3.315627   -2.389044    1.570804
      9          6           0       -2.994474   -1.320927    2.673408
     10          6           0       -3.595844   -0.074883    2.082446
     11          6           0       -3.711846   -1.692056    3.986388
     12          6           0       -1.967780   -2.673698    0.667187
     13          6           0       -1.024565   -3.590489    1.462238
     14          6           0        0.249036   -3.826723    0.620369
     15          8           0        0.533591   -3.364156   -0.499597
     16          8           0        1.084594   -4.691427    1.294234
     17          7           0       -4.915855    2.634948    1.459467
     18          6           0       -4.036402    2.473274    2.438824
     19          6           0       -3.871637    3.623227    3.190900
     20          6           0       -4.617934    4.593734    2.604120
     21          6           0       -5.306635    4.020229    1.478776
     22          6           0       -2.795607    3.852419    4.310445
     23          6           0       -4.672334    6.008876    2.965246
     24          8           0       -4.029325    6.491708    3.868214
     25          7           0       -6.844175    2.585859   -0.763520
     26          6           0       -7.037812    3.912682   -0.467443
     27          6           0       -7.967705    4.570964   -1.212852
     28          6           0       -8.401140    3.674869   -2.104100
     29          6           0       -7.711595    2.418421   -1.859880
     30          6           0       -8.419889    5.965631   -1.118756
     31          6           0       -9.470342    3.735955   -3.189860
     32          6           0       -8.876343    3.821893   -4.587314
     33          7           0       -6.471679   -0.130837   -1.026173
     34          6           0       -7.382035   -0.067294   -2.061468
     35          6           0       -7.579414   -1.320402   -2.678001
     36          6           0       -6.670244   -2.178427   -2.019408
     37          6           0       -5.984541   -1.396697   -1.059092
     38          6           0       -8.361754   -1.647314   -3.801795
     39          6           0       -6.248618   -3.510050   -2.135063
     40          8           0       -6.468814   -4.605242   -2.642979
     41          6           0       -5.082456   -3.571184   -0.849744
     42          6           0       -5.430067   -4.636974    0.155737
     43          8           0       -5.802358   -4.483665    1.256732
     44          8           0       -5.118847   -5.848253   -0.266667
     45          6           0       -5.402422   -6.790983    0.597630
     46          6           0        2.355745   -4.892131    0.560304
     47          6           0        3.479595   -4.015380    0.985120
     48          6           0        4.136314   -3.155917    0.162129
     49          6           0        3.821239   -3.088604   -1.251461
     50          6           0        5.305820   -2.369892    0.692412
     51          6           0        6.652534   -2.787466    0.018023
     52          6           0        7.783201   -1.772832    0.611738
     53          6           0        9.117329   -2.014376   -0.115970
     54          6           0        9.546385   -3.415305    0.066270
     55          6           0       10.134957   -0.967338    0.449267
     56          6           0       11.457103   -0.947306   -0.239706
     57          6           0       12.271127    0.313139    0.198915
     58          6           0       13.704816    0.457876   -0.544955
     59          6           0       14.655692   -0.717077   -0.243347
     60          6           0       14.298403    1.856007   -0.186628
     61          6           0       15.452369    2.143951   -1.037244
     62          6           0       15.925389    3.488020   -0.555579
     63          6           0       17.241263    3.985233   -1.297239
     64          6           0       17.054743    4.117789   -2.896675
     65          6           0       17.936486    5.253085   -0.811148
     66          1           0       -2.622180    1.196160    3.553904
     67          1           0       -6.465909    5.564832    0.745515
     68          1           0       -8.726315    1.303662   -3.271462
     69          1           0       -3.683097   -3.249481    1.938490
     70          1           0       -1.891674   -1.292272    2.890394
     71          1           0       -3.356345   -2.642525    4.270373
     72          1           0       -3.430316   -0.968120    4.764739
     73          1           0       -4.700669   -1.707627    3.958802
     74          1           0       -2.199667   -3.359655   -0.271476
     75          1           0       -1.533307   -1.712557    0.324944
     76          1           0       -0.817591   -3.115507    2.316704
     77          1           0       -1.467935   -4.590494    1.528607
     78          1           0       -1.820430    3.627709    3.762216
     79          1           0       -2.633734    4.831116    4.533049
     80          1           0       -3.149878    3.343523    5.265594
     81          1           0       -5.281877    6.675102    2.325629
     82          1           0      -10.081224    2.744846   -3.066320
     83          1           0      -10.173659    4.622904   -3.008978
     84          1           0       -9.665008    3.977910   -5.348012
     85          1           0       -8.209272    4.770364   -4.599658
     86          1           0       -8.124835    2.982332   -4.925147
     87          1           0       -8.036336   -0.866880   -4.722755
     88          1           0       -8.329824   -2.721914   -4.002794
     89          1           0       -9.528292   -1.583644   -3.691290
     90          1           0       -4.139771   -4.140079   -1.413070
     91          1           0        2.744079   -5.928176    0.773833
     92          1           0        2.113772   -5.059889   -0.563466
     93          1           0        3.950053   -4.100577    2.051317
     94          1           0        2.959877   -3.386994   -1.239882
     95          1           0        3.934806   -2.244859   -1.675324
     96          1           0        4.478899   -3.855031   -1.489758
     97          1           0        5.091259   -1.500950    0.254667
     98          1           0        5.271471   -2.608031    1.786058
     99          1           0        6.923385   -3.830065    0.280958
    100          1           0        6.777754   -2.651705   -1.070441
    101          1           0        7.297538   -0.837793    0.451769
    102          1           0        7.874884   -1.880099    1.647289
    103          1           0        8.975536   -1.826333   -1.280407
    104          1           0        8.719766   -4.183559   -0.174575
    105          1           0       10.588444   -3.556319   -0.758396
    106          1           0        9.895235   -3.645563    1.096469
    107          1           0        9.748682    0.198961    0.141552
    108          1           0       10.243712   -1.306464    1.492398
    109          1           0       12.126856   -1.782633   -0.113323
    110          1           0       11.216785   -0.918280   -1.239957
    111          1           0       11.603855    1.268461   -0.207204
    112          1           0       12.519118    0.244228    1.253989
    113          1           0       13.372565    0.573358   -1.501239
    114          1           0       14.654223   -0.875769    0.778529
    115          1           0       14.190197   -1.637481   -0.666812
    116          1           0       15.660453   -0.683727   -0.686869
    117          1           0       13.371816    2.514617   -0.310907
    118          1           0       14.546691    1.968049    0.735351
    119          1           0       16.013915    1.351250   -0.979496
    120          1           0       15.210459    2.042665   -2.200084
    121          1           0       15.170895    4.308484   -0.817701
    122          1           0       16.010988    3.155183    0.575740
    123          1           0       17.790632    3.012240   -1.307038
    124          1           0       16.145172    4.860984   -2.928786
    125          1           0       18.022049    4.540100   -3.260160
    126          1           0       16.729299    3.125009   -3.349297
    127          1           0       18.028658    5.020618    0.295137
    128          1           0       18.895980    5.541090   -1.281581
    129          1           0       17.261017    6.176143   -0.945059
    130          1           0       -5.027182   -7.801672    0.319226
    131          1           0       -6.467034   -6.888940    0.631233
    132          1           0       -4.868532   -6.554550    1.514415
    133          8           0       -7.912037    6.738308   -0.396053
    134          1           0       -9.240933    6.432162   -1.783585
 ---------------------------------------------------------------------

 SCF Done:  E(RCAM-B3LYP) =  -3043.42559843     A.U. after   15 cycles

 Excitation energies and oscillator strengths:

 Excited State   1:      Singlet-A      2.0733 eV  598.01 nm  f=0.1917  <S**2>=0.000
     243 -> 245       -0.19085
     243 -> 246        0.25007
     244 -> 245        0.61594
     244 -> 246        0.11511
 This state for optimization and/or second-order correction.
 Total Energy, E(TD-HF/TD-KS) =  -3043.34940648
 Copying the excited state density for this state as the 1-particle RhoCI density.

 The electronic state is 1-A.
 Alpha  occ. eigenvalues --  -46.81814 -19.21938 -19.21031 -19.18280 -19.17474
 Alpha  occ. eigenvalues --  -19.17229 -19.17090 -19.15702 -14.38490 -14.37420
 Alpha  occ. eigenvalues --  -14.37077 -14.36894 -10.34977 -10.33243 -10.31732
 Alpha  occ. eigenvalues --  -10.31725 -10.30268 -10.27610 -10.27182 -10.26975
 Alpha  occ. eigenvalues --  -10.26900 -10.26817 -10.26766 -10.26367 -10.26281
 Alpha  occ. eigenvalues --  -10.25893 -10.25607 -10.25458 -10.24935 -10.24875
 Alpha  occ. eigenvalues --  -10.24805 -10.24398 -10.24061 -10.23997 -10.23993
 Alpha  occ. eigenvalues --  -10.23975 -10.23871 -10.23587 -10.23434 -10.23266
 Alpha  occ. eigenvalues --  -10.23021 -10.22966 -10.22893 -10.22844 -10.22763
 Alpha  occ. eigenvalues --  -10.22346 -10.22313 -10.22131 -10.22100 -10.22087
 Alpha  occ. eigenvalues --  -10.21926 -10.21863 -10.21807 -10.21713 -10.21239
 Alpha  occ. eigenvalues --  -10.21174 -10.20895 -10.20852 -10.20518 -10.20199
 Alpha  occ. eigenvalues --  -10.20128 -10.20103 -10.19404 -10.19374 -10.18596
 Alpha  occ. eigenvalues --  -10.16307  -3.10369  -1.85306  -1.84840  -1.84779
 Alpha  occ. eigenvalues --   -1.17107  -1.11242  -1.10904  -1.07467  -1.06329
 Alpha  occ. eigenvalues --   -1.06298  -1.02734  -1.01678  -1.00688  -1.00221
 Alpha  occ. eigenvalues --   -0.99599  -0.88175  -0.87137  -0.85968  -0.85727
 Alpha  occ. eigenvalues --   -0.85198  -0.84950  -0.84710  -0.84391  -0.83682
 Alpha  occ. eigenvalues --   -0.83033  -0.82070  -0.81712  -0.80257  -0.79897
 Alpha  occ. eigenvalues --   -0.79709  -0.78370  -0.78137  -0.76996  -0.76770
 Alpha  occ. eigenvalues --   -0.76131  -0.74937  -0.73718  -0.72797  -0.71876
 Alpha  occ. eigenvalues --   -0.71697  -0.70696  -0.69844  -0.69362  -0.69151
 Alpha  occ. eigenvalues --   -0.68789  -0.68284  -0.67507  -0.67086  -0.65853
 Alpha  occ. eigenvalues --   -0.65571  -0.64978  -0.64371  -0.62798  -0.62347
 Alpha  occ. eigenvalues --   -0.62030  -0.61195  -0.60736  -0.59476  -0.58945
 Alpha  occ. eigenvalues --   -0.58418  -0.58257  -0.57894  -0.57414  -0.56887
 Alpha  occ. eigenvalues --   -0.56391  -0.55693  -0.55545  -0.55058  -0.54516
 Alpha  occ. eigenvalues --   -0.54239  -0.53954  -0.53550  -0.53136  -0.52360
 Alpha  occ. eigenvalues --   -0.52138  -0.51630  -0.51602  -0.51118  -0.51054
 Alpha  occ. eigenvalues --   -0.50272  -0.50039  -0.49864  -0.49797  -0.49183
 Alpha  occ. eigenvalues --   -0.48779  -0.48548  -0.48532  -0.48159  -0.47990
 Alpha  occ. eigenvalues --   -0.47909  -0.47697  -0.47511  -0.47295  -0.46832
 Alpha  occ. eigenvalues --   -0.46755  -0.46640  -0.46333  -0.46111  -0.45772
 Alpha  occ. eigenvalues --   -0.45760  -0.45701  -0.45299  -0.45253  -0.45100
 Alpha  occ. eigenvalues --   -0.44922  -0.44698  -0.44418  -0.44263  -0.44035
 Alpha  occ. eigenvalues --   -0.43972  -0.43637  -0.43433  -0.43226  -0.42990
 Alpha  occ. eigenvalues --   -0.42843  -0.42720  -0.42336  -0.42235  -0.42072
 Alpha  occ. eigenvalues --   -0.41874  -0.41647  -0.41398  -0.41087  -0.40970
 Alpha  occ. eigenvalues --   -0.40869  -0.40705  -0.40566  -0.40400  -0.40396
 Alpha  occ. eigenvalues --   -0.39995  -0.39777  -0.39503  -0.39259  -0.39210
 Alpha  occ. eigenvalues --   -0.39000  -0.38849  -0.38817  -0.38121  -0.38110
 Alpha  occ. eigenvalues --   -0.37657  -0.37540  -0.37432  -0.37139  -0.36907
 Alpha  occ. eigenvalues --   -0.36710  -0.36417  -0.35681  -0.35669  -0.35627
 Alpha  occ. eigenvalues --   -0.35344  -0.35099  -0.34938  -0.34889  -0.34790
 Alpha  occ. eigenvalues --   -0.34363  -0.34084  -0.33626  -0.33061  -0.32874
 Alpha  occ. eigenvalues --   -0.32414  -0.32345  -0.31861  -0.31709  -0.31652
 Alpha  occ. eigenvalues --   -0.30650  -0.30620  -0.30220  -0.29764  -0.29307
 Alpha  occ. eigenvalues --   -0.29249  -0.29058  -0.28445  -0.28209  -0.27971
 Alpha  occ. eigenvalues --   -0.26568  -0.25720  -0.23051  -0.22078
 Alpha virt. eigenvalues --   -0.09073  -0.06592  -0.01430  -0.00753   0.00734
 Alpha virt. eigenvalues --    0.02605   0.03494   0.04349   0.05000   0.05233
 Alpha virt. eigenvalues --    0.05334   0.05469   0.07498   0.08383   0.08576

 Mulliken charges:
               1
     1  Mg   0.832798
     2  C    0.152638
     3  C   -0.206568
     4  C   -0.150832
     5  C   -0.181387
     6  N   -0.637876
     7  C    0.307909
     8  C   -0.145135
     9  C   -0.162544
    10  C    0.369709
    11  C   -0.302216
    12  C   -0.180731
    13  C   -0.251303
    14  C    0.595855
    15  O   -0.476222
    16  O   -0.469196
    17  N   -0.710455
    18  C    0.328666
    19  C    0.012762
    20  C   -0.016005
    21  C    0.281160
    22  C   -0.361654
    23  C    0.243168
    24  O   -0.407260
    25  N   -0.679889
    26  C    0.266333
    27  C    0.034148
    28  C    0.023144
    29  C    0.287001
    30  C    0.243710
    31  C   -0.246671
    32  C   -0.303291
    33  N   -0.748528
    34  C    0.260405
    35  C    0.138264
    36  C    0.025290
    37  C    0.313579
    38  C   -0.414186
    39  C    0.325968
    40  O   -0.460118
    41  C   -0.402641
    42  C    0.617496
    43  O   -0.466661
    44  O   -0.387313
    45  C   -0.079724
    46  C   -0.017564
    47  C   -0.142392
    48  C    0.072381
    49  C   -0.305107
    50  C   -0.195895
    51  C   -0.214689
    52  C   -0.161315
    53  C   -0.060745
    54  C   -0.276654
    55  C   -0.138383
    56  C   -0.176864
    57  C   -0.183702
    58  C   -0.069468
    59  C   -0.328736
    60  C   -0.161323
    61  C   -0.159127
    62  C   -0.156286
    63  C   -0.065435
    64  C   -0.303871
    65  C   -0.307260
    66  H    0.081248
    67  H    0.108470
    68  H    0.087686
    69  H    0.111218
    70  H    0.098855
    71  H    0.112125
    72  H    0.104775
    73  H    0.135812
    74  H    0.100401
    75  H    0.120328
    76  H    0.139410
    77  H    0.145094
    78  H    0.116323
    79  H    0.162983
    80  H    0.123086
    81  H    0.081122
    82  H    0.108017
    83  H    0.107733
    84  H    0.117883
    85  H    0.104405
    86  H    0.107077
    87  H    0.111095
    88  H    0.151814
    89  H    0.119911
    90  H    0.129705
    91  H    0.105977
    92  H    0.129384
    93  H    0.066664
    94  H    0.136561
    95  H    0.100383
    96  H    0.128980
    97  H    0.110450
    98  H    0.096915
    99  H    0.095790
   100  H    0.101870
   101  H    0.095593
   102  H    0.095110
   103  H    0.063284
   104  H    0.102680
   105  H    0.052243
   106  H    0.101541
   107  H    0.061058
   108  H    0.085903
   109  H    0.093281
   110  H    0.096736
   111  H    0.060900
   112  H    0.092533
   113  H    0.094060
   114  H    0.113737
   115  H    0.099170
   116  H    0.106137
   117  H    0.073582
   118  H    0.092906
   119  H    0.103878
   120  H    0.063014
   121  H    0.087894
   122  H    0.078264
   123  H    0.080770
   124  H    0.081486
   125  H    0.103569
   126  H    0.096459
   127  H    0.098833
   128  H    0.106790
   129  H    0.093719
   130  H    0.100385
   131  H    0.113643
   132  H    0.104451
   133  O   -0.376541
   134  H    0.064215
 Sum of Mulliken charges =   0.00000

 Dipole moment (field-independent basis, Debye):
    X=              0.8136    Y=             -1.0847    Z=             -1.7735  Tot=              2.2324
 Quadrupole moment (field-independent basis, Debye-Ang):
   XX=           -363.3348   YY=           -436.3744   ZZ=           -395.9746
   XY=            -23.3662   XZ=             31.0128   YZ=            -32.3903

 Normal termination of Gaussian 09 at Fri Oct  4 21:23:08 2019.
