 Gaussian 09, Revision D.01,
 Gaussian 09:  ES64L-G09RevD.01 24-Apr-2013

 ----------------------------------------------------------------------
 # td=(NStates=1) iop(3/107=0140000000,3/108=0140000000) iop(3/107=0140
 000000,3/108=0140000000) CAM-B3LYP/6-31G(d,p)
 ----------------------------------------------------------------------

 --
 TD
 --
 Symbolic Z-matrix:
 Charge =  0 Multiplicity = 1

                         Standard orientation:
 ---------------------------------------------------------------------
 Center     Atomic      Atomic             Coordinates (Angstroms)
 Number     Number       Type             X           Y           Z
 ---------------------------------------------------------------------
      1         12           0       -5.663937    1.217775    0.250755
      2          6           0       -4.963604   -2.144306   -0.414722
      3          6           0       -3.380272    1.086507    2.804246
      4          6           0       -6.164407    4.634357    0.747522
      5          6           0       -7.938701    1.202198   -2.330030
      6          7           0       -4.292825   -0.261465    1.028691
      7          6           0       -4.197219   -1.621646    0.540831
      8          6           0       -3.158751   -2.344270    1.384450
      9          6           0       -2.883386   -1.361846    2.581803
     10          6           0       -3.553273   -0.079382    2.099237
     11          6           0       -3.521046   -1.866834    3.887471
     12          6           0       -1.918898   -2.735565    0.627267
     13          6           0       -0.920770   -3.581743    1.372294
     14          6           0        0.299966   -3.949131    0.534654
     15          8           0        0.373314   -3.563478   -0.605819
     16          8           0        1.080572   -4.843853    1.115583
     17          7           0       -4.798676    2.582617    1.420736
     18          6           0       -3.975075    2.291517    2.478713
     19          6           0       -3.716526    3.569799    3.199995
     20          6           0       -4.560182    4.529236    2.680669
     21          6           0       -5.165397    3.901065    1.489928
     22          6           0       -2.742943    3.748627    4.319919
     23          6           0       -4.626049    5.926309    3.072383
     24          8           0       -4.006143    6.434960    4.027971
     25          7           0       -6.768166    2.743000   -0.730871
     26          6           0       -6.898471    4.006401   -0.377338
     27          6           0       -7.857524    4.637176   -1.256074
     28          6           0       -8.389611    3.760940   -2.073939
     29          6           0       -7.654955    2.496782   -1.755969
     30          6           0       -8.339848    6.039518   -1.157248
     31          6           0       -9.328101    3.956152   -3.199647
     32          6           0       -8.873302    4.061808   -4.689503
     33          7           0       -6.256151   -0.150216   -1.015789
     34          6           0       -7.317167   -0.020078   -1.986285
     35          6           0       -7.528100   -1.269886   -2.649025
     36          6           0       -6.589580   -2.072200   -2.147269
     37          6           0       -5.812832   -1.405010   -1.177577
     38          6           0       -8.534096   -1.617652   -3.625700
     39          6           0       -6.230813   -3.520362   -2.143862
     40          8           0       -6.593874   -4.471468   -2.683686
     41          6           0       -4.974513   -3.575199   -0.905627
     42          6           0       -5.404716   -4.640004    0.163368
     43          8           0       -5.975685   -4.325302    1.180289
     44          8           0       -5.109596   -5.839515   -0.239152
     45          6           0       -5.535000   -6.855400    0.559283
     46          6           0        2.409776   -5.232578    0.597919
     47          6           0        3.386906   -4.130491    0.958444
     48          6           0        3.969362   -3.253055    0.037970
     49          6           0        3.660889   -3.116347   -1.403599
     50          6           0        5.111854   -2.310646    0.600415
     51          6           0        6.465702   -2.590455    0.030603
     52          6           0        7.526086   -1.673979    0.587809
     53          6           0        8.861915   -1.876997    0.108155
     54          6           0        9.394483   -3.276178    0.320901
     55          6           0        9.990510   -0.928071    0.642324
     56          6           0       11.306465   -0.851574   -0.091065
     57          6           0       12.180658    0.351725    0.197755
     58          6           0       13.513540    0.459450   -0.526555
     59          6           0       14.480650   -0.702021   -0.473392
     60          6           0       14.260142    1.776998   -0.106802
     61          6           0       15.380697    2.160538   -1.099975
     62          6           0       16.070740    3.531209   -0.681841
     63          6           0       17.352805    3.794781   -1.399628
     64          6           0       17.181982    4.033861   -2.928866
     65          6           0       18.089662    4.980569   -0.749657
     66          1           0       -2.500887    1.191285    3.537756
     67          1           0       -6.432181    5.655087    0.857782
     68          1           0       -8.685001    1.348705   -3.177254
     69          1           0       -3.493055   -3.317117    1.635271
     70          1           0       -1.856379   -1.253893    2.868268
     71          1           0       -3.352332   -2.909290    4.101203
     72          1           0       -3.388733   -1.171900    4.746337
     73          1           0       -4.698885   -1.984572    3.778589
     74          1           0       -2.353663   -3.599413   -0.021768
     75          1           0       -1.382095   -1.838736    0.167777
     76          1           0       -0.387409   -3.195365    2.028543
     77          1           0       -1.436273   -4.483376    1.795709
     78          1           0       -1.828449    3.271529    4.262851
     79          1           0       -2.641188    4.760962    4.377190
     80          1           0       -3.185068    3.323264    5.435069
     81          1           0       -5.177970    6.635396    2.361492
     82          1           0      -10.006691    3.088223   -3.166942
     83          1           0       -9.961514    4.775499   -2.914447
     84          1           0       -9.673814    4.180792   -5.403952
     85          1           0       -8.323974    5.042910   -4.765372
     86          1           0       -8.208076    3.176469   -5.000447
     87          1           0       -8.527379   -0.680520   -4.495223
     88          1           0       -8.304504   -2.643902   -4.343689
     89          1           0       -9.631383   -1.682961   -3.248106
     90          1           0       -4.109554   -3.692271   -1.449825
     91          1           0        2.721755   -6.159562    1.207453
     92          1           0        2.313468   -5.611783   -0.419970
     93          1           0        3.561985   -3.817328    1.945369
     94          1           0        2.659725   -3.552788   -1.704885
     95          1           0        3.771895   -2.120897   -1.761250
     96          1           0        4.328100   -3.701165   -2.003810
     97          1           0        4.768788   -1.318394    0.267101
     98          1           0        5.103048   -2.289220    1.662240
     99          1           0        6.510309   -3.697500    0.510460
    100          1           0        6.658895   -3.003875   -1.040626
    101          1           0        7.207159   -0.694120    0.430196
    102          1           0        7.487510   -1.676791    1.769534
    103          1           0        8.717844   -1.683921   -0.944243
    104          1           0        8.643002   -4.120667   -0.108810
    105          1           0       10.481031   -3.478757   -0.364213
    106          1           0        9.528094   -3.752634    1.308892
    107          1           0        9.556312    0.084553    0.587240
    108          1           0       10.238847   -0.950584    1.586420
    109          1           0       11.963024   -1.778039   -0.067777
    110          1           0       10.863445   -0.824343   -1.320727
    111          1           0       11.623030    1.334592    0.320946
    112          1           0       12.401060    0.339436    1.123732
    113          1           0       13.508707    0.492600   -1.767817
    114          1           0       14.782286   -0.979123    0.500191
    115          1           0       13.875413   -1.682331   -0.931738
    116          1           0       15.452698   -0.743361   -1.107358
    117          1           0       13.465912    2.616130   -0.061793
    118          1           0       14.475401    1.680073    1.037866
    119          1           0       16.220365    1.397305   -1.136874
    120          1           0       15.113577    2.383679   -1.944730
    121          1           0       15.307401    4.476071   -0.955389
    122          1           0       16.229107    3.383307    0.421189
    123          1           0       17.895589    2.874220   -1.423363
    124          1           0       16.463723    4.785622   -3.103239
    125          1           0       18.309206    4.256865   -3.063372
    126          1           0       16.704844    3.250138   -3.524418
    127          1           0       18.484340    4.955564    0.287096
    128          1           0       18.980360    5.559949   -1.113811
    129          1           0       17.410028    5.820908   -0.726303
    130          1           0       -5.258511   -7.914409    0.260376
    131          1           0       -6.625703   -6.666899    0.656555
    132          1           0       -5.028124   -6.736183    1.647443
    133          8           0       -7.882238    6.851071   -0.372546
    134          1           0       -9.079290    6.308978   -1.860946
 ---------------------------------------------------------------------

 SCF Done:  E(RCAM-B3LYP) =  -3043.42512255     A.U. after   15 cycles

 Excitation energies and oscillator strengths:

 Excited State   1:      Singlet-A      2.1074 eV  588.33 nm  f=0.1834  <S**2>=0.000
     243 -> 246       -0.26125
     244 -> 245        0.65018
 This state for optimization and/or second-order correction.
 Total Energy, E(TD-HF/TD-KS) =  -3043.34767674
 Copying the excited state density for this state as the 1-particle RhoCI density.

 The electronic state is 1-A.
 Alpha  occ. eigenvalues --  -46.80799 -19.23848 -19.22077 -19.18900 -19.17312
 Alpha  occ. eigenvalues --  -19.16925 -19.16866 -19.15910 -14.38221 -14.37005
 Alpha  occ. eigenvalues --  -14.36891 -14.36713 -10.35239 -10.34141 -10.32163
 Alpha  occ. eigenvalues --  -10.30444 -10.30032 -10.29413 -10.28644 -10.27212
 Alpha  occ. eigenvalues --  -10.27032 -10.26801 -10.26531 -10.26263 -10.26146
 Alpha  occ. eigenvalues --  -10.26053 -10.25965 -10.25610 -10.24881 -10.24554
 Alpha  occ. eigenvalues --  -10.24211 -10.24111 -10.23827 -10.23784 -10.23663
 Alpha  occ. eigenvalues --  -10.23490 -10.23447 -10.23318 -10.23044 -10.23028
 Alpha  occ. eigenvalues --  -10.22978 -10.22870 -10.22858 -10.22746 -10.22704
 Alpha  occ. eigenvalues --  -10.22629 -10.22347 -10.22219 -10.22207 -10.22081
 Alpha  occ. eigenvalues --  -10.21983 -10.21870 -10.21788 -10.21693 -10.21654
 Alpha  occ. eigenvalues --  -10.21605 -10.21567 -10.21525 -10.21376 -10.21206
 Alpha  occ. eigenvalues --  -10.20665 -10.20347 -10.20255 -10.20185 -10.19906
 Alpha  occ. eigenvalues --  -10.19807  -3.09516  -1.84441  -1.83979  -1.83943
 Alpha  occ. eigenvalues --   -1.17215  -1.13073  -1.11660  -1.06985  -1.06083
 Alpha  occ. eigenvalues --   -1.04916  -1.04447  -1.00634  -0.99890  -0.99438
 Alpha  occ. eigenvalues --   -0.98295  -0.88061  -0.87087  -0.85993  -0.85830
 Alpha  occ. eigenvalues --   -0.85380  -0.84670  -0.84631  -0.83759  -0.83425
 Alpha  occ. eigenvalues --   -0.83234  -0.82510  -0.81738  -0.80578  -0.79716
 Alpha  occ. eigenvalues --   -0.79102  -0.78756  -0.77890  -0.77380  -0.76998
 Alpha  occ. eigenvalues --   -0.75735  -0.74606  -0.74381  -0.72264  -0.72170
 Alpha  occ. eigenvalues --   -0.71531  -0.71197  -0.70841  -0.69759  -0.69293
 Alpha  occ. eigenvalues --   -0.69118  -0.68832  -0.67375  -0.67189  -0.66497
 Alpha  occ. eigenvalues --   -0.65849  -0.65050  -0.63621  -0.63423  -0.62030
 Alpha  occ. eigenvalues --   -0.61334  -0.60986  -0.60862  -0.59679  -0.59497
 Alpha  occ. eigenvalues --   -0.58674  -0.58422  -0.57931  -0.57847  -0.56606
 Alpha  occ. eigenvalues --   -0.56421  -0.56024  -0.55722  -0.55215  -0.54644
 Alpha  occ. eigenvalues --   -0.54252  -0.54091  -0.53490  -0.52935  -0.52072
 Alpha  occ. eigenvalues --   -0.51967  -0.51752  -0.51609  -0.51129  -0.50571
 Alpha  occ. eigenvalues --   -0.50330  -0.50009  -0.49847  -0.49561  -0.48964
 Alpha  occ. eigenvalues --   -0.48840  -0.48497  -0.48390  -0.48023  -0.47894
 Alpha  occ. eigenvalues --   -0.47753  -0.47679  -0.47565  -0.47388  -0.46939
 Alpha  occ. eigenvalues --   -0.46705  -0.46589  -0.46400  -0.46036  -0.45901
 Alpha  occ. eigenvalues --   -0.45709  -0.45551  -0.45255  -0.45093  -0.44696
 Alpha  occ. eigenvalues --   -0.44523  -0.44283  -0.43930  -0.43861  -0.43683
 Alpha  occ. eigenvalues --   -0.43553  -0.43386  -0.43220  -0.43166  -0.42798
 Alpha  occ. eigenvalues --   -0.42710  -0.42497  -0.42392  -0.41993  -0.41747
 Alpha  occ. eigenvalues --   -0.41616  -0.41455  -0.41356  -0.41024  -0.40937
 Alpha  occ. eigenvalues --   -0.40669  -0.40530  -0.40385  -0.40317  -0.40284
 Alpha  occ. eigenvalues --   -0.40081  -0.39941  -0.39893  -0.39488  -0.39388
 Alpha  occ. eigenvalues --   -0.39237  -0.38993  -0.38824  -0.38096  -0.37883
 Alpha  occ. eigenvalues --   -0.37748  -0.37651  -0.37454  -0.37185  -0.37151
 Alpha  occ. eigenvalues --   -0.37022  -0.36509  -0.35954  -0.35557  -0.35429
 Alpha  occ. eigenvalues --   -0.35207  -0.34794  -0.34602  -0.34275  -0.34076
 Alpha  occ. eigenvalues --   -0.33824  -0.33580  -0.33475  -0.33155  -0.33015
 Alpha  occ. eigenvalues --   -0.32910  -0.32764  -0.31791  -0.31488  -0.31283
 Alpha  occ. eigenvalues --   -0.31164  -0.30957  -0.30720  -0.29800  -0.29365
 Alpha  occ. eigenvalues --   -0.29303  -0.28493  -0.28126  -0.28072  -0.27505
 Alpha  occ. eigenvalues --   -0.27103  -0.26587  -0.22930  -0.21250
 Alpha virt. eigenvalues --   -0.07827  -0.06014  -0.01299  -0.00616   0.01194
 Alpha virt. eigenvalues --    0.02450   0.03021   0.03642   0.04915   0.05150
 Alpha virt. eigenvalues --    0.05616   0.06018   0.07722   0.08561   0.09398

 Mulliken charges:
               1
     1  Mg   0.841021
     2  C    0.120697
     3  C   -0.191702
     4  C   -0.150065
     5  C   -0.153229
     6  N   -0.648571
     7  C    0.289904
     8  C   -0.148092
     9  C   -0.140027
    10  C    0.388903
    11  C   -0.318747
    12  C   -0.162564
    13  C   -0.233917
    14  C    0.570219
    15  O   -0.459004
    16  O   -0.463895
    17  N   -0.721491
    18  C    0.333536
    19  C    0.022526
    20  C   -0.008236
    21  C    0.300115
    22  C   -0.360831
    23  C    0.231499
    24  O   -0.432048
    25  N   -0.675898
    26  C    0.294687
    27  C   -0.040721
    28  C    0.048262
    29  C    0.239112
    30  C    0.260635
    31  C   -0.257760
    32  C   -0.306180
    33  N   -0.735197
    34  C    0.237852
    35  C    0.112277
    36  C   -0.000676
    37  C    0.282195
    38  C   -0.391819
    39  C    0.355138
    40  O   -0.389258
    41  C   -0.360324
    42  C    0.615903
    43  O   -0.475766
    44  O   -0.382352
    45  C   -0.092535
    46  C   -0.000501
    47  C   -0.144051
    48  C    0.123299
    49  C   -0.385514
    50  C   -0.230528
    51  C   -0.171059
    52  C   -0.155444
    53  C   -0.039156
    54  C   -0.291953
    55  C   -0.173264
    56  C   -0.154397
    57  C   -0.170725
    58  C   -0.030703
    59  C   -0.307664
    60  C   -0.178633
    61  C   -0.154789
    62  C   -0.169386
    63  C   -0.055035
    64  C   -0.309600
    65  C   -0.332065
    66  H    0.092568
    67  H    0.130423
    68  H    0.094281
    69  H    0.101058
    70  H    0.106147
    71  H    0.119259
    72  H    0.110737
    73  H    0.105010
    74  H    0.099674
    75  H    0.111819
    76  H    0.124381
    77  H    0.117898
    78  H    0.121404
    79  H    0.160549
    80  H    0.093187
    81  H    0.086328
    82  H    0.110380
    83  H    0.111056
    84  H    0.123842
    85  H    0.111637
    86  H    0.109190
    87  H    0.085367
    88  H    0.122664
    89  H    0.135387
    90  H    0.153557
    91  H    0.120210
    92  H    0.132977
    93  H    0.089815
    94  H    0.144154
    95  H    0.122994
    96  H    0.122179
    97  H    0.091138
    98  H    0.106411
    99  H    0.077113
   100  H    0.101417
   101  H    0.103382
   102  H    0.068883
   103  H    0.094451
   104  H    0.068517
   105  H    0.065959
   106  H    0.111980
   107  H    0.078731
   108  H    0.101407
   109  H    0.095435
   110  H    0.032113
   111  H    0.083761
   112  H    0.109983
   113  H    0.055716
   114  H    0.103298
   115  H    0.069313
   116  H    0.104177
   117  H    0.080440
   118  H    0.075759
   119  H    0.086147
   120  H    0.107764
   121  H    0.053582
   122  H    0.089185
   123  H    0.093938
   124  H    0.104018
   125  H    0.104182
   126  H    0.100654
   127  H    0.100690
   128  H    0.092048
   129  H    0.106382
   130  H    0.126709
   131  H    0.131425
   132  H    0.095632
   133  O   -0.424858
   134  H    0.070583
 Sum of Mulliken charges =   0.00000

 Dipole moment (field-independent basis, Debye):
    X=              1.7445    Y=             -5.1017    Z=             -1.2828  Tot=              5.5422
 Quadrupole moment (field-independent basis, Debye-Ang):
   XX=           -368.7417   YY=           -430.3357   ZZ=           -397.1414
   XY=              6.2537   XZ=             37.1354   YZ=            -35.3112

 Normal termination of Gaussian 09 at Mon Oct  7 14:45:39 2019.
