 Gaussian 09, Revision D.01,
 Gaussian 09:  ES64L-G09RevD.01 24-Apr-2013

 ----------------------------------------------------------------------
 # td=(NStates=1) iop(3/107=0140000000,3/108=0140000000) iop(3/107=0140
 000000,3/108=0140000000) CAM-B3LYP/6-31G(d,p)
 ----------------------------------------------------------------------

 --
 TD
 --
 Symbolic Z-matrix:
 Charge =  0 Multiplicity = 1

                         Standard orientation:
 ---------------------------------------------------------------------
 Center     Atomic      Atomic             Coordinates (Angstroms)
 Number     Number       Type             X           Y           Z
 ---------------------------------------------------------------------
      1         12           0       -5.782427    1.163166    0.271888
      2          6           0       -5.061465   -2.192816   -0.294866
      3          6           0       -3.595435    1.134611    2.715182
      4          6           0       -6.317143    4.483410    0.658923
      5          6           0       -8.170097    1.123827   -2.350694
      6          7           0       -4.506124   -0.182898    1.086286
      7          6           0       -4.338005   -1.569340    0.659115
      8          6           0       -3.153325   -2.203307    1.415763
      9          6           0       -2.870217   -1.228360    2.541543
     10          6           0       -3.629448   -0.037359    2.135550
     11          6           0       -3.447059   -1.707648    3.917787
     12          6           0       -2.067391   -2.733369    0.632747
     13          6           0       -1.034361   -3.492563    1.381202
     14          6           0        0.253934   -3.814366    0.602494
     15          8           0        0.429565   -3.398781   -0.522632
     16          8           0        1.224045   -4.535370    1.239800
     17          7           0       -5.021632    2.619789    1.499475
     18          6           0       -4.125689    2.418951    2.470696
     19          6           0       -3.800597    3.758673    3.177753
     20          6           0       -4.664063    4.576316    2.593976
     21          6           0       -5.370628    3.920262    1.528728
     22          6           0       -2.812553    3.845864    4.306395
     23          6           0       -4.582236    6.012297    2.802866
     24          8           0       -4.061847    6.526029    3.723548
     25          7           0       -6.973753    2.641857   -0.782155
     26          6           0       -7.019228    3.945576   -0.441595
     27          6           0       -7.900652    4.632908   -1.270691
     28          6           0       -8.471694    3.631177   -2.068944
     29          6           0       -7.782890    2.416850   -1.754132
     30          6           0       -8.411186    6.029909   -1.189407
     31          6           0       -9.469094    3.733442   -3.152356
     32          6           0       -8.834643    3.900338   -4.540712
     33          7           0       -6.557880   -0.295768   -1.009118
     34          6           0       -7.447699   -0.180698   -2.121486
     35          6           0       -7.675880   -1.501756   -2.768802
     36          6           0       -6.777645   -2.288868   -1.980883
     37          6           0       -6.090728   -1.453007   -1.010721
     38          6           0       -8.488522   -1.759139   -3.866149
     39          6           0       -6.173715   -3.646764   -2.006489
     40          8           0       -6.544484   -4.655193   -2.495276
     41          6           0       -5.081258   -3.588767   -0.848414
     42          6           0       -5.354244   -4.682651    0.209169
     43          8           0       -5.763475   -4.486062    1.309033
     44          8           0       -5.164843   -5.886306   -0.262264
     45          6           0       -5.533138   -6.914406    0.624551
     46          6           0        2.361527   -4.824939    0.421946
     47          6           0        3.502099   -4.007968    0.810498
     48          6           0        4.140912   -3.038968    0.030276
     49          6           0        3.724533   -2.696824   -1.369744
     50          6           0        5.262874   -2.206899    0.741149
     51          6           0        6.591929   -2.557806    0.071787
     52          6           0        7.818779   -1.805278    0.630199
     53          6           0        9.131183   -1.939398    0.063531
     54          6           0        9.693739   -3.404560    0.427994
     55          6           0       10.122772   -0.954591    0.503909
     56          6           0       11.490543   -0.968905   -0.173374
     57          6           0       12.404763    0.273438    0.185804
     58          6           0       13.714767    0.378784   -0.609379
     59          6           0       14.535691   -0.782735   -0.375555
     60          6           0       14.322708    1.773825   -0.332267
     61          6           0       15.546520    2.121369   -1.110798
     62          6           0       16.104581    3.381790   -0.665826
     63          6           0       17.410696    3.793815   -1.302523
     64          6           0       17.388937    4.021850   -2.935361
     65          6           0       18.122476    5.017934   -0.731099
     66          1           0       -2.750491    1.240556    3.503951
     67          1           0       -6.443784    5.495123    0.987905
     68          1           0       -8.961443    0.972544   -3.024702
     69          1           0       -3.553923   -3.143711    1.910243
     70          1           0       -1.849146   -0.996663    2.616167
     71          1           0       -2.843034   -2.549814    4.254212
     72          1           0       -3.193594   -0.880204    4.564176
     73          1           0       -4.643742   -1.804235    3.860936
     74          1           0       -2.353019   -3.280766   -0.178297
     75          1           0       -1.630160   -1.831219    0.213659
     76          1           0       -0.749056   -2.941471    2.237204
     77          1           0       -1.347844   -4.383882    1.851138
     78          1           0       -1.825844    3.592595    4.128375
     79          1           0       -2.957947    4.983907    4.483159
     80          1           0       -3.426166    3.153005    5.225250
     81          1           0       -5.043965    6.875858    2.123580
     82          1           0      -10.078615    2.974333   -3.105473
     83          1           0      -10.262538    4.502002   -2.832167
     84          1           0       -9.475338    3.830156   -5.404940
     85          1           0       -8.271770    4.746317   -4.752847
     86          1           0       -7.960572    3.082117   -4.772651
     87          1           0       -8.293045   -1.316065   -4.782958
     88          1           0       -8.413211   -2.988095   -3.927704
     89          1           0       -9.548448   -1.631933   -3.680241
     90          1           0       -4.236825   -3.974466   -1.370629
     91          1           0        2.636455   -5.865889    0.599815
     92          1           0        2.133717   -4.580646   -0.616464
     93          1           0        3.709282   -3.987301    1.816011
     94          1           0        2.648309   -3.149322   -1.572824
     95          1           0        3.879530   -1.618361   -1.373171
     96          1           0        4.304794   -3.318042   -2.037849
     97          1           0        4.886488   -1.159973    0.729966
     98          1           0        5.403758   -2.633546    1.712294
     99          1           0        6.839873   -3.524271    0.215904
    100          1           0        6.625241   -2.420527   -1.055201
    101          1           0        7.640503   -0.573015    0.663105
    102          1           0        7.801415   -1.903302    1.846026
    103          1           0        9.175988   -2.048209   -1.028886
    104          1           0        9.011499   -4.095638   -0.010217
    105          1           0       10.711260   -3.473736   -0.070543
    106          1           0        9.612115   -3.568142    1.516959
    107          1           0        9.645340    0.066703    0.562731
    108          1           0       10.462274   -1.022439    1.590862
    109          1           0       11.973190   -1.897940    0.301930
    110          1           0       11.433156   -0.899902   -1.333712
    111          1           0       11.949638    1.156417    0.088322
    112          1           0       12.778549    0.284831    1.217361
    113          1           0       13.430114    0.405525   -1.889277
    114          1           0       14.592716   -0.903159    0.581881
    115          1           0       14.056122   -1.659876   -0.619955
    116          1           0       15.473067   -0.950911   -0.860941
    117          1           0       13.623363    2.598275   -0.248964
    118          1           0       14.759347    1.786246    0.725790
    119          1           0       16.318980    1.247944   -0.815348
    120          1           0       15.406041    2.195108   -2.325735
    121          1           0       15.557444    4.215755   -0.737213
    122          1           0       16.289956    3.501985    0.486787
    123          1           0       18.228526    2.825304   -1.077394
    124          1           0       16.750830    4.858566   -3.232987
    125          1           0       18.376611    4.108712   -3.357205
    126          1           0       16.863226    3.058416   -3.254230
    127          1           0       18.320741    5.006537    0.341227
    128          1           0       19.031424    5.303206   -1.307544
    129          1           0       17.330259    5.771727   -0.914827
    130          1           0       -5.344458   -7.745341   -0.092081
    131          1           0       -6.531480   -6.812305    1.162290
    132          1           0       -4.719810   -6.903691    1.546871
    133          8           0       -7.782724    6.959175   -0.603905
    134          1           0       -9.411112    6.112471   -1.867027
 ---------------------------------------------------------------------

 SCF Done:  E(RCAM-B3LYP) =  -3043.45625089     A.U. after   15 cycles

 Excitation energies and oscillator strengths:

 Excited State   1:      Singlet-A      2.0785 eV  596.52 nm  f=0.2082  <S**2>=0.000
     243 -> 246       -0.23121
     244 -> 245        0.65683
 This state for optimization and/or second-order correction.
 Total Energy, E(TD-HF/TD-KS) =  -3043.37986916
 Copying the excited state density for this state as the 1-particle RhoCI density.

 The electronic state is 1-A.
 Alpha  occ. eigenvalues --  -46.82231 -19.22896 -19.22286 -19.17512 -19.17391
 Alpha  occ. eigenvalues --  -19.17353 -19.17081 -19.16579 -14.38235 -14.37007
 Alpha  occ. eigenvalues --  -14.36832 -14.36587 -10.35337 -10.34272 -10.31710
 Alpha  occ. eigenvalues --  -10.31220 -10.30700 -10.28695 -10.27307 -10.27287
 Alpha  occ. eigenvalues --  -10.27004 -10.26369 -10.26329 -10.26150 -10.25931
 Alpha  occ. eigenvalues --  -10.25865 -10.25777 -10.25719 -10.25642 -10.25288
 Alpha  occ. eigenvalues --  -10.24295 -10.23816 -10.23642 -10.23539 -10.23432
 Alpha  occ. eigenvalues --  -10.23388 -10.23356 -10.23286 -10.23264 -10.23210
 Alpha  occ. eigenvalues --  -10.23078 -10.23071 -10.23064 -10.22815 -10.22763
 Alpha  occ. eigenvalues --  -10.22621 -10.22435 -10.22409 -10.22309 -10.22279
 Alpha  occ. eigenvalues --  -10.22275 -10.22230 -10.21630 -10.21595 -10.21463
 Alpha  occ. eigenvalues --  -10.21308 -10.21267 -10.20860 -10.20852 -10.20607
 Alpha  occ. eigenvalues --  -10.20378 -10.20018 -10.19996 -10.19917 -10.19887
 Alpha  occ. eigenvalues --  -10.17374  -3.10680  -1.85632  -1.85142  -1.85087
 Alpha  occ. eigenvalues --   -1.16167  -1.13538  -1.09957  -1.09211  -1.05814
 Alpha  occ. eigenvalues --   -1.04734  -1.04174  -1.02302  -1.01303  -1.01038
 Alpha  occ. eigenvalues --   -0.98243  -0.88166  -0.87393  -0.86621  -0.85995
 Alpha  occ. eigenvalues --   -0.85476  -0.85100  -0.84809  -0.84739  -0.84143
 Alpha  occ. eigenvalues --   -0.83708  -0.83395  -0.82096  -0.80646  -0.79914
 Alpha  occ. eigenvalues --   -0.78829  -0.78638  -0.77655  -0.77363  -0.77082
 Alpha  occ. eigenvalues --   -0.75964  -0.75559  -0.74665  -0.72887  -0.72504
 Alpha  occ. eigenvalues --   -0.72396  -0.71080  -0.70451  -0.69990  -0.69742
 Alpha  occ. eigenvalues --   -0.69539  -0.69035  -0.68044  -0.67300  -0.66713
 Alpha  occ. eigenvalues --   -0.65935  -0.65309  -0.63406  -0.62493  -0.62154
 Alpha  occ. eigenvalues --   -0.61488  -0.60725  -0.59864  -0.59299  -0.59008
 Alpha  occ. eigenvalues --   -0.58769  -0.58630  -0.58155  -0.57955  -0.56579
 Alpha  occ. eigenvalues --   -0.56502  -0.56419  -0.55842  -0.55637  -0.55043
 Alpha  occ. eigenvalues --   -0.54441  -0.53832  -0.53401  -0.53067  -0.52787
 Alpha  occ. eigenvalues --   -0.51804  -0.51415  -0.51388  -0.51012  -0.50873
 Alpha  occ. eigenvalues --   -0.50333  -0.49747  -0.49585  -0.49402  -0.49307
 Alpha  occ. eigenvalues --   -0.48969  -0.48846  -0.48662  -0.48383  -0.48259
 Alpha  occ. eigenvalues --   -0.48130  -0.47882  -0.47479  -0.47316  -0.47018
 Alpha  occ. eigenvalues --   -0.46947  -0.46872  -0.46500  -0.46303  -0.46152
 Alpha  occ. eigenvalues --   -0.45794  -0.45607  -0.45535  -0.45171  -0.45049
 Alpha  occ. eigenvalues --   -0.44801  -0.44758  -0.44656  -0.44620  -0.44096
 Alpha  occ. eigenvalues --   -0.43906  -0.43772  -0.43560  -0.43485  -0.43357
 Alpha  occ. eigenvalues --   -0.43108  -0.42737  -0.42678  -0.42563  -0.42149
 Alpha  occ. eigenvalues --   -0.42064  -0.41814  -0.41629  -0.41502  -0.41136
 Alpha  occ. eigenvalues --   -0.41085  -0.40806  -0.40690  -0.40465  -0.40325
 Alpha  occ. eigenvalues --   -0.40197  -0.40096  -0.39794  -0.39615  -0.39353
 Alpha  occ. eigenvalues --   -0.39121  -0.38977  -0.38863  -0.38709  -0.38468
 Alpha  occ. eigenvalues --   -0.38167  -0.38076  -0.38056  -0.37485  -0.37257
 Alpha  occ. eigenvalues --   -0.37179  -0.36575  -0.36514  -0.36400  -0.36128
 Alpha  occ. eigenvalues --   -0.35842  -0.34927  -0.34653  -0.34477  -0.34382
 Alpha  occ. eigenvalues --   -0.34280  -0.33976  -0.33648  -0.33094  -0.32555
 Alpha  occ. eigenvalues --   -0.32113  -0.31835  -0.31725  -0.31423  -0.31256
 Alpha  occ. eigenvalues --   -0.30943  -0.30928  -0.30633  -0.30239  -0.29855
 Alpha  occ. eigenvalues --   -0.29421  -0.28336  -0.27907  -0.27836  -0.27440
 Alpha  occ. eigenvalues --   -0.27289  -0.26102  -0.22922  -0.21662
 Alpha virt. eigenvalues --   -0.08408  -0.06112  -0.00748  -0.00630   0.00660
 Alpha virt. eigenvalues --    0.03123   0.03283   0.03963   0.04325   0.04586
 Alpha virt. eigenvalues --    0.04879   0.05679   0.08163   0.08758   0.09227

 Mulliken charges:
               1
     1  Mg   0.824134
     2  C    0.119632
     3  C   -0.255880
     4  C   -0.153254
     5  C   -0.148065
     6  N   -0.679062
     7  C    0.285030
     8  C   -0.155659
     9  C   -0.150413
    10  C    0.418109
    11  C   -0.300101
    12  C   -0.145658
    13  C   -0.280908
    14  C    0.602665
    15  O   -0.463072
    16  O   -0.468586
    17  N   -0.695476
    18  C    0.294943
    19  C    0.065548
    20  C   -0.045483
    21  C    0.324799
    22  C   -0.368487
    23  C    0.223497
    24  O   -0.385468
    25  N   -0.662824
    26  C    0.289342
    27  C    0.013531
    28  C   -0.026392
    29  C    0.319380
    30  C    0.238158
    31  C   -0.223661
    32  C   -0.316816
    33  N   -0.710358
    34  C    0.170314
    35  C    0.111693
    36  C   -0.063847
    37  C    0.373353
    38  C   -0.429443
    39  C    0.359852
    40  O   -0.421558
    41  C   -0.359437
    42  C    0.614905
    43  O   -0.471033
    44  O   -0.405264
    45  C   -0.085590
    46  C   -0.001754
    47  C   -0.124803
    48  C    0.090206
    49  C   -0.365805
    50  C   -0.218185
    51  C   -0.172977
    52  C   -0.156188
    53  C   -0.035956
    54  C   -0.325448
    55  C   -0.160064
    56  C   -0.182923
    57  C   -0.177897
    58  C   -0.032038
    59  C   -0.305067
    60  C   -0.176069
    61  C   -0.146761
    62  C   -0.149213
    63  C   -0.042887
    64  C   -0.323746
    65  C   -0.301168
    66  H    0.053970
    67  H    0.109710
    68  H    0.099040
    69  H    0.114113
    70  H    0.112207
    71  H    0.113264
    72  H    0.116838
    73  H    0.125728
    74  H    0.121194
    75  H    0.112848
    76  H    0.135367
    77  H    0.134969
    78  H    0.138595
    79  H    0.163010
    80  H    0.101133
    81  H    0.073588
    82  H    0.118814
    83  H    0.091891
    84  H    0.112152
    85  H    0.132454
    86  H    0.084584
    87  H    0.150012
    88  H    0.130430
    89  H    0.138493
    90  H    0.151646
    91  H    0.112365
    92  H    0.122856
    93  H    0.076317
    94  H    0.136307
    95  H    0.115272
    96  H    0.130136
    97  H    0.105828
    98  H    0.107958
    99  H    0.116919
   100  H    0.088865
   101  H    0.044272
   102  H    0.060663
   103  H    0.090655
   104  H    0.100425
   105  H    0.098833
   106  H    0.101037
   107  H    0.076358
   108  H    0.080584
   109  H    0.099261
   110  H    0.085601
   111  H    0.099921
   112  H    0.084668
   113  H    0.016073
   114  H    0.106011
   115  H    0.111725
   116  H    0.103740
   117  H    0.093321
   118  H    0.076932
   119  H    0.084471
   120  H    0.074019
   121  H    0.100936
   122  H    0.072403
   123  H    0.024453
   124  H    0.102566
   125  H    0.112959
   126  H    0.094182
   127  H    0.098316
   128  H    0.102781
   129  H    0.089969
   130  H    0.128897
   131  H    0.144047
   132  H    0.093189
   133  O   -0.437571
   134  H    0.067083
 Sum of Mulliken charges =   0.00000

 Dipole moment (field-independent basis, Debye):
    X=              0.6583    Y=             -4.3967    Z=             -0.5791  Tot=              4.4832
 Quadrupole moment (field-independent basis, Debye-Ang):
   XX=           -385.9685   YY=           -443.7343   ZZ=           -392.8026
   XY=             11.4020   XZ=             27.3457   YZ=            -24.6513

 Normal termination of Gaussian 09 at Fri Oct  4 06:31:42 2019.
