 Gaussian 09, Revision D.01,
 Gaussian 09:  ES64L-G09RevD.01 24-Apr-2013

 ----------------------------------------------------------------------
 # td=(NStates=1) iop(3/107=0140000000,3/108=0140000000) iop(3/107=0140
 000000,3/108=0140000000) CAM-B3LYP/6-31G(d,p)
 ----------------------------------------------------------------------

 --
 TD
 --
 Symbolic Z-matrix:
 Charge =  0 Multiplicity = 1

                         Standard orientation:
 ---------------------------------------------------------------------
 Center     Atomic      Atomic             Coordinates (Angstroms)
 Number     Number       Type             X           Y           Z
 ---------------------------------------------------------------------
      1         12           0       -5.686898    1.140061    0.186988
      2          6           0       -5.004633   -2.082162   -0.360658
      3          6           0       -3.476188    1.121744    2.849275
      4          6           0       -6.097036    4.506972    0.704396
      5          6           0       -7.987559    1.160467   -2.348299
      6          7           0       -4.363990   -0.242117    1.052636
      7          6           0       -4.299712   -1.605149    0.735630
      8          6           0       -3.240350   -2.360893    1.593627
      9          6           0       -2.963346   -1.400824    2.777693
     10          6           0       -3.703440   -0.051906    2.190209
     11          6           0       -3.538168   -1.803345    4.048138
     12          6           0       -1.942100   -2.686570    0.667428
     13          6           0       -1.017481   -3.600294    1.471787
     14          6           0        0.279310   -3.908652    0.641044
     15          8           0        0.391635   -3.488104   -0.538566
     16          8           0        1.095563   -4.630952    1.285080
     17          7           0       -5.004000    2.551031    1.534877
     18          6           0       -4.037167    2.368003    2.505705
     19          6           0       -3.751937    3.586697    3.177909
     20          6           0       -4.439091    4.661720    2.547331
     21          6           0       -5.248617    3.888268    1.557795
     22          6           0       -2.891109    3.775769    4.386160
     23          6           0       -4.544409    6.020588    2.774297
     24          8           0       -3.912321    6.548143    3.724975
     25          7           0       -6.863399    2.585703   -0.679606
     26          6           0       -6.987150    3.971799   -0.294203
     27          6           0       -7.828058    4.628872   -1.287355
     28          6           0       -8.353493    3.669609   -2.040920
     29          6           0       -7.710940    2.500787   -1.711463
     30          6           0       -8.214630    6.134952   -1.194003
     31          6           0       -9.405434    3.806642   -3.141055
     32          6           0       -8.764924    3.873058   -4.578133
     33          7           0       -6.548471   -0.109406   -1.105203
     34          6           0       -7.371064   -0.057847   -2.054181
     35          6           0       -7.590775   -1.420511   -2.767576
     36          6           0       -6.685381   -2.214132   -2.151021
     37          6           0       -6.062739   -1.419054   -1.054825
     38          6           0       -8.588608   -1.615594   -3.782175
     39          6           0       -6.142892   -3.489840   -2.004387
     40          8           0       -6.357967   -4.540343   -2.686604
     41          6           0       -5.023518   -3.530948   -0.919756
     42          6           0       -5.290986   -4.617802    0.115244
     43          8           0       -5.804420   -4.418881    1.211326
     44          8           0       -5.064470   -5.825097   -0.402899
     45          6           0       -5.404670   -6.909763    0.443199
     46          6           0        2.369132   -5.008562    0.678112
     47          6           0        3.427940   -4.029075    0.952016
     48          6           0        3.953717   -3.103005    0.121728
     49          6           0        3.716660   -3.007814   -1.320934
     50          6           0        5.178821   -2.304948    0.565181
     51          6           0        6.550525   -2.693991   -0.021055
     52          6           0        7.605415   -1.682536    0.550629
     53          6           0        9.031655   -2.009110   -0.081587
     54          6           0        9.549175   -3.460803    0.155280
     55          6           0       10.008571   -0.907824    0.375152
     56          6           0       11.264646   -0.780747   -0.377175
     57          6           0       12.234114    0.366342    0.077231
     58          6           0       13.546421    0.430179   -0.621591
     59          6           0       14.429285   -0.840866   -0.197657
     60          6           0       14.294673    1.696644   -0.210972
     61          6           0       15.560657    2.015434   -0.946342
     62          6           0       16.122647    3.489359   -0.652462
     63          6           0       17.366492    3.924856   -1.351954
     64          6           0       17.177237    4.038753   -2.811011
     65          6           0       17.927653    5.204156   -0.751596
     66          1           0       -2.773479    1.207800    3.706503
     67          1           0       -6.464394    5.590536    0.631995
     68          1           0       -8.764180    1.355320   -3.245414
     69          1           0       -3.688866   -3.259689    1.967716
     70          1           0       -1.791206   -1.206440    2.798177
     71          1           0       -3.132391   -2.741205    4.212758
     72          1           0       -3.441941   -1.042110    4.820547
     73          1           0       -4.668070   -1.928924    4.104231
     74          1           0       -2.175896   -3.100736   -0.384022
     75          1           0       -1.577863   -1.690641    0.506163
     76          1           0       -0.607688   -3.096819    2.506545
     77          1           0       -1.303069   -4.397031    1.921050
     78          1           0       -1.899671    3.679126    4.286088
     79          1           0       -3.041268    4.833219    4.671410
     80          1           0       -3.346902    3.238835    5.262830
     81          1           0       -5.182850    6.633826    2.114948
     82          1           0      -10.201180    3.003227   -3.289725
     83          1           0      -10.001957    4.749768   -3.037792
     84          1           0       -9.620025    3.948515   -5.310445
     85          1           0       -8.114161    4.757313   -4.702905
     86          1           0       -8.281297    3.036168   -4.720529
     87          1           0       -8.349285   -1.087609   -4.666847
     88          1           0       -8.442345   -2.726590   -4.137870
     89          1           0       -9.669951   -1.380807   -3.501860
     90          1           0       -4.133159   -3.908519   -1.547289
     91          1           0        2.678087   -5.955505    1.167645
     92          1           0        2.271131   -5.110554   -0.323906
     93          1           0        3.969531   -4.099006    1.972184
     94          1           0        2.843823   -3.641883   -1.904713
     95          1           0        3.836397   -1.952581   -1.500876
     96          1           0        4.650941   -3.511571   -1.696133
     97          1           0        4.964661   -1.299814    0.261815
     98          1           0        5.417027   -2.449110    1.825143
     99          1           0        6.916197   -3.606823    0.303826
    100          1           0        6.432531   -2.681311   -1.176309
    101          1           0        7.359189   -0.712121    0.542752
    102          1           0        7.499223   -1.694703    1.660627
    103          1           0        9.012558   -1.911117   -1.105367
    104          1           0        8.845547   -4.343464   -0.330689
    105          1           0       10.484550   -3.714195   -0.172034
    106          1           0        9.582573   -3.714006    1.245785
    107          1           0        9.468936   -0.077621    0.171958
    108          1           0       10.284931   -0.885636    1.414988
    109          1           0       11.662578   -1.960271   -0.388864
    110          1           0       10.888142   -0.576257   -1.446942
    111          1           0       11.592293    1.159977   -0.137324
    112          1           0       12.501193    0.156029    1.217853
    113          1           0       13.323718    0.409160   -1.586263
    114          1           0       14.579242   -0.861903    1.003171
    115          1           0       13.713503   -1.775176   -0.401737
    116          1           0       15.464354   -0.714406   -0.599755
    117          1           0       13.595076    2.480722   -0.544172
    118          1           0       14.559712    1.791599    0.865364
    119          1           0       16.268087    1.229764   -0.715240
    120          1           0       14.980639    2.008874   -1.960741
    121          1           0       15.230735    4.231932   -0.917363
    122          1           0       15.978055    3.367692    0.475334
    123          1           0       18.121071    3.086841   -0.987223
    124          1           0       16.669743    5.071085   -3.016723
    125          1           0       18.152362    3.911865   -3.370615
    126          1           0       16.555841    3.125816   -3.346029
    127          1           0       18.090468    5.184576    0.363873
    128          1           0       18.858981    5.491670   -1.155302
    129          1           0       17.134556    5.913631   -0.928086
    130          1           0       -5.049807   -7.725693   -0.138492
    131          1           0       -6.416957   -6.972409    0.619792
    132          1           0       -5.022330   -6.848950    1.499844
    133          8           0       -7.658539    6.920854   -0.514558
    134          1           0       -9.012890    6.583539   -1.987232
 ---------------------------------------------------------------------

 SCF Done:  E(RCAM-B3LYP) =  -3043.46917436     A.U. after   16 cycles

 Excitation energies and oscillator strengths:

 Excited State   1:      Singlet-A      2.0208 eV  613.53 nm  f=0.1645  <S**2>=0.000
     243 -> 246       -0.28640
     244 -> 245        0.62344
     244 -> 246        0.10921
 This state for optimization and/or second-order correction.
 Total Energy, E(TD-HF/TD-KS) =  -3043.39491029
 Copying the excited state density for this state as the 1-particle RhoCI density.

 The electronic state is 1-A.
 Alpha  occ. eigenvalues --  -46.81689 -19.23514 -19.23311 -19.18860 -19.17278
 Alpha  occ. eigenvalues --  -19.16403 -19.15562 -19.15439 -14.39090 -14.37377
 Alpha  occ. eigenvalues --  -14.36708 -14.36141 -10.35327 -10.34549 -10.32385
 Alpha  occ. eigenvalues --  -10.31210 -10.28865 -10.28012 -10.27602 -10.27463
 Alpha  occ. eigenvalues --  -10.26800 -10.26505 -10.26496 -10.26260 -10.25791
 Alpha  occ. eigenvalues --  -10.25711 -10.25659 -10.25523 -10.25413 -10.25237
 Alpha  occ. eigenvalues --  -10.24764 -10.24536 -10.24076 -10.23960 -10.23859
 Alpha  occ. eigenvalues --  -10.23823 -10.23682 -10.23549 -10.23542 -10.23529
 Alpha  occ. eigenvalues --  -10.23292 -10.23279 -10.23041 -10.23025 -10.22610
 Alpha  occ. eigenvalues --  -10.22334 -10.22308 -10.22303 -10.22301 -10.22293
 Alpha  occ. eigenvalues --  -10.22254 -10.22043 -10.22013 -10.21999 -10.21537
 Alpha  occ. eigenvalues --  -10.21429 -10.21404 -10.21261 -10.21189 -10.20968
 Alpha  occ. eigenvalues --  -10.20951 -10.20686 -10.20230 -10.19819 -10.19631
 Alpha  occ. eigenvalues --  -10.19215  -3.10296  -1.85227  -1.84788  -1.84698
 Alpha  occ. eigenvalues --   -1.15507  -1.14603  -1.10457  -1.04824  -1.04079
 Alpha  occ. eigenvalues --   -1.03686  -1.02304  -1.02290  -0.99825  -0.99175
 Alpha  occ. eigenvalues --   -0.98461  -0.89028  -0.86905  -0.86236  -0.85285
 Alpha  occ. eigenvalues --   -0.85136  -0.85018  -0.84495  -0.83970  -0.83741
 Alpha  occ. eigenvalues --   -0.82725  -0.82478  -0.81934  -0.80807  -0.80149
 Alpha  occ. eigenvalues --   -0.79430  -0.78848  -0.77837  -0.77503  -0.77140
 Alpha  occ. eigenvalues --   -0.75313  -0.75204  -0.74427  -0.73224  -0.72148
 Alpha  occ. eigenvalues --   -0.71409  -0.70872  -0.70584  -0.69741  -0.69143
 Alpha  occ. eigenvalues --   -0.69104  -0.68879  -0.67032  -0.66695  -0.66147
 Alpha  occ. eigenvalues --   -0.65774  -0.65161  -0.64625  -0.63264  -0.61861
 Alpha  occ. eigenvalues --   -0.61326  -0.61256  -0.60698  -0.60512  -0.59118
 Alpha  occ. eigenvalues --   -0.59108  -0.58698  -0.57309  -0.57249  -0.56879
 Alpha  occ. eigenvalues --   -0.56229  -0.56095  -0.55120  -0.54917  -0.54762
 Alpha  occ. eigenvalues --   -0.53785  -0.53303  -0.52658  -0.52416  -0.52241
 Alpha  occ. eigenvalues --   -0.51985  -0.51899  -0.51587  -0.51057  -0.50859
 Alpha  occ. eigenvalues --   -0.50699  -0.50056  -0.49685  -0.49422  -0.49299
 Alpha  occ. eigenvalues --   -0.49127  -0.48891  -0.48297  -0.48015  -0.47984
 Alpha  occ. eigenvalues --   -0.47563  -0.47503  -0.47303  -0.47291  -0.47058
 Alpha  occ. eigenvalues --   -0.46807  -0.46586  -0.46368  -0.46025  -0.45945
 Alpha  occ. eigenvalues --   -0.45720  -0.45396  -0.45237  -0.45038  -0.44874
 Alpha  occ. eigenvalues --   -0.44823  -0.44641  -0.44541  -0.44091  -0.43996
 Alpha  occ. eigenvalues --   -0.43900  -0.43713  -0.43501  -0.43135  -0.42841
 Alpha  occ. eigenvalues --   -0.42680  -0.42430  -0.42271  -0.41796  -0.41447
 Alpha  occ. eigenvalues --   -0.41325  -0.41125  -0.40971  -0.40721  -0.40409
 Alpha  occ. eigenvalues --   -0.40291  -0.40263  -0.39952  -0.39798  -0.39720
 Alpha  occ. eigenvalues --   -0.39509  -0.39459  -0.39381  -0.39252  -0.39223
 Alpha  occ. eigenvalues --   -0.38829  -0.38462  -0.38366  -0.38321  -0.37927
 Alpha  occ. eigenvalues --   -0.37786  -0.37439  -0.37347  -0.37250  -0.37137
 Alpha  occ. eigenvalues --   -0.36810  -0.36571  -0.36407  -0.36091  -0.35726
 Alpha  occ. eigenvalues --   -0.35415  -0.35255  -0.35071  -0.34741  -0.34434
 Alpha  occ. eigenvalues --   -0.34311  -0.34105  -0.33798  -0.33528  -0.33384
 Alpha  occ. eigenvalues --   -0.32866  -0.32595  -0.32072  -0.32036  -0.31762
 Alpha  occ. eigenvalues --   -0.31572  -0.30859  -0.30603  -0.29720  -0.29411
 Alpha  occ. eigenvalues --   -0.29125  -0.28638  -0.28334  -0.27590  -0.27291
 Alpha  occ. eigenvalues --   -0.27127  -0.26700  -0.22533  -0.21190
 Alpha virt. eigenvalues --   -0.08111  -0.06631  -0.02527  -0.00779   0.00902
 Alpha virt. eigenvalues --    0.02778   0.02950   0.03766   0.04314   0.04740
 Alpha virt. eigenvalues --    0.05651   0.06200   0.08330   0.08885   0.09048

 Mulliken charges:
               1
     1  Mg   0.828182
     2  C    0.032785
     3  C   -0.197814
     4  C   -0.183103
     5  C   -0.197709
     6  N   -0.620339
     7  C    0.290446
     8  C   -0.159220
     9  C   -0.127061
    10  C    0.336933
    11  C   -0.306000
    12  C   -0.158224
    13  C   -0.252623
    14  C    0.590679
    15  O   -0.515289
    16  O   -0.412314
    17  N   -0.692428
    18  C    0.331422
    19  C    0.003329
    20  C    0.070612
    21  C    0.294230
    22  C   -0.406286
    23  C    0.201457
    24  O   -0.447690
    25  N   -0.656380
    26  C    0.184730
    27  C   -0.066546
    28  C    0.086579
    29  C    0.301188
    30  C    0.257942
    31  C   -0.272040
    32  C   -0.304996
    33  N   -0.677513
    34  C    0.302865
    35  C    0.052975
    36  C    0.109412
    37  C    0.235810
    38  C   -0.411102
    39  C    0.316079
    40  O   -0.489649
    41  C   -0.300117
    42  C    0.623903
    43  O   -0.487194
    44  O   -0.416755
    45  C   -0.092744
    46  C    0.008434
    47  C   -0.147630
    48  C    0.143268
    49  C   -0.357790
    50  C   -0.225152
    51  C   -0.163888
    52  C   -0.186292
    53  C   -0.044711
    54  C   -0.322827
    55  C   -0.163863
    56  C   -0.194638
    57  C   -0.145254
    58  C   -0.035012
    59  C   -0.311953
    60  C   -0.178647
    61  C   -0.172474
    62  C   -0.148241
    63  C   -0.042807
    64  C   -0.293812
    65  C   -0.302858
    66  H    0.091114
    67  H    0.131731
    68  H    0.074902
    69  H    0.121316
    70  H    0.098666
    71  H    0.115851
    72  H    0.117022
    73  H    0.119075
    74  H    0.123763
    75  H    0.127610
    76  H    0.098073
    77  H    0.135844
    78  H    0.132250
    79  H    0.163211
    80  H    0.112725
    81  H    0.097168
    82  H    0.109746
    83  H    0.104641
    84  H    0.097855
    85  H    0.112657
    86  H    0.123210
    87  H    0.145843
    88  H    0.137412
    89  H    0.137791
    90  H    0.161379
    91  H    0.118394
    92  H    0.129399
    93  H    0.068387
    94  H    0.131452
    95  H    0.115982
    96  H    0.124331
    97  H    0.107561
    98  H    0.064200
    99  H    0.120484
   100  H    0.082015
   101  H    0.100229
   102  H    0.083735
   103  H    0.098372
   104  H    0.071593
   105  H    0.118545
   106  H    0.100324
   107  H    0.095182
   108  H    0.089581
   109  H    0.056078
   110  H    0.070596
   111  H    0.097105
   112  H    0.075607
   113  H    0.090106
   114  H    0.075960
   115  H    0.096564
   116  H    0.106481
   117  H    0.082328
   118  H    0.076701
   119  H    0.091602
   120  H    0.074935
   121  H    0.059320
   122  H    0.082140
   123  H    0.068597
   124  H    0.094335
   125  H    0.105267
   126  H    0.090422
   127  H    0.096973
   128  H    0.107885
   129  H    0.099121
   130  H    0.128516
   131  H    0.141199
   132  H    0.120512
   133  O   -0.366713
   134  H    0.053468
 Sum of Mulliken charges =   0.00000

 Dipole moment (field-independent basis, Debye):
    X=              2.5943    Y=             -5.4179    Z=             -1.5844  Tot=              6.2125
 Quadrupole moment (field-independent basis, Debye-Ang):
   XX=           -363.4842   YY=           -433.7639   ZZ=           -396.8990
   XY=              6.3462   XZ=             22.5547   YZ=            -39.4666

 Normal termination of Gaussian 09 at Fri Oct  4 16:54:02 2019.
