 Gaussian 09, Revision D.01,
 Gaussian 09:  ES64L-G09RevD.01 24-Apr-2013

 ----------------------------------------------------------------------
 # td=(NStates=1) iop(3/107=0140000000,3/108=0140000000) iop(3/107=0140
 000000,3/108=0140000000) CAM-B3LYP/6-31G(d,p)
 ----------------------------------------------------------------------

 --
 TD
 --
 Symbolic Z-matrix:
 Charge =  0 Multiplicity = 1

                         Standard orientation:
 ---------------------------------------------------------------------
 Center     Atomic      Atomic             Coordinates (Angstroms)
 Number     Number       Type             X           Y           Z
 ---------------------------------------------------------------------
      1         12           0       -5.666749    1.185505    0.212213
      2          6           0       -5.018064   -2.098965   -0.273503
      3          6           0       -3.352365    1.265271    2.761243
      4          6           0       -6.187955    4.540038    0.547359
      5          6           0       -7.989767    1.177077   -2.312780
      6          7           0       -4.381734   -0.280108    1.095725
      7          6           0       -4.348506   -1.590850    0.801830
      8          6           0       -3.266058   -2.245697    1.548046
      9          6           0       -2.859540   -1.226644    2.682926
     10          6           0       -3.541837   -0.048873    2.148139
     11          6           0       -3.289067   -1.659156    4.050927
     12          6           0       -2.026306   -2.657054    0.654688
     13          6           0       -1.007645   -3.570628    1.328031
     14          6           0        0.249847   -3.860100    0.561192
     15          8           0        0.482573   -3.364105   -0.499565
     16          8           0        1.065633   -4.763318    1.191098
     17          7           0       -4.905522    2.629525    1.448470
     18          6           0       -4.028320    2.394074    2.464590
     19          6           0       -3.762395    3.717825    3.145651
     20          6           0       -4.520523    4.581027    2.507882
     21          6           0       -5.230609    3.928844    1.410887
     22          6           0       -2.887264    3.851584    4.330019
     23          6           0       -4.637327    6.022028    2.889382
     24          8           0       -3.863821    6.634705    3.703329
     25          7           0       -6.858599    2.660357   -0.656321
     26          6           0       -6.919988    3.920888   -0.412990
     27          6           0       -7.992884    4.558011   -1.220014
     28          6           0       -8.411047    3.564893   -2.018807
     29          6           0       -7.808866    2.359417   -1.666659
     30          6           0       -8.316030    5.989329   -1.223465
     31          6           0       -9.577094    3.725705   -3.069228
     32          6           0       -8.982900    3.743240   -4.523324
     33          7           0       -6.329484   -0.147172   -1.168236
     34          6           0       -7.281390   -0.044708   -2.181810
     35          6           0       -7.514506   -1.378872   -2.757841
     36          6           0       -6.581645   -2.111323   -2.112648
     37          6           0       -5.914773   -1.394384   -1.141321
     38          6           0       -8.600728   -1.647199   -3.715347
     39          6           0       -6.157187   -3.501352   -2.037929
     40          8           0       -6.601750   -4.516916   -2.523172
     41          6           0       -5.043032   -3.511637   -0.873102
     42          6           0       -5.200410   -4.679519    0.201050
     43          8           0       -5.635994   -4.580400    1.341860
     44          8           0       -4.948265   -5.836950   -0.348189
     45          6           0       -5.143562   -6.913688    0.564054
     46          6           0        2.355737   -5.124859    0.515394
     47          6           0        3.415142   -4.164571    0.949867
     48          6           0        4.055649   -3.334240    0.153136
     49          6           0        3.671861   -2.999912   -1.313218
     50          6           0        5.182436   -2.433520    0.688778
     51          6           0        6.497343   -2.779903    0.044423
     52          6           0        7.593718   -1.860276    0.588154
     53          6           0        9.042235   -1.988167   -0.051428
     54          6           0        9.513389   -3.391805    0.000267
     55          6           0        9.971849   -0.947378    0.437673
     56          6           0       11.343213   -0.876323   -0.366107
     57          6           0       12.152428    0.243549    0.247691
     58          6           0       13.511703    0.427130   -0.507606
     59          6           0       14.533418   -0.774604   -0.282350
     60          6           0       14.218459    1.755510   -0.051635
     61          6           0       15.445581    2.128473   -0.868251
     62          6           0       15.944335    3.645161   -0.666866
     63          6           0       17.271097    4.020593   -1.463102
     64          6           0       16.986664    4.091962   -2.974592
     65          6           0       17.887057    5.242965   -0.813726
     66          1           0       -2.623385    1.194079    3.664679
     67          1           0       -6.500143    5.674423    0.658547
     68          1           0       -8.750292    1.330801   -3.058202
     69          1           0       -3.571599   -3.195322    2.153237
     70          1           0       -1.710417   -1.260929    2.844290
     71          1           0       -2.591040   -2.585096    4.394067
     72          1           0       -3.239946   -0.699756    4.729992
     73          1           0       -4.340179   -1.902559    3.985080
     74          1           0       -2.314279   -3.081263   -0.262712
     75          1           0       -1.576206   -1.777719    0.092640
     76          1           0       -0.607616   -2.946584    2.269033
     77          1           0       -1.444757   -4.462708    1.560303
     78          1           0       -1.748252    3.954068    4.039402
     79          1           0       -3.073993    4.761032    4.943449
     80          1           0       -2.887131    3.029047    4.983199
     81          1           0       -5.457403    6.532198    2.537743
     82          1           0      -10.294948    2.948533   -3.139022
     83          1           0      -10.109123    4.666004   -2.916962
     84          1           0       -9.477328    3.909523   -5.452552
     85          1           0       -8.135580    4.507160   -4.804998
     86          1           0       -8.291025    2.683621   -4.573112
     87          1           0       -8.295625   -0.995505   -4.770065
     88          1           0       -8.494635   -2.591435   -3.864411
     89          1           0       -9.648755   -1.539112   -3.225121
     90          1           0       -4.214434   -3.671089   -1.428156
     91          1           0        2.502479   -6.082848    0.905419
     92          1           0        2.188323   -5.351082   -0.511825
     93          1           0        3.555969   -4.103703    1.946498
     94          1           0        2.522732   -3.374519   -1.573707
     95          1           0        3.760248   -1.825092   -1.496198
     96          1           0        4.583014   -3.286603   -2.136749
     97          1           0        4.965300   -1.393292    0.481441
     98          1           0        5.251626   -2.584646    1.810775
     99          1           0        6.756998   -3.673267    0.282124
    100          1           0        6.263030   -2.708403   -1.064044
    101          1           0        7.308727   -0.772654    0.378857
    102          1           0        7.729012   -2.002514    1.748050
    103          1           0        8.868889   -1.841337   -1.060838
    104          1           0        8.666144   -3.953418   -0.284201
    105          1           0       10.432655   -3.509355   -0.710828
    106          1           0        9.833744   -3.720195    1.131492
    107          1           0        9.445249   -0.069540    0.390420
    108          1           0       10.145781   -1.056458    1.609823
    109          1           0       12.022225   -1.703434    0.007916
    110          1           0       10.999858   -0.609817   -1.411311
    111          1           0       11.656622    1.288758    0.149767
    112          1           0       12.237579    0.039204    1.310059
    113          1           0       13.390945    0.342422   -1.675597
    114          1           0       14.783825   -1.062091    0.857140
    115          1           0       13.975450   -1.701168   -0.698994
    116          1           0       15.511275   -0.673412   -0.958729
    117          1           0       13.537018    2.424830   -0.244245
    118          1           0       14.473804    1.758578    0.966907
    119          1           0       16.260015    1.477616   -0.670250
    120          1           0       15.199998    2.146406   -1.936079
    121          1           0       15.182145    4.485062   -0.938322
    122          1           0       16.124890    3.733601    0.394081
    123          1           0       17.859473    3.243961   -1.264362
    124          1           0       16.290861    5.036240   -3.205360
    125          1           0       17.934145    4.421498   -3.256940
    126          1           0       16.603165    3.287110   -3.449284
    127          1           0       18.274845    4.843967    0.153965
    128          1           0       18.811511    5.446010   -1.484286
    129          1           0       16.990604    6.048624   -0.698410
    130          1           0       -4.881789   -7.855439   -0.194520
    131          1           0       -6.166466   -6.926987    0.907667
    132          1           0       -4.492271   -6.702112    1.401280
    133          8           0       -7.759529    6.805114   -0.489211
    134          1           0       -9.205397    6.278435   -1.803936
 ---------------------------------------------------------------------

 SCF Done:  E(RCAM-B3LYP) =  -3043.49899294     A.U. after   15 cycles

 Excitation energies and oscillator strengths:

 Excited State   1:      Singlet-A      2.1606 eV  573.85 nm  f=0.1561  <S**2>=0.000
     243 -> 246        0.29158
     244 -> 245        0.63237
 This state for optimization and/or second-order correction.
 Total Energy, E(TD-HF/TD-KS) =  -3043.41959329
 Copying the excited state density for this state as the 1-particle RhoCI density.

 The electronic state is 1-A.
 Alpha  occ. eigenvalues --  -46.81824 -19.23103 -19.21759 -19.17547 -19.17278
 Alpha  occ. eigenvalues --  -19.17230 -19.16952 -19.16853 -14.39628 -14.36897
 Alpha  occ. eigenvalues --  -14.36415 -14.36195 -10.35152 -10.34863 -10.31200
 Alpha  occ. eigenvalues --  -10.30829 -10.29819 -10.28503 -10.28167 -10.27243
 Alpha  occ. eigenvalues --  -10.26868 -10.26798 -10.26768 -10.25759 -10.25338
 Alpha  occ. eigenvalues --  -10.25199 -10.24960 -10.24614 -10.24598 -10.24532
 Alpha  occ. eigenvalues --  -10.24498 -10.24465 -10.24394 -10.24299 -10.24253
 Alpha  occ. eigenvalues --  -10.24228 -10.24226 -10.24048 -10.24010 -10.23952
 Alpha  occ. eigenvalues --  -10.23829 -10.23491 -10.23376 -10.23122 -10.22688
 Alpha  occ. eigenvalues --  -10.22608 -10.22581 -10.22455 -10.22401 -10.22126
 Alpha  occ. eigenvalues --  -10.22054 -10.21942 -10.21940 -10.21624 -10.21447
 Alpha  occ. eigenvalues --  -10.21153 -10.20836 -10.20833 -10.20516 -10.20379
 Alpha  occ. eigenvalues --  -10.20334 -10.20098 -10.20072 -10.19998 -10.19436
 Alpha  occ. eigenvalues --  -10.18556  -3.10346  -1.85297  -1.84808  -1.84750
 Alpha  occ. eigenvalues --   -1.15615  -1.12579  -1.07294  -1.06659  -1.04736
 Alpha  occ. eigenvalues --   -1.04392  -1.03154  -1.01916  -1.01157  -1.00723
 Alpha  occ. eigenvalues --   -1.00025  -0.88279  -0.86538  -0.86116  -0.85910
 Alpha  occ. eigenvalues --   -0.85195  -0.84782  -0.84119  -0.84047  -0.83848
 Alpha  occ. eigenvalues --   -0.83361  -0.82949  -0.82326  -0.80955  -0.79645
 Alpha  occ. eigenvalues --   -0.78924  -0.78633  -0.78153  -0.77474  -0.76235
 Alpha  occ. eigenvalues --   -0.75251  -0.74593  -0.74102  -0.73146  -0.72561
 Alpha  occ. eigenvalues --   -0.71208  -0.70192  -0.69945  -0.69543  -0.69277
 Alpha  occ. eigenvalues --   -0.69173  -0.68856  -0.67688  -0.66789  -0.66706
 Alpha  occ. eigenvalues --   -0.66379  -0.64522  -0.64478  -0.62398  -0.62205
 Alpha  occ. eigenvalues --   -0.61489  -0.60849  -0.60124  -0.59721  -0.58867
 Alpha  occ. eigenvalues --   -0.58636  -0.58378  -0.58116  -0.57799  -0.57061
 Alpha  occ. eigenvalues --   -0.56655  -0.56572  -0.56346  -0.55355  -0.55234
 Alpha  occ. eigenvalues --   -0.54361  -0.54005  -0.53055  -0.52847  -0.52597
 Alpha  occ. eigenvalues --   -0.52190  -0.51992  -0.51396  -0.51064  -0.50773
 Alpha  occ. eigenvalues --   -0.50424  -0.50034  -0.49992  -0.49788  -0.49385
 Alpha  occ. eigenvalues --   -0.48814  -0.48609  -0.48333  -0.48140  -0.47800
 Alpha  occ. eigenvalues --   -0.47750  -0.47607  -0.47455  -0.47216  -0.47161
 Alpha  occ. eigenvalues --   -0.47038  -0.46310  -0.46034  -0.45832  -0.45812
 Alpha  occ. eigenvalues --   -0.45596  -0.45573  -0.45159  -0.45022  -0.44726
 Alpha  occ. eigenvalues --   -0.44551  -0.44354  -0.43991  -0.43565  -0.43371
 Alpha  occ. eigenvalues --   -0.43174  -0.43083  -0.42875  -0.42612  -0.42457
 Alpha  occ. eigenvalues --   -0.42165  -0.42076  -0.41736  -0.41633  -0.41595
 Alpha  occ. eigenvalues --   -0.41312  -0.41187  -0.41102  -0.40987  -0.40698
 Alpha  occ. eigenvalues --   -0.40505  -0.40201  -0.40142  -0.39944  -0.39873
 Alpha  occ. eigenvalues --   -0.39753  -0.39464  -0.39365  -0.39292  -0.39123
 Alpha  occ. eigenvalues --   -0.38674  -0.38613  -0.38493  -0.38415  -0.38307
 Alpha  occ. eigenvalues --   -0.38157  -0.37999  -0.37610  -0.37513  -0.37393
 Alpha  occ. eigenvalues --   -0.37026  -0.36584  -0.36311  -0.35756  -0.35683
 Alpha  occ. eigenvalues --   -0.35640  -0.35224  -0.35095  -0.34734  -0.34663
 Alpha  occ. eigenvalues --   -0.34534  -0.34461  -0.34068  -0.33697  -0.33554
 Alpha  occ. eigenvalues --   -0.33416  -0.33138  -0.32262  -0.32050  -0.31696
 Alpha  occ. eigenvalues --   -0.31367  -0.31154  -0.30563  -0.30300  -0.29861
 Alpha  occ. eigenvalues --   -0.29054  -0.28790  -0.28460  -0.28190  -0.27822
 Alpha  occ. eigenvalues --   -0.27474  -0.27413  -0.22921  -0.21578
 Alpha virt. eigenvalues --   -0.07897  -0.06352  -0.01994  -0.00826   0.00491
 Alpha virt. eigenvalues --    0.03038   0.03123   0.03568   0.03693   0.04421
 Alpha virt. eigenvalues --    0.04642   0.06117   0.07485   0.08374   0.09472

 Mulliken charges:
               1
     1  Mg   0.824860
     2  C    0.086299
     3  C   -0.201747
     4  C   -0.210881
     5  C   -0.172083
     6  N   -0.634530
     7  C    0.331843
     8  C   -0.175423
     9  C   -0.150403
    10  C    0.353346
    11  C   -0.292349
    12  C   -0.183808
    13  C   -0.244218
    14  C    0.595741
    15  O   -0.449318
    16  O   -0.496464
    17  N   -0.729710
    18  C    0.327452
    19  C    0.079860
    20  C   -0.048204
    21  C    0.340909
    22  C   -0.388168
    23  C    0.252206
    24  O   -0.444477
    25  N   -0.711739
    26  C    0.350072
    27  C   -0.044070
    28  C    0.038103
    29  C    0.303839
    30  C    0.255215
    31  C   -0.243064
    32  C   -0.316578
    33  N   -0.741164
    34  C    0.234657
    35  C    0.038148
    36  C    0.011630
    37  C    0.320570
    38  C   -0.351891
    39  C    0.336444
    40  O   -0.446557
    41  C   -0.320589
    42  C    0.603470
    43  O   -0.496058
    44  O   -0.403242
    45  C   -0.083630
    46  C   -0.000748
    47  C   -0.134646
    48  C    0.170996
    49  C   -0.368219
    50  C   -0.235523
    51  C   -0.154440
    52  C   -0.184223
    53  C   -0.052776
    54  C   -0.290779
    55  C   -0.161813
    56  C   -0.176095
    57  C   -0.174971
    58  C   -0.057302
    59  C   -0.311829
    60  C   -0.146636
    61  C   -0.196253
    62  C   -0.183606
    63  C   -0.062256
    64  C   -0.294631
    65  C   -0.293405
    66  H    0.092659
    67  H    0.144269
    68  H    0.085628
    69  H    0.116138
    70  H    0.108490
    71  H    0.100847
    72  H    0.095718
    73  H    0.130872
    74  H    0.116240
    75  H    0.116423
    76  H    0.113596
    77  H    0.140584
    78  H    0.119601
    79  H    0.155401
    80  H    0.118669
    81  H    0.100579
    82  H    0.133268
    83  H    0.113553
    84  H    0.123986
    85  H    0.098450
    86  H    0.071898
    87  H    0.105262
    88  H    0.154123
    89  H    0.127482
    90  H    0.159677
    91  H    0.121961
    92  H    0.128872
    93  H    0.086150
    94  H    0.140965
    95  H    0.104657
    96  H    0.082961
    97  H    0.105274
    98  H    0.083689
    99  H    0.115416
   100  H    0.085168
   101  H    0.076208
   102  H    0.075360
   103  H    0.088595
   104  H    0.105588
   105  H    0.091886
   106  H    0.065774
   107  H    0.095616
   108  H    0.058881
   109  H    0.113726
   110  H    0.097756
   111  H    0.072502
   112  H    0.098497
   113  H    0.072460
   114  H    0.082093
   115  H    0.086888
   116  H    0.093019
   117  H    0.098104
   118  H    0.093955
   119  H    0.096760
   120  H    0.088475
   121  H    0.067210
   122  H    0.079292
   123  H    0.095931
   124  H    0.073255
   125  H    0.103050
   126  H    0.116019
   127  H    0.107118
   128  H    0.087778
   129  H    0.092158
   130  H    0.107957
   131  H    0.146360
   132  H    0.130677
   133  O   -0.426301
   134  H    0.073686
 Sum of Mulliken charges =   0.00000

 Dipole moment (field-independent basis, Debye):
    X=              1.0065    Y=             -4.7953    Z=             -0.6810  Tot=              4.9468
 Quadrupole moment (field-independent basis, Debye-Ang):
   XX=           -372.3991   YY=           -445.8943   ZZ=           -392.4335
   XY=             -2.7614   XZ=             19.0244   YZ=            -31.2479

 Normal termination of Gaussian 09 at Mon Oct  7 21:27:27 2019.
