 Gaussian 09, Revision D.01,
 Gaussian 09:  ES64L-G09RevD.01 24-Apr-2013

 ----------------------------------------------------------------------
 # td=(NStates=1) iop(3/107=0140000000,3/108=0140000000) iop(3/107=0140
 000000,3/108=0140000000) CAM-B3LYP/6-31G(d,p)
 ----------------------------------------------------------------------

 --
 TD
 --
 Symbolic Z-matrix:
 Charge =  0 Multiplicity = 1

                         Standard orientation:
 ---------------------------------------------------------------------
 Center     Atomic      Atomic             Coordinates (Angstroms)
 Number     Number       Type             X           Y           Z
 ---------------------------------------------------------------------
      1         12           0       -5.630283    1.307649    0.220735
      2          6           0       -5.014229   -2.153428   -0.434846
      3          6           0       -3.362218    1.129989    2.794443
      4          6           0       -6.081469    4.564421    0.714238
      5          6           0       -7.958322    1.173446   -2.351075
      6          7           0       -4.432265   -0.294256    1.070162
      7          6           0       -4.282322   -1.567170    0.648879
      8          6           0       -3.322747   -2.390343    1.490241
      9          6           0       -3.030096   -1.473110    2.626083
     10          6           0       -3.616074   -0.146102    2.235079
     11          6           0       -3.547095   -1.878475    4.082808
     12          6           0       -2.055809   -2.725496    0.602575
     13          6           0       -1.056698   -3.743560    1.404442
     14          6           0        0.239288   -4.001895    0.594169
     15          8           0        0.566262   -3.415187   -0.363072
     16          8           0        0.965029   -4.927393    1.282410
     17          7           0       -4.922453    2.611603    1.490344
     18          6           0       -3.931376    2.419638    2.426934
     19          6           0       -3.634393    3.681779    3.173721
     20          6           0       -4.513357    4.590873    2.569659
     21          6           0       -5.216484    3.869684    1.536496
     22          6           0       -2.717578    3.907912    4.257257
     23          6           0       -4.744437    5.973565    2.962250
     24          8           0       -3.988739    6.578918    3.772922
     25          7           0       -6.867364    2.677893   -0.751009
     26          6           0       -6.934436    3.977132   -0.342051
     27          6           0       -7.922014    4.639485   -1.102846
     28          6           0       -8.400956    3.645903   -2.042043
     29          6           0       -7.804936    2.422419   -1.758127
     30          6           0       -8.256712    5.961475   -1.061898
     31          6           0       -9.379135    3.927169   -3.174859
     32          6           0       -8.595847    4.086481   -4.587634
     33          7           0       -6.438555   -0.146400   -1.113936
     34          6           0       -7.367672   -0.048825   -2.079731
     35          6           0       -7.585816   -1.354186   -2.736684
     36          6           0       -6.681846   -2.178932   -2.060203
     37          6           0       -5.897584   -1.450471   -1.157553
     38          6           0       -8.550061   -1.603014   -3.809433
     39          6           0       -6.190086   -3.520164   -2.019909
     40          8           0       -6.549856   -4.493792   -2.679120
     41          6           0       -4.982428   -3.510337   -0.911290
     42          6           0       -5.338497   -4.580398    0.070708
     43          8           0       -5.791693   -4.433108    1.079600
     44          8           0       -5.023139   -5.791685   -0.482437
     45          6           0       -5.210594   -6.919854    0.408694
     46          6           0        2.289064   -5.059409    0.691664
     47          6           0        3.431726   -4.082895    1.046194
     48          6           0        3.976306   -3.316312    0.210634
     49          6           0        3.701237   -3.139628   -1.340738
     50          6           0        5.155104   -2.421143    0.646697
     51          6           0        6.496936   -2.667460    0.012326
     52          6           0        7.677767   -1.807131    0.643820
     53          6           0        9.006191   -1.973491   -0.071804
     54          6           0        9.550045   -3.335586    0.201529
     55          6           0        9.927223   -0.922685    0.415323
     56          6           0       11.295644   -0.876814   -0.192912
     57          6           0       12.179189    0.389079    0.191816
     58          6           0       13.486686    0.499583   -0.529532
     59          6           0       14.336116   -0.731728   -0.363399
     60          6           0       14.250650    1.748419   -0.167429
     61          6           0       15.465862    2.079277   -1.002628
     62          6           0       16.044416    3.494643   -0.683159
     63          6           0       17.442612    3.881304   -1.351968
     64          6           0       17.176182    3.933226   -2.843783
     65          6           0       17.868896    5.414614   -0.865426
     66          1           0       -2.595995    1.044081    3.634616
     67          1           0       -6.249715    5.694662    0.923085
     68          1           0       -8.859080    1.251761   -3.071605
     69          1           0       -3.631576   -3.315144    1.902623
     70          1           0       -1.941547   -1.573221    2.683990
     71          1           0       -3.099876   -2.870024    4.230234
     72          1           0       -3.238674   -1.030507    4.756883
     73          1           0       -4.841942   -1.930427    3.865942
     74          1           0       -2.312519   -2.977310   -0.394301
     75          1           0       -1.469530   -1.862852    0.346455
     76          1           0       -0.664843   -3.146065    2.361463
     77          1           0       -1.507764   -4.622266    1.677251
     78          1           0       -1.775146    3.334792    3.973503
     79          1           0       -2.770682    4.903235    4.715411
     80          1           0       -3.055880    3.296902    5.159910
     81          1           0       -5.573417    6.431387    2.586181
     82          1           0      -10.161226    3.093173   -3.281502
     83          1           0       -9.806323    5.051497   -2.869384
     84          1           0       -9.316450    3.971464   -5.418842
     85          1           0       -7.966865    5.142308   -4.407987
     86          1           0       -7.655385    3.436380   -4.647573
     87          1           0       -8.550538   -0.969542   -4.590872
     88          1           0       -8.662746   -2.603938   -4.202021
     89          1           0       -9.535183   -1.222445   -3.544971
     90          1           0       -4.028950   -3.821517   -1.511079
     91          1           0        2.515864   -6.048559    0.961893
     92          1           0        2.351970   -5.070789   -0.393855
     93          1           0        3.861607   -3.990862    1.986050
     94          1           0        2.583301   -3.561189   -1.639786
     95          1           0        3.713000   -2.185890   -1.592776
     96          1           0        4.439549   -3.793024   -1.738206
     97          1           0        5.061660   -1.278022    0.536997
     98          1           0        5.210625   -2.699264    1.606482
     99          1           0        6.866358   -3.886792    0.248160
    100          1           0        6.542615   -2.320777   -0.837284
    101          1           0        7.314855   -0.956773    0.542973
    102          1           0        7.856906   -2.169287    1.671570
    103          1           0        8.969376   -1.914703   -1.129465
    104          1           0        8.982688   -4.094838   -0.257557
    105          1           0       10.658208   -3.656099   -0.141428
    106          1           0        9.509007   -3.425476    1.268095
    107          1           0        9.327235   -0.001497    0.554305
    108          1           0        9.790750   -0.945842    1.472830
    109          1           0       12.092187   -1.669641    0.329080
    110          1           0       11.207187   -1.077458   -1.362373
    111          1           0       11.795706    1.352491    0.122737
    112          1           0       12.263824    0.340181    1.349470
    113          1           0       13.242549    0.443773   -1.574813
    114          1           0       14.618048   -0.654845    0.677260
    115          1           0       13.833308   -1.796597   -0.505469
    116          1           0       15.210087   -0.493125   -1.011716
    117          1           0       13.653731    2.703237   -0.047518
    118          1           0       14.747534    1.563924    0.721350
    119          1           0       16.314958    1.321286   -1.010066
    120          1           0       15.166801    2.135814   -2.055231
    121          1           0       15.131621    4.208969   -0.939267
    122          1           0       16.055499    3.535510    0.410330
    123          1           0       18.157776    3.249596   -1.264821
    124          1           0       16.360304    4.512868   -3.137410
    125          1           0       17.942639    4.417638   -3.388880
    126          1           0       16.830479    2.905386   -3.324998
    127          1           0       18.289649    5.386146    0.052480
    128          1           0       18.615289    5.753253   -1.508202
    129          1           0       17.107500    6.193647   -1.003893
    130          1           0       -5.117549   -7.886318   -0.442606
    131          1           0       -6.220115   -6.849950    0.852639
    132          1           0       -4.247776   -6.990250    1.203514
    133          8           0       -7.836835    6.948027   -0.389957
    134          1           0       -8.758266    6.339017   -2.112825
 ---------------------------------------------------------------------

 SCF Done:  E(RCAM-B3LYP) =  -3043.36657593     A.U. after   16 cycles

 Excitation energies and oscillator strengths:

 Excited State   1:      Singlet-A      1.9998 eV  619.99 nm  f=0.1285  <S**2>=0.000
     243 -> 245       -0.12947
     243 -> 246       -0.26879
     244 -> 245        0.60888
     244 -> 246       -0.17794
 This state for optimization and/or second-order correction.
 Total Energy, E(TD-HF/TD-KS) =  -3043.29308510
 Copying the excited state density for this state as the 1-particle RhoCI density.

 The electronic state is 1-A.
 Alpha  occ. eigenvalues --  -46.82326 -19.23195 -19.21326 -19.18616 -19.18142
 Alpha  occ. eigenvalues --  -19.17190 -19.16920 -19.15898 -14.40035 -14.38172
 Alpha  occ. eigenvalues --  -14.36652 -14.36342 -10.35494 -10.34257 -10.31364
 Alpha  occ. eigenvalues --  -10.30278 -10.29790 -10.29559 -10.28855 -10.28821
 Alpha  occ. eigenvalues --  -10.28541 -10.27242 -10.26664 -10.26597 -10.26321
 Alpha  occ. eigenvalues --  -10.26305 -10.25801 -10.25604 -10.25458 -10.25420
 Alpha  occ. eigenvalues --  -10.25326 -10.25291 -10.25117 -10.25074 -10.25020
 Alpha  occ. eigenvalues --  -10.24895 -10.24777 -10.24496 -10.24143 -10.24124
 Alpha  occ. eigenvalues --  -10.23736 -10.23531 -10.23417 -10.23075 -10.22829
 Alpha  occ. eigenvalues --  -10.22614 -10.22385 -10.22312 -10.22013 -10.21727
 Alpha  occ. eigenvalues --  -10.21668 -10.21262 -10.21236 -10.20901 -10.20702
 Alpha  occ. eigenvalues --  -10.20517 -10.20419 -10.20418 -10.20391 -10.20253
 Alpha  occ. eigenvalues --  -10.20228 -10.19909 -10.19720 -10.19685 -10.19373
 Alpha  occ. eigenvalues --  -10.19337  -3.10814  -1.85760  -1.85286  -1.85216
 Alpha  occ. eigenvalues --   -1.16753  -1.14974  -1.07214  -1.07133  -1.06177
 Alpha  occ. eigenvalues --   -1.04381  -1.03118  -1.02549  -1.00462  -0.99620
 Alpha  occ. eigenvalues --   -0.98827  -0.90366  -0.87554  -0.86413  -0.86188
 Alpha  occ. eigenvalues --   -0.85720  -0.85314  -0.84518  -0.84092  -0.83554
 Alpha  occ. eigenvalues --   -0.83340  -0.82769  -0.81775  -0.81037  -0.79817
 Alpha  occ. eigenvalues --   -0.79318  -0.78623  -0.76911  -0.76794  -0.76621
 Alpha  occ. eigenvalues --   -0.76088  -0.75513  -0.74383  -0.73115  -0.72480
 Alpha  occ. eigenvalues --   -0.71734  -0.71479  -0.71290  -0.70562  -0.70098
 Alpha  occ. eigenvalues --   -0.69600  -0.69492  -0.68198  -0.67572  -0.66950
 Alpha  occ. eigenvalues --   -0.65479  -0.65401  -0.64491  -0.63221  -0.62826
 Alpha  occ. eigenvalues --   -0.61968  -0.61648  -0.60761  -0.60336  -0.59884
 Alpha  occ. eigenvalues --   -0.59665  -0.58569  -0.58383  -0.58250  -0.57525
 Alpha  occ. eigenvalues --   -0.57151  -0.56238  -0.55635  -0.55624  -0.55210
 Alpha  occ. eigenvalues --   -0.54686  -0.53920  -0.53556  -0.53009  -0.52741
 Alpha  occ. eigenvalues --   -0.52441  -0.52189  -0.51805  -0.51263  -0.50425
 Alpha  occ. eigenvalues --   -0.50141  -0.49986  -0.49788  -0.49502  -0.49211
 Alpha  occ. eigenvalues --   -0.48996  -0.48794  -0.48703  -0.48645  -0.48235
 Alpha  occ. eigenvalues --   -0.48089  -0.47701  -0.47523  -0.47348  -0.47089
 Alpha  occ. eigenvalues --   -0.46823  -0.46812  -0.46573  -0.46109  -0.45998
 Alpha  occ. eigenvalues --   -0.45783  -0.45718  -0.45249  -0.45213  -0.44984
 Alpha  occ. eigenvalues --   -0.44704  -0.44625  -0.44383  -0.44134  -0.43956
 Alpha  occ. eigenvalues --   -0.43708  -0.43572  -0.43113  -0.43038  -0.42985
 Alpha  occ. eigenvalues --   -0.42802  -0.42450  -0.42293  -0.42253  -0.42221
 Alpha  occ. eigenvalues --   -0.41779  -0.41693  -0.41546  -0.41491  -0.40950
 Alpha  occ. eigenvalues --   -0.40747  -0.40696  -0.40682  -0.40287  -0.39980
 Alpha  occ. eigenvalues --   -0.39788  -0.39593  -0.39540  -0.39415  -0.39166
 Alpha  occ. eigenvalues --   -0.39137  -0.39084  -0.38875  -0.38754  -0.38201
 Alpha  occ. eigenvalues --   -0.38145  -0.38133  -0.37965  -0.37856  -0.37623
 Alpha  occ. eigenvalues --   -0.37460  -0.36760  -0.36755  -0.36503  -0.36037
 Alpha  occ. eigenvalues --   -0.35735  -0.35576  -0.35442  -0.35066  -0.35044
 Alpha  occ. eigenvalues --   -0.34725  -0.34344  -0.34083  -0.33732  -0.33312
 Alpha  occ. eigenvalues --   -0.32648  -0.32454  -0.32321  -0.32223  -0.31976
 Alpha  occ. eigenvalues --   -0.31798  -0.31653  -0.31074  -0.30732  -0.30002
 Alpha  occ. eigenvalues --   -0.29437  -0.28724  -0.28052  -0.27943  -0.27529
 Alpha  occ. eigenvalues --   -0.27481  -0.25983  -0.23557  -0.21779
 Alpha virt. eigenvalues --   -0.08727  -0.07741  -0.02607  -0.01239  -0.00063
 Alpha virt. eigenvalues --    0.03081   0.03368   0.03715   0.04127   0.04677
 Alpha virt. eigenvalues --    0.05270   0.05510   0.07289   0.07595   0.08518

 Mulliken charges:
               1
     1  Mg   0.839118
     2  C    0.133107
     3  C   -0.212107
     4  C   -0.186389
     5  C   -0.175872
     6  N   -0.633023
     7  C    0.322193
     8  C   -0.129824
     9  C   -0.163035
    10  C    0.330653
    11  C   -0.280424
    12  C   -0.200465
    13  C   -0.274825
    14  C    0.605432
    15  O   -0.425111
    16  O   -0.467784
    17  N   -0.734792
    18  C    0.268266
    19  C    0.089645
    20  C   -0.039207
    21  C    0.392560
    22  C   -0.406336
    23  C    0.253705
    24  O   -0.447768
    25  N   -0.725606
    26  C    0.312241
    27  C    0.064232
    28  C    0.019675
    29  C    0.320229
    30  C    0.162790
    31  C   -0.251259
    32  C   -0.303367
    33  N   -0.722769
    34  C    0.313237
    35  C    0.066562
    36  C    0.043049
    37  C    0.263859
    38  C   -0.398189
    39  C    0.326732
    40  O   -0.459425
    41  C   -0.390473
    42  C    0.623324
    43  O   -0.401149
    44  O   -0.461705
    45  C   -0.073471
    46  C   -0.000957
    47  C   -0.146125
    48  C    0.149727
    49  C   -0.362537
    50  C   -0.224788
    51  C   -0.153300
    52  C   -0.176522
    53  C   -0.068871
    54  C   -0.295656
    55  C   -0.146424
    56  C   -0.161998
    57  C   -0.174076
    58  C   -0.048735
    59  C   -0.314382
    60  C   -0.177567
    61  C   -0.195297
    62  C   -0.169046
    63  C   -0.040915
    64  C   -0.315385
    65  C   -0.336368
    66  H    0.086191
    67  H    0.141582
    68  H    0.077991
    69  H    0.124370
    70  H    0.109291
    71  H    0.118317
    72  H    0.120570
    73  H    0.091593
    74  H    0.120224
    75  H    0.125722
    76  H    0.123899
    77  H    0.138408
    78  H    0.124242
    79  H    0.175951
    80  H    0.119545
    81  H    0.100162
    82  H    0.104399
    83  H    0.100378
    84  H    0.120943
    85  H    0.095203
    86  H    0.115956
    87  H    0.142311
    88  H    0.154084
    89  H    0.127987
    90  H    0.155206
    91  H    0.112239
    92  H    0.123167
    93  H    0.070699
    94  H    0.112148
    95  H    0.122716
    96  H    0.132171
    97  H    0.086052
    98  H    0.095805
    99  H    0.054062
   100  H    0.103773
   101  H    0.089964
   102  H    0.091411
   103  H    0.079994
   104  H    0.106140
   105  H    0.078540
   106  H    0.094128
   107  H    0.076009
   108  H    0.083054
   109  H    0.084161
   110  H    0.078471
   111  H    0.089330
   112  H    0.067610
   113  H    0.087380
   114  H    0.098382
   115  H    0.094584
   116  H    0.098308
   117  H    0.085486
   118  H    0.105923
   119  H    0.086281
   120  H    0.091798
   121  H    0.073895
   122  H    0.082860
   123  H    0.099035
   124  H    0.109583
   125  H    0.096092
   126  H    0.080135
   127  H    0.113739
   128  H    0.103600
   129  H    0.106402
   130  H    0.105794
   131  H    0.146086
   132  H    0.094916
   133  O   -0.464326
   134  H    0.030866
 Sum of Mulliken charges =   0.00000

 Dipole moment (field-independent basis, Debye):
    X=              3.3103    Y=             -5.7348    Z=              0.1270  Tot=              6.6228
 Quadrupole moment (field-independent basis, Debye-Ang):
   XX=           -389.6480   YY=           -458.1968   ZZ=           -391.2303
   XY=             31.0275   XZ=             16.3042   YZ=            -28.2103

 Normal termination of Gaussian 09 at Sat Oct  5 03:22:59 2019.
