 Gaussian 09, Revision D.01,
 Gaussian 09:  ES64L-G09RevD.01 24-Apr-2013

 ----------------------------------------------------------------------
 # td=(NStates=1) iop(3/107=0140000000,3/108=0140000000) iop(3/107=0140
 000000,3/108=0140000000) CAM-B3LYP/6-31G(d,p)
 ----------------------------------------------------------------------

 --
 TD
 --
 Symbolic Z-matrix:
 Charge =  0 Multiplicity = 1

                         Standard orientation:
 ---------------------------------------------------------------------
 Center     Atomic      Atomic             Coordinates (Angstroms)
 Number     Number       Type             X           Y           Z
 ---------------------------------------------------------------------
      1         12           0       -5.594979    1.266167    0.214072
      2          6           0       -5.054656   -2.196247   -0.326616
      3          6           0       -3.275859    1.233156    2.759993
      4          6           0       -6.096197    4.512832    0.662756
      5          6           0       -7.957880    1.126322   -2.317143
      6          7           0       -4.295174   -0.218119    0.949430
      7          6           0       -4.261204   -1.661119    0.711510
      8          6           0       -3.200463   -2.301282    1.437181
      9          6           0       -2.827916   -1.247715    2.625742
     10          6           0       -3.544238   -0.035576    2.154753
     11          6           0       -3.337124   -1.759914    3.956822
     12          6           0       -1.932017   -2.784291    0.632862
     13          6           0       -1.060455   -3.664582    1.333362
     14          6           0        0.236958   -3.966518    0.557187
     15          8           0        0.542985   -3.468363   -0.454307
     16          8           0        1.012318   -4.821875    1.245604
     17          7           0       -4.864083    2.663343    1.627941
     18          6           0       -3.940441    2.425640    2.557597
     19          6           0       -3.557119    3.714156    3.215640
     20          6           0       -4.431870    4.670149    2.543569
     21          6           0       -5.185948    3.942564    1.577222
     22          6           0       -2.550802    3.880113    4.220951
     23          6           0       -4.476441    6.140253    2.855228
     24          8           0       -3.881279    6.684960    3.753433
     25          7           0       -6.738407    2.676719   -0.707193
     26          6           0       -6.964548    4.030875   -0.333805
     27          6           0       -7.877499    4.718947   -1.261104
     28          6           0       -8.402807    3.670772   -2.128747
     29          6           0       -7.661692    2.456276   -1.749505
     30          6           0       -8.171280    6.132136   -1.308048
     31          6           0       -9.323534    3.899523   -3.175679
     32          6           0       -8.684219    4.064003   -4.609649
     33          7           0       -6.456555   -0.128661   -0.945593
     34          6           0       -7.255756   -0.038462   -2.063510
     35          6           0       -7.536983   -1.399412   -2.678660
     36          6           0       -6.821741   -2.238791   -1.843784
     37          6           0       -6.066087   -1.401543   -0.899356
     38          6           0       -8.587957   -1.605670   -3.654609
     39          6           0       -6.204196   -3.545968   -1.923244
     40          8           0       -6.614747   -4.483588   -2.669985
     41          6           0       -5.132222   -3.642057   -0.897664
     42          6           0       -5.424705   -4.701570    0.239611
     43          8           0       -5.783294   -4.345848    1.297521
     44          8           0       -5.241790   -5.855014   -0.355346
     45          6           0       -5.522920   -6.908600    0.508811
     46          6           0        2.298063   -5.201636    0.578186
     47          6           0        3.374674   -4.178759    0.916400
     48          6           0        3.966094   -3.353653    0.113011
     49          6           0        3.654782   -3.063007   -1.367617
     50          6           0        5.148002   -2.462203    0.698926
     51          6           0        6.517871   -2.666212   -0.031093
     52          6           0        7.674803   -1.890816    0.570156
     53          6           0        8.976337   -2.064232   -0.162374
     54          6           0        9.505962   -3.478286   -0.031911
     55          6           0       10.000631   -1.039798    0.318954
     56          6           0       11.349572   -1.046801   -0.385902
     57          6           0       12.188751    0.200545    0.164176
     58          6           0       13.464596    0.375970   -0.588118
     59          6           0       14.432548   -0.785173   -0.230836
     60          6           0       14.121433    1.811474   -0.100488
     61          6           0       15.354867    2.186863   -0.889195
     62          6           0       15.932818    3.568049   -0.575981
     63          6           0       17.288667    3.976098   -1.415002
     64          6           0       16.945229    4.172947   -2.818839
     65          6           0       17.748667    5.232610   -0.766460
     66          1           0       -2.626288    1.124777    3.556435
     67          1           0       -6.307140    5.618444    0.730295
     68          1           0       -8.846300    1.015860   -3.110905
     69          1           0       -3.826708   -3.140147    2.121357
     70          1           0       -1.640186   -1.047192    2.818625
     71          1           0       -2.922062   -2.549858    4.128106
     72          1           0       -3.294294   -0.996423    4.852511
     73          1           0       -4.395570   -2.109119    3.910108
     74          1           0       -2.414585   -3.145634   -0.302663
     75          1           0       -1.426304   -1.878175    0.266096
     76          1           0       -0.726601   -3.325171    2.404041
     77          1           0       -1.269018   -4.870846    1.518468
     78          1           0       -1.487380    3.685758    3.646791
     79          1           0       -2.501868    4.899505    4.518387
     80          1           0       -2.577783    3.159342    5.072482
     81          1           0       -5.274709    6.824461    2.298231
     82          1           0       -9.892175    3.011316   -3.119971
     83          1           0       -9.960815    4.830534   -3.074776
     84          1           0       -9.766879    3.916286   -5.186011
     85          1           0       -8.473139    5.099307   -4.941891
     86          1           0       -7.792677    3.375919   -4.900116
     87          1           0       -8.327195   -1.202777   -4.629500
     88          1           0       -8.540310   -2.766829   -3.684166
     89          1           0       -9.603514   -1.386471   -3.167435
     90          1           0       -4.092502   -3.910464   -1.449052
     91          1           0        2.535519   -6.079701    0.911491
     92          1           0        2.232229   -5.494257   -0.545051
     93          1           0        3.800251   -4.266892    2.001458
     94          1           0        2.695909   -3.310905   -1.777933
     95          1           0        3.606349   -2.177633   -1.569637
     96          1           0        4.469722   -3.535382   -1.932742
     97          1           0        4.744548   -1.364660    0.521465
     98          1           0        5.255746   -2.761656    1.810734
     99          1           0        6.780594   -3.823849   -0.100321
    100          1           0        6.357471   -2.516358   -1.101892
    101          1           0        7.435489   -0.742202    0.501758
    102          1           0        7.546649   -1.989745    1.571488
    103          1           0        8.646029   -1.661473   -1.222264
    104          1           0        8.778609   -4.228986   -0.492098
    105          1           0       10.458208   -3.934346   -0.389555
    106          1           0        9.422080   -3.782176    1.012222
    107          1           0        9.518660    0.041994    0.177074
    108          1           0       10.093659   -1.110230    1.503081
    109          1           0       11.863369   -1.986545   -0.227030
    110          1           0       11.197064   -0.883934   -1.453530
    111          1           0       11.590908    1.049980    0.219268
    112          1           0       12.457062   -0.136398    1.145234
    113          1           0       13.497080    0.492328   -1.748917
    114          1           0       14.786187   -0.875863    0.747459
    115          1           0       14.033367   -1.679175   -0.599023
    116          1           0       15.310525   -0.641424   -0.982966
    117          1           0       13.252360    2.507348   -0.508774
    118          1           0       14.013342    1.804248    1.005375
    119          1           0       16.265149    1.417925   -0.703260
    120          1           0       15.280053    2.181603   -1.879676
    121          1           0       15.242253    4.332388   -0.731936
    122          1           0       16.190100    3.640869    0.583938
    123          1           0       18.075195    3.163481   -1.268743
    124          1           0       16.053760    4.994959   -2.809234
    125          1           0       17.674820    4.605671   -3.580229
    126          1           0       16.588352    3.096814   -3.172585
    127          1           0       17.775869    5.009218    0.211700
    128          1           0       18.713667    5.647220   -0.983866
    129          1           0       16.996554    6.171077   -0.872334
    130          1           0       -5.061033   -7.828813    0.008242
    131          1           0       -6.615792   -6.808183    0.440106
    132          1           0       -5.030624   -6.918514    1.560043
    133          8           0       -7.695835    6.862856   -0.420602
    134          1           0       -8.744187    6.543492   -2.019506
 ---------------------------------------------------------------------

 SCF Done:  E(RCAM-B3LYP) =  -3043.41717397     A.U. after   16 cycles

 Excitation energies and oscillator strengths:

 Excited State   1:      Singlet-A      1.9405 eV  638.93 nm  f=0.1593  <S**2>=0.000
     243 -> 246        0.25887
     244 -> 245        0.63881
 This state for optimization and/or second-order correction.
 Total Energy, E(TD-HF/TD-KS) =  -3043.34586257
 Copying the excited state density for this state as the 1-particle RhoCI density.

 The electronic state is 1-A.
 Alpha  occ. eigenvalues --  -46.81169 -19.25054 -19.22017 -19.19564 -19.17010
 Alpha  occ. eigenvalues --  -19.16233 -19.16162 -19.15996 -14.38991 -14.36992
 Alpha  occ. eigenvalues --  -14.36833 -14.35757 -10.36592 -10.34310 -10.30710
 Alpha  occ. eigenvalues --  -10.29989 -10.29280 -10.29019 -10.27730 -10.27488
 Alpha  occ. eigenvalues --  -10.27480 -10.26879 -10.26219 -10.26015 -10.25887
 Alpha  occ. eigenvalues --  -10.25800 -10.25610 -10.25548 -10.25473 -10.25434
 Alpha  occ. eigenvalues --  -10.25342 -10.25327 -10.25281 -10.24402 -10.24390
 Alpha  occ. eigenvalues --  -10.24218 -10.24022 -10.23947 -10.23628 -10.23540
 Alpha  occ. eigenvalues --  -10.23317 -10.23102 -10.22994 -10.22851 -10.22795
 Alpha  occ. eigenvalues --  -10.22735 -10.22124 -10.22099 -10.22058 -10.22054
 Alpha  occ. eigenvalues --  -10.22045 -10.21957 -10.21908 -10.21822 -10.21676
 Alpha  occ. eigenvalues --  -10.21673 -10.21116 -10.21022 -10.21002 -10.20768
 Alpha  occ. eigenvalues --  -10.20727 -10.20589 -10.19791 -10.19354 -10.19070
 Alpha  occ. eigenvalues --  -10.19008  -3.09723  -1.84662  -1.84184  -1.84147
 Alpha  occ. eigenvalues --   -1.18105  -1.14017  -1.10095  -1.06324  -1.05588
 Alpha  occ. eigenvalues --   -1.04889  -1.03883  -1.00401  -1.00106  -0.96703
 Alpha  occ. eigenvalues --   -0.96380  -0.88272  -0.86019  -0.85769  -0.85448
 Alpha  occ. eigenvalues --   -0.84821  -0.84437  -0.84418  -0.83521  -0.83340
 Alpha  occ. eigenvalues --   -0.82582  -0.82071  -0.81548  -0.80245  -0.79820
 Alpha  occ. eigenvalues --   -0.78831  -0.78180  -0.77359  -0.77220  -0.76681
 Alpha  occ. eigenvalues --   -0.75161  -0.74632  -0.74586  -0.72869  -0.72642
 Alpha  occ. eigenvalues --   -0.71932  -0.71042  -0.70735  -0.70081  -0.69794
 Alpha  occ. eigenvalues --   -0.68767  -0.68066  -0.67664  -0.66646  -0.66303
 Alpha  occ. eigenvalues --   -0.64615  -0.64441  -0.63614  -0.61752  -0.61223
 Alpha  occ. eigenvalues --   -0.60790  -0.60693  -0.60500  -0.58921  -0.58822
 Alpha  occ. eigenvalues --   -0.58353  -0.58169  -0.58029  -0.57447  -0.56419
 Alpha  occ. eigenvalues --   -0.55928  -0.55648  -0.55494  -0.55454  -0.54772
 Alpha  occ. eigenvalues --   -0.54192  -0.53549  -0.52740  -0.52619  -0.52172
 Alpha  occ. eigenvalues --   -0.52113  -0.51861  -0.51573  -0.51040  -0.50955
 Alpha  occ. eigenvalues --   -0.49859  -0.49448  -0.49252  -0.49049  -0.48988
 Alpha  occ. eigenvalues --   -0.48742  -0.48585  -0.48236  -0.47849  -0.47474
 Alpha  occ. eigenvalues --   -0.47322  -0.47042  -0.46894  -0.46832  -0.46674
 Alpha  occ. eigenvalues --   -0.46263  -0.46032  -0.45977  -0.45963  -0.45719
 Alpha  occ. eigenvalues --   -0.45600  -0.45318  -0.45249  -0.45070  -0.44935
 Alpha  occ. eigenvalues --   -0.44558  -0.44523  -0.44423  -0.44090  -0.43889
 Alpha  occ. eigenvalues --   -0.43828  -0.43280  -0.43008  -0.42981  -0.42843
 Alpha  occ. eigenvalues --   -0.42656  -0.42476  -0.41906  -0.41818  -0.41688
 Alpha  occ. eigenvalues --   -0.41648  -0.41295  -0.40838  -0.40732  -0.40481
 Alpha  occ. eigenvalues --   -0.40392  -0.40259  -0.40046  -0.39913  -0.39821
 Alpha  occ. eigenvalues --   -0.39683  -0.39452  -0.39375  -0.39285  -0.38925
 Alpha  occ. eigenvalues --   -0.38694  -0.38478  -0.38161  -0.38102  -0.37843
 Alpha  occ. eigenvalues --   -0.37704  -0.37510  -0.37191  -0.37119  -0.36807
 Alpha  occ. eigenvalues --   -0.36614  -0.36422  -0.35917  -0.35852  -0.35720
 Alpha  occ. eigenvalues --   -0.35442  -0.35183  -0.34947  -0.34903  -0.34790
 Alpha  occ. eigenvalues --   -0.34247  -0.34098  -0.33862  -0.33706  -0.33492
 Alpha  occ. eigenvalues --   -0.33139  -0.33016  -0.32300  -0.32113  -0.31918
 Alpha  occ. eigenvalues --   -0.31871  -0.30477  -0.30436  -0.29312  -0.28891
 Alpha  occ. eigenvalues --   -0.28441  -0.28302  -0.27508  -0.27295  -0.26927
 Alpha  occ. eigenvalues --   -0.26567  -0.26322  -0.22431  -0.20609
 Alpha virt. eigenvalues --   -0.07881  -0.06500  -0.02064  -0.00361   0.00109
 Alpha virt. eigenvalues --    0.02416   0.03628   0.04646   0.04916   0.05044
 Alpha virt. eigenvalues --    0.05278   0.05663   0.07174   0.08758   0.09141

 Mulliken charges:
               1
     1  Mg   0.834342
     2  C    0.029678
     3  C   -0.178862
     4  C   -0.198678
     5  C   -0.183255
     6  N   -0.613124
     7  C    0.279833
     8  C   -0.181263
     9  C   -0.156163
    10  C    0.340089
    11  C   -0.294617
    12  C   -0.157876
    13  C   -0.255386
    14  C    0.599766
    15  O   -0.438931
    16  O   -0.486225
    17  N   -0.706555
    18  C    0.316209
    19  C    0.060106
    20  C   -0.052845
    21  C    0.358656
    22  C   -0.400541
    23  C    0.238049
    24  O   -0.406780
    25  N   -0.663385
    26  C    0.256884
    27  C   -0.014236
    28  C    0.041369
    29  C    0.276752
    30  C    0.253086
    31  C   -0.260949
    32  C   -0.303529
    33  N   -0.701628
    34  C    0.249834
    35  C    0.053331
    36  C   -0.028237
    37  C    0.340913
    38  C   -0.396176
    39  C    0.378886
    40  O   -0.496246
    41  C   -0.306834
    42  C    0.632345
    43  O   -0.427597
    44  O   -0.389904
    45  C   -0.108163
    46  C    0.015618
    47  C   -0.162937
    48  C    0.151995
    49  C   -0.354349
    50  C   -0.226941
    51  C   -0.174241
    52  C   -0.161731
    53  C   -0.031826
    54  C   -0.326250
    55  C   -0.160302
    56  C   -0.184500
    57  C   -0.163132
    58  C   -0.061668
    59  C   -0.314427
    60  C   -0.174152
    61  C   -0.158994
    62  C   -0.172554
    63  C   -0.061143
    64  C   -0.269336
    65  C   -0.290683
    66  H    0.071011
    67  H    0.129888
    68  H    0.090599
    69  H    0.112802
    70  H    0.095736
    71  H    0.120648
    72  H    0.097499
    73  H    0.115756
    74  H    0.111536
    75  H    0.140636
    76  H    0.132064
    77  H    0.114254
    78  H    0.104045
    79  H    0.162890
    80  H    0.124489
    81  H    0.070257
    82  H    0.122016
    83  H    0.114200
    84  H    0.084018
    85  H    0.123380
    86  H    0.119276
    87  H    0.138648
    88  H    0.146771
    89  H    0.136931
    90  H    0.147409
    91  H    0.119431
    92  H    0.114758
    93  H    0.073267
    94  H    0.134443
    95  H    0.123544
    96  H    0.110484
    97  H    0.093760
    98  H    0.086571
    99  H    0.075935
   100  H    0.095765
   101  H    0.071526
   102  H    0.100364
   103  H    0.076526
   104  H    0.091612
   105  H    0.107264
   106  H    0.109072
   107  H    0.065799
   108  H    0.065772
   109  H    0.102214
   110  H    0.094407
   111  H    0.092419
   112  H    0.098935
   113  H    0.069261
   114  H    0.109700
   115  H    0.108271
   116  H    0.081028
   117  H    0.069767
   118  H    0.093698
   119  H    0.067602
   120  H    0.105254
   121  H    0.099521
   122  H    0.067067
   123  H    0.082127
   124  H    0.076022
   125  H    0.099827
   126  H    0.080144
   127  H    0.110554
   128  H    0.097201
   129  H    0.069448
   130  H    0.125086
   131  H    0.142885
   132  H    0.128126
   133  O   -0.438898
   134  H    0.075091
 Sum of Mulliken charges =   0.00000

 Dipole moment (field-independent basis, Debye):
    X=              2.1349    Y=             -7.3296    Z=             -1.3901  Tot=              7.7597
 Quadrupole moment (field-independent basis, Debye-Ang):
   XX=           -379.1614   YY=           -429.2713   ZZ=           -396.4067
   XY=              7.9576   XZ=             23.9177   YZ=            -42.5070

 Normal termination of Gaussian 09 at Mon Oct  7 10:50:12 2019.
