 Gaussian 09, Revision D.01,
 Gaussian 09:  ES64L-G09RevD.01 24-Apr-2013

 ----------------------------------------------------------------------
 # td=(NStates=1) iop(3/107=0140000000,3/108=0140000000) iop(3/107=0140
 000000,3/108=0140000000) CAM-B3LYP/6-31G(d,p)
 ----------------------------------------------------------------------

 --
 TD
 --
 Symbolic Z-matrix:
 Charge =  0 Multiplicity = 1

                         Standard orientation:
 ---------------------------------------------------------------------
 Center     Atomic      Atomic             Coordinates (Angstroms)
 Number     Number       Type             X           Y           Z
 ---------------------------------------------------------------------
      1         12           0       -5.710846    1.246241    0.200180
      2          6           0       -5.076312   -2.134525   -0.340872
      3          6           0       -3.527814    1.113431    2.792033
      4          6           0       -6.150634    4.589665    0.587147
      5          6           0       -8.016096    1.116723   -2.344418
      6          7           0       -4.360868   -0.226382    0.949706
      7          6           0       -4.222361   -1.545881    0.590835
      8          6           0       -3.170119   -2.216704    1.399266
      9          6           0       -2.823298   -1.296366    2.553493
     10          6           0       -3.638611   -0.069069    2.164181
     11          6           0       -3.489735   -1.742345    3.907854
     12          6           0       -1.865246   -2.707916    0.602056
     13          6           0       -0.886573   -3.514309    1.336353
     14          6           0        0.219131   -3.918478    0.569841
     15          8           0        0.400485   -3.541172   -0.542906
     16          8           0        1.072223   -4.693065    1.187194
     17          7           0       -5.001448    2.575833    1.557198
     18          6           0       -4.140893    2.387512    2.502840
     19          6           0       -3.692740    3.585685    3.168027
     20          6           0       -4.411176    4.683877    2.522853
     21          6           0       -5.254526    3.972539    1.437831
     22          6           0       -2.832501    3.781187    4.284853
     23          6           0       -4.628987    6.025088    2.909225
     24          8           0       -3.892890    6.580378    3.732963
     25          7           0       -6.884569    2.671097   -0.738765
     26          6           0       -6.921421    4.010078   -0.423211
     27          6           0       -7.997518    4.628955   -1.205266
     28          6           0       -8.496853    3.727377   -2.060071
     29          6           0       -7.816990    2.472715   -1.691315
     30          6           0       -8.389870    6.036965   -1.118472
     31          6           0       -9.429518    3.807390   -3.179137
     32          6           0       -8.882166    3.736791   -4.605016
     33          7           0       -6.434908   -0.103689   -1.095745
     34          6           0       -7.376697   -0.086727   -2.021680
     35          6           0       -7.660215   -1.334917   -2.640002
     36          6           0       -6.759066   -2.170330   -1.926042
     37          6           0       -6.071421   -1.411037   -1.059825
     38          6           0       -8.646055   -1.693588   -3.694040
     39          6           0       -6.293449   -3.554677   -2.010627
     40          8           0       -6.519085   -4.539934   -2.705617
     41          6           0       -5.067302   -3.522993   -0.911799
     42          6           0       -5.299280   -4.595181    0.240671
     43          8           0       -5.679598   -4.482039    1.339068
     44          8           0       -4.987095   -5.814085   -0.300978
     45          6           0       -5.045293   -6.945035    0.567182
     46          6           0        2.330385   -5.040446    0.723690
     47          6           0        3.486885   -4.104422    1.093575
     48          6           0        4.062434   -3.270645    0.221803
     49          6           0        3.802145   -3.196242   -1.234561
     50          6           0        5.310918   -2.499793    0.736505
     51          6           0        6.693567   -2.916290    0.143404
     52          6           0        7.730347   -2.013924    0.566777
     53          6           0        9.057274   -2.109354   -0.149481
     54          6           0        9.601554   -3.575037   -0.104062
     55          6           0       10.035985   -0.993761    0.382888
     56          6           0       11.400009   -0.874150   -0.378245
     57          6           0       12.243325    0.382302    0.048800
     58          6           0       13.600819    0.530073   -0.593931
     59          6           0       14.488347   -0.733418   -0.372536
     60          6           0       14.190814    1.907835   -0.287527
     61          6           0       15.481680    2.177471   -0.912702
     62          6           0       15.919722    3.629037   -0.621583
     63          6           0       17.229329    4.091316   -1.263287
     64          6           0       17.100871    4.260253   -2.749691
     65          6           0       17.809685    5.370613   -0.736144
     66          1           0       -2.773053    1.216336    3.580481
     67          1           0       -6.203364    5.715292    0.669563
     68          1           0       -8.981871    1.111422   -2.893673
     69          1           0       -3.785529   -2.976687    1.919704
     70          1           0       -1.717157   -1.085590    2.643954
     71          1           0       -3.056894   -2.755274    4.412736
     72          1           0       -3.436058   -1.082235    4.739349
     73          1           0       -4.636142   -1.992456    3.752365
     74          1           0       -2.179393   -2.992141   -0.350134
     75          1           0       -1.239069   -1.832981    0.420340
     76          1           0       -0.639394   -3.327114    2.373678
     77          1           0       -1.434225   -4.566937    1.583739
     78          1           0       -1.824712    3.594587    4.297306
     79          1           0       -2.863224    4.868560    4.669628
     80          1           0       -3.078622    2.967881    4.977739
     81          1           0       -5.594916    6.442429    2.536426
     82          1           0      -10.110956    2.958922   -2.949111
     83          1           0       -9.926419    4.764388   -3.124325
     84          1           0       -9.623276    3.686427   -5.345751
     85          1           0       -8.135511    4.560886   -5.002302
     86          1           0       -8.327579    2.749803   -4.658398
     87          1           0       -8.243828   -1.157267   -4.645191
     88          1           0       -8.618570   -2.747662   -4.106129
     89          1           0       -9.613539   -1.363759   -3.279669
     90          1           0       -4.182490   -3.829602   -1.515401
     91          1           0        2.637166   -6.004339    1.043683
     92          1           0        2.334307   -5.179798   -0.386053
     93          1           0        3.782488   -4.049703    2.127705
     94          1           0        2.959432   -3.539918   -1.469424
     95          1           0        3.939811   -2.197215   -1.610279
     96          1           0        4.706284   -3.830541   -1.648551
     97          1           0        5.326652   -1.376795    0.470076
     98          1           0        5.312797   -2.478605    1.786021
     99          1           0        6.842236   -3.874900    0.111979
    100          1           0        6.343188   -2.505728   -0.944617
    101          1           0        7.440514   -0.812660    0.422263
    102          1           0        7.931992   -2.009575    1.655730
    103          1           0        8.813295   -2.156230   -1.162045
    104          1           0        8.988374   -4.359615   -0.517318
    105          1           0       10.706596   -3.788676   -0.387995
    106          1           0        9.603741   -3.572172    1.160210
    107          1           0        9.730665    0.063909    0.254317
    108          1           0       10.346262   -1.240535    1.457723
    109          1           0       11.918616   -1.913718   -0.249071
    110          1           0       11.242082   -1.070962   -1.353646
    111          1           0       11.731823    1.243988   -0.217724
    112          1           0       12.419878    0.257726    1.342175
    113          1           0       13.302107    0.609536   -1.688379
    114          1           0       14.728219   -0.693772    0.665746
    115          1           0       13.792182   -1.594681   -0.610071
    116          1           0       15.525422   -0.804840   -0.965380
    117          1           0       13.510003    2.591923   -0.540426
    118          1           0       14.348740    1.931763    0.964288
    119          1           0       16.295366    1.590456   -0.635450
    120          1           0       15.370294    2.016150   -2.062355
    121          1           0       15.060514    4.313791   -1.124402
    122          1           0       15.759267    4.004868    0.530428
    123          1           0       18.062657    3.247471   -1.010460
    124          1           0       16.385573    5.135791   -2.918495
    125          1           0       18.093022    4.344901   -3.020494
    126          1           0       16.633220    3.300957   -3.282919
    127          1           0       18.216701    5.234826    0.331145
    128          1           0       18.914007    5.563236   -1.334068
    129          1           0       16.965199    6.169205   -0.932934
    130          1           0       -4.987746   -7.772449   -0.029619
    131          1           0       -5.897432   -6.962123    1.273311
    132          1           0       -4.297332   -7.030015    1.435831
    133          8           0       -8.043881    6.890523   -0.358069
    134          1           0       -8.997893    6.270143   -2.070164
 ---------------------------------------------------------------------

 SCF Done:  E(RCAM-B3LYP) =  -3043.46951254     A.U. after   15 cycles

 Excitation energies and oscillator strengths:

 Excited State   1:      Singlet-A      1.9916 eV  622.54 nm  f=0.1734  <S**2>=0.000
     243 -> 246        0.28212
     244 -> 245        0.63872
 This state for optimization and/or second-order correction.
 Total Energy, E(TD-HF/TD-KS) =  -3043.39632334
 Copying the excited state density for this state as the 1-particle RhoCI density.

 The electronic state is 1-A.
 Alpha  occ. eigenvalues --  -46.81742 -19.21905 -19.21900 -19.18185 -19.17987
 Alpha  occ. eigenvalues --  -19.17927 -19.16545 -19.15872 -14.38549 -14.37556
 Alpha  occ. eigenvalues --  -14.37540 -14.36454 -10.35110 -10.33955 -10.32118
 Alpha  occ. eigenvalues --  -10.30744 -10.29709 -10.27425 -10.27383 -10.27057
 Alpha  occ. eigenvalues --  -10.27029 -10.26983 -10.26805 -10.26515 -10.26332
 Alpha  occ. eigenvalues --  -10.26163 -10.25550 -10.25549 -10.25449 -10.25139
 Alpha  occ. eigenvalues --  -10.25066 -10.25043 -10.24405 -10.24304 -10.24282
 Alpha  occ. eigenvalues --  -10.24013 -10.23925 -10.23817 -10.23785 -10.23586
 Alpha  occ. eigenvalues --  -10.23404 -10.22967 -10.22956 -10.22949 -10.22843
 Alpha  occ. eigenvalues --  -10.22810 -10.22624 -10.22545 -10.22464 -10.22281
 Alpha  occ. eigenvalues --  -10.22183 -10.22174 -10.22108 -10.21837 -10.21758
 Alpha  occ. eigenvalues --  -10.21728 -10.21575 -10.21166 -10.21156 -10.21061
 Alpha  occ. eigenvalues --  -10.20939 -10.20827 -10.20746 -10.20730 -10.20581
 Alpha  occ. eigenvalues --  -10.20075  -3.10343  -1.85282  -1.84815  -1.84756
 Alpha  occ. eigenvalues --   -1.15640  -1.14371  -1.08570  -1.06734  -1.06077
 Alpha  occ. eigenvalues --   -1.05865  -1.05390  -1.02547  -1.00519  -0.99898
 Alpha  occ. eigenvalues --   -0.98621  -0.88817  -0.86884  -0.86448  -0.86366
 Alpha  occ. eigenvalues --   -0.85821  -0.84883  -0.84709  -0.84099  -0.83827
 Alpha  occ. eigenvalues --   -0.83719  -0.83299  -0.82571  -0.80834  -0.80231
 Alpha  occ. eigenvalues --   -0.79406  -0.79037  -0.77987  -0.77503  -0.76692
 Alpha  occ. eigenvalues --   -0.75585  -0.75512  -0.74369  -0.72902  -0.72494
 Alpha  occ. eigenvalues --   -0.71841  -0.70470  -0.70022  -0.69684  -0.69652
 Alpha  occ. eigenvalues --   -0.69537  -0.69239  -0.67717  -0.67288  -0.67103
 Alpha  occ. eigenvalues --   -0.67000  -0.65294  -0.64634  -0.62624  -0.62334
 Alpha  occ. eigenvalues --   -0.61667  -0.60944  -0.60914  -0.59859  -0.59090
 Alpha  occ. eigenvalues --   -0.59056  -0.57706  -0.57638  -0.57387  -0.56573
 Alpha  occ. eigenvalues --   -0.56045  -0.55899  -0.55789  -0.55326  -0.55070
 Alpha  occ. eigenvalues --   -0.54450  -0.53668  -0.53234  -0.52587  -0.52359
 Alpha  occ. eigenvalues --   -0.52165  -0.51844  -0.51657  -0.50961  -0.50772
 Alpha  occ. eigenvalues --   -0.50649  -0.50485  -0.50042  -0.49823  -0.49787
 Alpha  occ. eigenvalues --   -0.49632  -0.49477  -0.48607  -0.48545  -0.48173
 Alpha  occ. eigenvalues --   -0.47900  -0.47586  -0.47431  -0.47258  -0.47098
 Alpha  occ. eigenvalues --   -0.47071  -0.46867  -0.46543  -0.46281  -0.45809
 Alpha  occ. eigenvalues --   -0.45498  -0.45396  -0.45365  -0.45064  -0.44910
 Alpha  occ. eigenvalues --   -0.44815  -0.44692  -0.44490  -0.44440  -0.44023
 Alpha  occ. eigenvalues --   -0.43800  -0.43490  -0.43465  -0.43394  -0.43148
 Alpha  occ. eigenvalues --   -0.42965  -0.42542  -0.42449  -0.42238  -0.41975
 Alpha  occ. eigenvalues --   -0.41638  -0.41523  -0.41518  -0.41421  -0.41342
 Alpha  occ. eigenvalues --   -0.41067  -0.40977  -0.40819  -0.40695  -0.40493
 Alpha  occ. eigenvalues --   -0.40406  -0.39992  -0.39841  -0.39833  -0.39138
 Alpha  occ. eigenvalues --   -0.38844  -0.38703  -0.38615  -0.38435  -0.38116
 Alpha  occ. eigenvalues --   -0.38066  -0.37752  -0.37573  -0.37081  -0.36870
 Alpha  occ. eigenvalues --   -0.36626  -0.36306  -0.36187  -0.35832  -0.35734
 Alpha  occ. eigenvalues --   -0.35493  -0.35124  -0.34897  -0.34752  -0.34631
 Alpha  occ. eigenvalues --   -0.34545  -0.33417  -0.33126  -0.32768  -0.32633
 Alpha  occ. eigenvalues --   -0.32558  -0.32509  -0.32394  -0.32009  -0.31950
 Alpha  occ. eigenvalues --   -0.31684  -0.31337  -0.31123  -0.30443  -0.29762
 Alpha  occ. eigenvalues --   -0.29391  -0.28511  -0.28029  -0.27820  -0.27662
 Alpha  occ. eigenvalues --   -0.27276  -0.27243  -0.22738  -0.21881
 Alpha virt. eigenvalues --   -0.08888  -0.06720  -0.01459  -0.01183   0.00708
 Alpha virt. eigenvalues --    0.03282   0.03637   0.03963   0.04099   0.04743
 Alpha virt. eigenvalues --    0.05128   0.05630   0.07795   0.08586   0.08986

 Mulliken charges:
               1
     1  Mg   0.828090
     2  C    0.072092
     3  C   -0.184745
     4  C   -0.169926
     5  C   -0.181338
     6  N   -0.628417
     7  C    0.308643
     8  C   -0.166150
     9  C   -0.133843
    10  C    0.324523
    11  C   -0.321144
    12  C   -0.168347
    13  C   -0.281074
    14  C    0.621227
    15  O   -0.471414
    16  O   -0.443078
    17  N   -0.700855
    18  C    0.354923
    19  C    0.066692
    20  C   -0.009992
    21  C    0.259156
    22  C   -0.421536
    23  C    0.223552
    24  O   -0.437769
    25  N   -0.672193
    26  C    0.286577
    27  C   -0.022405
    28  C    0.054146
    29  C    0.252813
    30  C    0.253518
    31  C   -0.249908
    32  C   -0.309622
    33  N   -0.723208
    34  C    0.290404
    35  C    0.061584
    36  C    0.002233
    37  C    0.311986
    38  C   -0.382029
    39  C    0.362897
    40  O   -0.450992
    41  C   -0.357996
    42  C    0.614898
    43  O   -0.434464
    44  O   -0.445802
    45  C   -0.092306
    46  C    0.003593
    47  C   -0.155857
    48  C    0.137568
    49  C   -0.342621
    50  C   -0.239293
    51  C   -0.156073
    52  C   -0.146609
    53  C   -0.062565
    54  C   -0.311823
    55  C   -0.168051
    56  C   -0.199437
    57  C   -0.139449
    58  C   -0.069685
    59  C   -0.303178
    60  C   -0.131313
    61  C   -0.157455
    62  C   -0.152518
    63  C   -0.053998
    64  C   -0.271123
    65  C   -0.275026
    66  H    0.071821
    67  H    0.131370
    68  H    0.086867
    69  H    0.142124
    70  H    0.111901
    71  H    0.083180
    72  H    0.125889
    73  H    0.119616
    74  H    0.129331
    75  H    0.122076
    76  H    0.148255
    77  H    0.117806
    78  H    0.142198
    79  H    0.165448
    80  H    0.114223
    81  H    0.093089
    82  H    0.116546
    83  H    0.112814
    84  H    0.124478
    85  H    0.106376
    86  H    0.103217
    87  H    0.127234
    88  H    0.154081
    89  H    0.135833
    90  H    0.159731
    91  H    0.116617
    92  H    0.107428
    93  H    0.081742
    94  H    0.135590
    95  H    0.117529
    96  H    0.104525
    97  H    0.081782
    98  H    0.093959
    99  H    0.107445
   100  H    0.078992
   101  H    0.063519
   102  H    0.087054
   103  H    0.093316
   104  H    0.114977
   105  H    0.098971
   106  H    0.056354
   107  H    0.096869
   108  H    0.091194
   109  H    0.073034
   110  H    0.105657
   111  H    0.100173
   112  H    0.042476
   113  H    0.071200
   114  H    0.110107
   115  H    0.102184
   116  H    0.085356
   117  H    0.097917
   118  H    0.046650
   119  H    0.107173
   120  H    0.080096
   121  H    0.052220
   122  H    0.069429
   123  H    0.054350
   124  H    0.094189
   125  H    0.112191
   126  H    0.078456
   127  H    0.100831
   128  H    0.066227
   129  H    0.092904
   130  H    0.132668
   131  H    0.126965
   132  H    0.098445
   133  O   -0.409487
   134  H    0.040734
 Sum of Mulliken charges =   0.00000

 Dipole moment (field-independent basis, Debye):
    X=              1.1506    Y=             -4.5873    Z=             -1.2752  Tot=              4.8983
 Quadrupole moment (field-independent basis, Debye-Ang):
   XX=           -376.3301   YY=           -447.3805   ZZ=           -393.7324
   XY=              4.4343   XZ=             19.2489   YZ=            -34.6139

 Normal termination of Gaussian 09 at Fri Oct  4 18:53:57 2019.
