 Gaussian 09, Revision D.01,
 Gaussian 09:  ES64L-G09RevD.01 24-Apr-2013

 ----------------------------------------------------------------------
 # td=(NStates=1) iop(3/107=0140000000,3/108=0140000000) iop(3/107=0140
 000000,3/108=0140000000) CAM-B3LYP/6-31G(d,p)
 ----------------------------------------------------------------------

 --
 TD
 --
 Symbolic Z-matrix:
 Charge =  0 Multiplicity = 1

                         Standard orientation:
 ---------------------------------------------------------------------
 Center     Atomic      Atomic             Coordinates (Angstroms)
 Number     Number       Type             X           Y           Z
 ---------------------------------------------------------------------
      1         12           0       -5.635212    1.184048    0.188360
      2          6           0       -4.988680   -2.067660   -0.312006
      3          6           0       -3.221119    1.314555    2.641491
      4          6           0       -6.306483    4.508243    0.669452
      5          6           0       -8.162866    1.117262   -2.347964
      6          7           0       -4.371905   -0.197730    1.020620
      7          6           0       -4.261102   -1.471956    0.696650
      8          6           0       -3.175670   -2.266730    1.535895
      9          6           0       -2.912039   -1.240939    2.661117
     10          6           0       -3.533742   -0.011077    2.087590
     11          6           0       -3.455881   -1.733427    4.001745
     12          6           0       -1.895487   -2.635044    0.722222
     13          6           0       -0.971456   -3.423688    1.440572
     14          6           0        0.295133   -3.796622    0.651292
     15          8           0        0.591186   -3.539306   -0.499370
     16          8           0        1.049836   -4.534906    1.466596
     17          7           0       -4.863597    2.695379    1.388547
     18          6           0       -3.908509    2.538600    2.316786
     19          6           0       -3.682407    3.801419    3.113257
     20          6           0       -4.449331    4.718582    2.424952
     21          6           0       -5.310585    3.980379    1.450673
     22          6           0       -2.615894    3.953312    4.162932
     23          6           0       -4.667443    6.137223    2.749377
     24          8           0       -4.035155    6.755679    3.545836
     25          7           0       -6.947701    2.525994   -0.654387
     26          6           0       -7.001047    3.873985   -0.427283
     27          6           0       -8.066735    4.530609   -1.259811
     28          6           0       -8.614348    3.547960   -2.020789
     29          6           0       -7.763634    2.315933   -1.717320
     30          6           0       -8.568722    5.860374   -1.201998
     31          6           0       -9.688398    3.477649   -3.053425
     32          6           0       -9.039810    3.600158   -4.425151
     33          7           0       -6.452765   -0.136426   -1.046715
     34          6           0       -7.443421   -0.090560   -2.025823
     35          6           0       -7.649523   -1.403631   -2.652358
     36          6           0       -6.715949   -2.279509   -2.003691
     37          6           0       -5.948135   -1.435303   -1.106327
     38          6           0       -8.622775   -1.761384   -3.660764
     39          6           0       -6.267669   -3.602104   -1.869421
     40          8           0       -6.580188   -4.562719   -2.524000
     41          6           0       -4.977173   -3.505929   -0.806198
     42          6           0       -5.222817   -4.629946    0.163034
     43          8           0       -5.535374   -4.420700    1.351067
     44          8           0       -5.104933   -5.820943   -0.364127
     45          6           0       -5.588145   -6.811377    0.541503
     46          6           0        2.309806   -5.036382    0.864758
     47          6           0        3.455356   -4.028603    1.138875
     48          6           0        4.134906   -3.342241    0.194900
     49          6           0        3.747084   -3.375253   -1.264953
     50          6           0        5.198826   -2.457005    0.663973
     51          6           0        6.576473   -2.830281    0.119164
     52          6           0        7.590969   -1.761541    0.458802
     53          6           0        8.926434   -1.995888   -0.216914
     54          6           0        9.714064   -3.263826    0.245392
     55          6           0        9.962652   -0.781311    0.178644
     56          6           0       11.338235   -0.767046   -0.415943
     57          6           0       12.235862    0.341275    0.243305
     58          6           0       13.564296    0.483694   -0.588987
     59          6           0       14.426167   -0.741571   -0.590898
     60          6           0       14.371084    1.719563   -0.115533
     61          6           0       15.526048    2.080511   -1.102913
     62          6           0       16.185552    3.436166   -0.536807
     63          6           0       17.370854    3.840211   -1.258557
     64          6           0       17.390964    3.870950   -2.892627
     65          6           0       17.915686    5.236831   -0.799098
     66          1           0       -2.623875    1.414476    3.571902
     67          1           0       -6.578190    5.521962    0.497865
     68          1           0       -8.790878    1.100189   -3.296556
     69          1           0       -3.684796   -3.239386    1.943915
     70          1           0       -1.759871   -1.095855    2.866043
     71          1           0       -2.770418   -2.472417    4.397859
     72          1           0       -3.088783   -0.918823    4.665122
     73          1           0       -4.508060   -2.083517    3.883342
     74          1           0       -2.273036   -2.997189   -0.249383
     75          1           0       -1.399344   -1.582451    0.604525
     76          1           0       -0.582668   -2.886620    2.345322
     77          1           0       -1.448555   -4.506026    1.668351
     78          1           0       -1.612124    3.914896    3.744166
     79          1           0       -2.746252    4.981175    4.593276
     80          1           0       -2.578569    3.328548    4.913472
     81          1           0       -5.471757    6.656756    2.131931
     82          1           0      -10.310719    2.689258   -3.115986
     83          1           0      -10.198927    4.438180   -2.766533
     84          1           0       -9.701550    3.759270   -5.419465
     85          1           0       -8.420067    4.752340   -4.533268
     86          1           0       -8.090608    2.786205   -4.582948
     87          1           0       -8.333984   -1.422710   -4.703041
     88          1           0       -9.014770   -2.916008   -3.691483
     89          1           0       -9.620678   -1.223927   -3.492309
     90          1           0       -4.137567   -3.580907   -1.488692
     91          1           0        2.464163   -6.076797    1.597952
     92          1           0        2.166086   -5.286841   -0.290931
     93          1           0        3.844431   -4.078576    2.153631
     94          1           0        2.710514   -3.510326   -1.573716
     95          1           0        3.655588   -2.267028   -1.493712
     96          1           0        4.481033   -3.710835   -2.004466
     97          1           0        5.307431   -1.453035    0.184743
     98          1           0        5.342079   -2.503459    1.763032
     99          1           0        6.759255   -3.890522    0.451318
    100          1           0        6.804996   -2.749953   -1.018570
    101          1           0        7.427471   -0.747712   -0.012513
    102          1           0        7.917862   -1.798292    1.591735
    103          1           0        8.811536   -1.970403   -1.268436
    104          1           0        9.129677   -4.195054   -0.367741
    105          1           0       10.733717   -3.222000   -0.334988
    106          1           0       10.058421   -3.234426    1.328756
    107          1           0        9.544909    0.171783    0.092832
    108          1           0        9.976495   -0.763181    1.308605
    109          1           0       11.839978   -1.779340   -0.327313
    110          1           0       11.433888   -0.599383   -1.450238
    111          1           0       11.782154    1.329077    0.240734
    112          1           0       12.420234    0.245308    1.361223
    113          1           0       13.305555    0.683651   -1.698718
    114          1           0       14.649753   -1.220046    0.595919
    115          1           0       13.954189   -1.566399   -0.836813
    116          1           0       15.375876   -0.672981   -1.111251
    117          1           0       13.476208    2.474124    0.319697
    118          1           0       14.946991    1.504392    0.938002
    119          1           0       16.269440    1.172935   -1.350346
    120          1           0       14.842043    2.231808   -2.131915
    121          1           0       15.343066    4.332768   -0.523925
    122          1           0       16.412520    3.333744    0.578303
    123          1           0       18.321552    3.281555   -0.819182
    124          1           0       16.564697    4.559678   -3.361677
    125          1           0       18.359210    4.184270   -3.149545
    126          1           0       17.101898    2.946145   -3.395107
    127          1           0       17.778623    5.674927    0.471948
    128          1           0       19.052454    5.309391   -1.104787
    129          1           0       17.401022    5.961970   -1.264140
    130          1           0       -5.273860   -7.814863   -0.148744
    131          1           0       -6.540868   -6.847540    0.870671
    132          1           0       -5.059994   -6.715289    1.587391
    133          8           0       -8.008834    6.862767   -0.581326
    134          1           0       -9.320959    6.095607   -2.048063
 ---------------------------------------------------------------------

 SCF Done:  E(RCAM-B3LYP) =  -3043.38975805     A.U. after   16 cycles

 Excitation energies and oscillator strengths:

 Excited State   1:      Singlet-A      1.9790 eV  626.48 nm  f=0.2052  <S**2>=0.000
     243 -> 246        0.25192
     243 -> 247        0.10397
     244 -> 245        0.65064
 This state for optimization and/or second-order correction.
 Total Energy, E(TD-HF/TD-KS) =  -3043.31702936
 Copying the excited state density for this state as the 1-particle RhoCI density.

 The electronic state is 1-A.
 Alpha  occ. eigenvalues --  -46.81637 -19.24192 -19.22120 -19.17453 -19.17123
 Alpha  occ. eigenvalues --  -19.17045 -19.16995 -19.16714 -14.39845 -14.38027
 Alpha  occ. eigenvalues --  -14.37311 -14.36887 -10.35251 -10.34619 -10.31382
 Alpha  occ. eigenvalues --  -10.31083 -10.29987 -10.29947 -10.28785 -10.28434
 Alpha  occ. eigenvalues --  -10.27527 -10.27357 -10.27330 -10.26907 -10.26706
 Alpha  occ. eigenvalues --  -10.26682 -10.26599 -10.25915 -10.25685 -10.25611
 Alpha  occ. eigenvalues --  -10.25374 -10.25371 -10.24961 -10.24787 -10.24531
 Alpha  occ. eigenvalues --  -10.24350 -10.24275 -10.24183 -10.24180 -10.24048
 Alpha  occ. eigenvalues --  -10.24020 -10.23454 -10.23410 -10.23382 -10.23189
 Alpha  occ. eigenvalues --  -10.23011 -10.22947 -10.22932 -10.22790 -10.22745
 Alpha  occ. eigenvalues --  -10.22619 -10.22244 -10.22218 -10.22162 -10.22111
 Alpha  occ. eigenvalues --  -10.21959 -10.21904 -10.21767 -10.21661 -10.21471
 Alpha  occ. eigenvalues --  -10.21427 -10.21377 -10.21021 -10.20937 -10.20654
 Alpha  occ. eigenvalues --  -10.20288  -3.10361  -1.85287  -1.84860  -1.84761
 Alpha  occ. eigenvalues --   -1.15772  -1.13195  -1.08135  -1.07617  -1.04196
 Alpha  occ. eigenvalues --   -1.03901  -1.02572  -1.01970  -1.00515  -0.99818
 Alpha  occ. eigenvalues --   -0.98162  -0.88245  -0.86900  -0.86782  -0.86648
 Alpha  occ. eigenvalues --   -0.84887  -0.84370  -0.83905  -0.83684  -0.83395
 Alpha  occ. eigenvalues --   -0.83059  -0.82800  -0.82018  -0.80180  -0.79683
 Alpha  occ. eigenvalues --   -0.79541  -0.77845  -0.77418  -0.77191  -0.75882
 Alpha  occ. eigenvalues --   -0.75455  -0.74915  -0.73636  -0.72507  -0.72192
 Alpha  occ. eigenvalues --   -0.71594  -0.70589  -0.70072  -0.69609  -0.69289
 Alpha  occ. eigenvalues --   -0.68829  -0.68728  -0.67697  -0.66551  -0.65669
 Alpha  occ. eigenvalues --   -0.65470  -0.64405  -0.64020  -0.62328  -0.61818
 Alpha  occ. eigenvalues --   -0.61504  -0.60821  -0.60503  -0.59795  -0.58403
 Alpha  occ. eigenvalues --   -0.58274  -0.57526  -0.57344  -0.56751  -0.56634
 Alpha  occ. eigenvalues --   -0.56231  -0.55780  -0.55590  -0.55297  -0.54595
 Alpha  occ. eigenvalues --   -0.54188  -0.54037  -0.53052  -0.52953  -0.52219
 Alpha  occ. eigenvalues --   -0.52069  -0.51796  -0.51558  -0.51211  -0.50587
 Alpha  occ. eigenvalues --   -0.49758  -0.49675  -0.49351  -0.49116  -0.49038
 Alpha  occ. eigenvalues --   -0.48770  -0.48668  -0.48555  -0.48046  -0.47683
 Alpha  occ. eigenvalues --   -0.47567  -0.47131  -0.47029  -0.46916  -0.46676
 Alpha  occ. eigenvalues --   -0.46510  -0.46231  -0.45840  -0.45820  -0.45774
 Alpha  occ. eigenvalues --   -0.45648  -0.45266  -0.44809  -0.44604  -0.44437
 Alpha  occ. eigenvalues --   -0.44295  -0.44127  -0.43849  -0.43688  -0.43625
 Alpha  occ. eigenvalues --   -0.43520  -0.42984  -0.42780  -0.42692  -0.42592
 Alpha  occ. eigenvalues --   -0.42548  -0.42414  -0.42227  -0.42093  -0.41906
 Alpha  occ. eigenvalues --   -0.41742  -0.41728  -0.41460  -0.41237  -0.40676
 Alpha  occ. eigenvalues --   -0.40612  -0.40495  -0.40430  -0.40202  -0.39894
 Alpha  occ. eigenvalues --   -0.39690  -0.39637  -0.39437  -0.39299  -0.38690
 Alpha  occ. eigenvalues --   -0.38571  -0.38448  -0.38277  -0.38145  -0.38021
 Alpha  occ. eigenvalues --   -0.37882  -0.37473  -0.37303  -0.37043  -0.36989
 Alpha  occ. eigenvalues --   -0.36511  -0.36332  -0.36012  -0.35828  -0.35759
 Alpha  occ. eigenvalues --   -0.35539  -0.35179  -0.34659  -0.34531  -0.34339
 Alpha  occ. eigenvalues --   -0.34005  -0.33764  -0.33528  -0.33232  -0.32901
 Alpha  occ. eigenvalues --   -0.32684  -0.32456  -0.32328  -0.31832  -0.31462
 Alpha  occ. eigenvalues --   -0.31269  -0.30692  -0.30401  -0.30164  -0.29795
 Alpha  occ. eigenvalues --   -0.29524  -0.28669  -0.28197  -0.27963  -0.27525
 Alpha  occ. eigenvalues --   -0.27336  -0.26897  -0.23046  -0.21323
 Alpha virt. eigenvalues --   -0.08600  -0.06739  -0.02627  -0.01628   0.00267
 Alpha virt. eigenvalues --    0.02969   0.03125   0.03545   0.03893   0.04159
 Alpha virt. eigenvalues --    0.04593   0.05672   0.07544   0.07848   0.08477

 Mulliken charges:
               1
     1  Mg   0.829129
     2  C    0.069485
     3  C   -0.197582
     4  C   -0.172070
     5  C   -0.162280
     6  N   -0.628569
     7  C    0.322456
     8  C   -0.151473
     9  C   -0.166536
    10  C    0.344674
    11  C   -0.296303
    12  C   -0.144999
    13  C   -0.242544
    14  C    0.599683
    15  O   -0.478122
    16  O   -0.450780
    17  N   -0.682774
    18  C    0.305247
    19  C    0.038038
    20  C   -0.041814
    21  C    0.318916
    22  C   -0.389880
    23  C    0.247194
    24  O   -0.400886
    25  N   -0.635942
    26  C    0.256016
    27  C    0.024213
    28  C    0.033946
    29  C    0.273782
    30  C    0.194900
    31  C   -0.218675
    32  C   -0.293051
    33  N   -0.718177
    34  C    0.265500
    35  C    0.047132
    36  C    0.093044
    37  C    0.240712
    38  C   -0.410039
    39  C    0.300247
    40  O   -0.441424
    41  C   -0.353186
    42  C    0.630864
    43  O   -0.512920
    44  O   -0.396565
    45  C   -0.091806
    46  C   -0.005986
    47  C   -0.148952
    48  C    0.197094
    49  C   -0.406389
    50  C   -0.225610
    51  C   -0.180416
    52  C   -0.154370
    53  C   -0.080667
    54  C   -0.292194
    55  C   -0.189434
    56  C   -0.175481
    57  C   -0.189127
    58  C   -0.049111
    59  C   -0.280057
    60  C   -0.148887
    61  C   -0.171451
    62  C   -0.140899
    63  C   -0.049042
    64  C   -0.316733
    65  C   -0.292743
    66  H    0.083248
    67  H    0.133341
    68  H    0.104862
    69  H    0.128770
    70  H    0.092898
    71  H    0.119715
    72  H    0.102569
    73  H    0.137101
    74  H    0.113911
    75  H    0.096148
    76  H    0.132366
    77  H    0.122313
    78  H    0.136642
    79  H    0.153040
    80  H    0.132128
    81  H    0.077928
    82  H    0.135573
    83  H    0.110281
    84  H    0.108789
    85  H    0.069631
    86  H    0.101756
    87  H    0.134192
    88  H    0.135716
    89  H    0.113673
    90  H    0.169008
    91  H    0.083707
    92  H    0.133168
    93  H    0.083747
    94  H    0.158781
    95  H    0.105195
    96  H    0.122935
    97  H    0.103183
    98  H    0.104544
    99  H    0.098988
   100  H    0.078943
   101  H    0.099511
   102  H    0.073441
   103  H    0.090083
   104  H    0.075396
   105  H    0.090765
   106  H    0.109353
   107  H    0.088530
   108  H    0.079088
   109  H    0.090450
   110  H    0.102412
   111  H    0.091622
   112  H    0.089958
   113  H    0.072965
   114  H    0.042100
   115  H    0.114974
   116  H    0.100807
   117  H    0.063979
   118  H    0.064969
   119  H    0.099229
   120  H    0.067966
   121  H    0.069722
   122  H    0.098917
   123  H    0.080477
   124  H    0.090775
   125  H    0.115160
   126  H    0.110146
   127  H    0.042934
   128  H    0.085861
   129  H    0.123030
   130  H    0.099188
   131  H    0.154165
   132  H    0.119085
   133  O   -0.452516
   134  H    0.080344
 Sum of Mulliken charges =   0.00000

 Dipole moment (field-independent basis, Debye):
    X=              1.5706    Y=             -4.4105    Z=             -1.1535  Tot=              4.8218
 Quadrupole moment (field-independent basis, Debye-Ang):
   XX=           -372.3385   YY=           -458.1881   ZZ=           -389.1380
   XY=             12.4677   XZ=             14.9996   YZ=            -30.5301

 Normal termination of Gaussian 09 at Sat Oct  5 06:04:34 2019.
