 Gaussian 09, Revision D.01,
 Gaussian 09:  ES64L-G09RevD.01 24-Apr-2013

 ----------------------------------------------------------------------
 # td=(NStates=1) iop(3/107=0140000000,3/108=0140000000) iop(3/107=0140
 000000,3/108=0140000000) CAM-B3LYP/6-31G(d,p)
 ----------------------------------------------------------------------

 --
 TD
 --
 Symbolic Z-matrix:
 Charge =  0 Multiplicity = 1

                         Standard orientation:
 ---------------------------------------------------------------------
 Center     Atomic      Atomic             Coordinates (Angstroms)
 Number     Number       Type             X           Y           Z
 ---------------------------------------------------------------------
      1         12           0       -5.678156    1.179156    0.228400
      2          6           0       -5.028095   -2.125121   -0.309621
      3          6           0       -3.376724    1.182336    2.754842
      4          6           0       -6.248300    4.556212    0.710081
      5          6           0       -7.950861    1.152217   -2.398918
      6          7           0       -4.358413   -0.275536    1.041159
      7          6           0       -4.278108   -1.610801    0.680992
      8          6           0       -3.204203   -2.249193    1.534951
      9          6           0       -2.955472   -1.223932    2.585043
     10          6           0       -3.694501   -0.049289    2.148693
     11          6           0       -3.591620   -1.676107    3.954301
     12          6           0       -1.860531   -2.607304    0.616925
     13          6           0       -0.920269   -3.505441    1.480207
     14          6           0        0.269432   -3.990576    0.566510
     15          8           0        0.457448   -3.577256   -0.561857
     16          8           0        1.074759   -4.788427    1.123372
     17          7           0       -4.810752    2.602451    1.392066
     18          6           0       -3.889627    2.419470    2.445302
     19          6           0       -3.694021    3.679675    3.164732
     20          6           0       -4.604280    4.602528    2.532741
     21          6           0       -5.219403    3.879320    1.452184
     22          6           0       -2.831073    3.777728    4.286267
     23          6           0       -4.554890    6.134472    2.716928
     24          8           0       -3.989065    6.651145    3.723297
     25          7           0       -6.860034    2.575515   -0.756573
     26          6           0       -6.893811    3.905073   -0.435863
     27          6           0       -7.973927    4.618440   -1.134461
     28          6           0       -8.461451    3.692749   -2.059325
     29          6           0       -7.722320    2.407701   -1.772792
     30          6           0       -8.196406    6.036925   -1.086064
     31          6           0       -9.549514    3.860302   -3.063508
     32          6           0       -8.995751    3.869320   -4.548835
     33          7           0       -6.286791   -0.076419   -1.109331
     34          6           0       -7.306900    0.042446   -2.109094
     35          6           0       -7.648139   -1.348393   -2.611145
     36          6           0       -6.712772   -2.172275   -2.155813
     37          6           0       -5.936422   -1.340391   -1.088267
     38          6           0       -8.583348   -1.647783   -3.768812
     39          6           0       -6.186159   -3.528821   -2.009270
     40          8           0       -6.460358   -4.579482   -2.562289
     41          6           0       -5.081214   -3.593394   -0.790714
     42          6           0       -5.391545   -4.602788    0.227260
     43          8           0       -5.823580   -4.322395    1.375007
     44          8           0       -5.046621   -5.850679   -0.224101
     45          6           0       -5.359602   -6.821681    0.614746
     46          6           0        2.351863   -5.176230    0.513074
     47          6           0        3.431568   -4.249817    0.998916
     48          6           0        4.057638   -3.377993    0.168569
     49          6           0        3.766721   -3.194540   -1.346704
     50          6           0        5.257731   -2.521550    0.612530
     51          6           0        6.543499   -2.898802   -0.032633
     52          6           0        7.745085   -2.096817    0.643031
     53          6           0        9.108851   -2.114806   -0.142077
     54          6           0        9.700677   -3.484525    0.120876
     55          6           0       10.073315   -0.867265    0.287080
     56          6           0       11.394209   -0.773330   -0.385712
     57          6           0       12.172109    0.411544    0.120997
     58          6           0       13.534235    0.532247   -0.553562
     59          6           0       14.540665   -0.711656   -0.232677
     60          6           0       14.223961    1.866129   -0.142121
     61          6           0       15.458340    2.145757   -0.917153
     62          6           0       15.943078    3.495840   -0.591742
     63          6           0       17.242997    4.088910   -1.304893
     64          6           0       17.016710    4.166705   -2.853332
     65          6           0       17.853625    5.340201   -0.750242
     66          1           0       -2.623991    1.089216    3.549940
     67          1           0       -6.324713    5.787598    0.912067
     68          1           0       -8.834728    1.130919   -3.203931
     69          1           0       -3.483673   -3.396331    1.942518
     70          1           0       -1.980712   -0.858596    2.685231
     71          1           0       -3.100768   -2.751304    4.320523
     72          1           0       -3.685153   -0.947870    4.587265
     73          1           0       -4.683902   -2.044441    3.833708
     74          1           0       -2.247316   -3.184090   -0.289517
     75          1           0       -1.105107   -1.697253    0.285862
     76          1           0       -0.383460   -3.063382    2.323192
     77          1           0       -1.388367   -4.654631    1.565567
     78          1           0       -1.782552    3.634684    4.099966
     79          1           0       -2.846502    4.846989    4.586927
     80          1           0       -2.954905    3.266817    5.154633
     81          1           0       -4.812178    6.925314    1.760985
     82          1           0      -10.169277    2.892679   -3.203191
     83          1           0       -9.946697    4.762328   -2.610901
     84          1           0       -9.913007    4.169087   -5.275046
     85          1           0       -8.353166    4.559628   -4.658183
     86          1           0       -8.546108    2.988030   -4.940291
     87          1           0       -8.408181   -0.794163   -4.372762
     88          1           0       -8.547407   -2.539627   -4.076138
     89          1           0       -9.593227   -1.548334   -3.265759
     90          1           0       -4.212721   -3.968217   -1.345408
     91          1           0        2.464639   -6.070368    0.965854
     92          1           0        2.186052   -5.206760   -0.687028
     93          1           0        3.748579   -4.508668    2.132935
     94          1           0        2.713527   -3.450649   -1.546863
     95          1           0        3.749081   -2.205442   -1.472685
     96          1           0        4.301851   -3.893152   -1.996925
     97          1           0        4.974750   -1.458036    0.323535
     98          1           0        5.347724   -2.637174    1.673837
     99          1           0        6.724100   -3.962304   -0.138759
    100          1           0        6.573444   -2.537496   -1.097907
    101          1           0        7.371503   -1.006261    0.659467
    102          1           0        7.868208   -2.360946    1.652962
    103          1           0        9.054112   -1.963887   -1.171065
    104          1           0        9.057769   -4.214148   -0.092159
    105          1           0       10.610284   -3.679099   -0.311396
    106          1           0        9.647576   -3.636258    1.281930
    107          1           0        9.219941    0.006134    0.223977
    108          1           0       10.244354   -1.173866    1.390426
    109          1           0       11.887540   -1.661866   -0.296189
    110          1           0       11.081694   -0.661385   -1.487637
    111          1           0       11.745985    1.611318   -0.223058
    112          1           0       12.420549    0.397973    1.036325
    113          1           0       13.271163    0.508089   -1.704422
    114          1           0       14.586191   -0.620578    0.857424
    115          1           0       14.174414   -1.774249   -0.244371
    116          1           0       15.356211   -0.751123   -0.727236
    117          1           0       13.434398    2.748166   -0.122119
    118          1           0       14.275579    1.755949    0.922565
    119          1           0       16.119315    1.444763   -0.645285
    120          1           0       15.170935    2.053708   -1.934260
    121          1           0       15.109426    4.213764   -0.763592
    122          1           0       16.037485    3.619445    0.381278
    123          1           0       18.086222    3.187697   -1.134065
    124          1           0       16.395193    4.857725   -2.972169
    125          1           0       17.881217    4.403176   -3.456775
    126          1           0       16.602617    3.106231   -3.306844
    127          1           0       17.811912    5.338981    0.471916
    128          1           0       18.820705    5.529884   -1.208149
    129          1           0       17.179446    6.286585   -1.009300
    130          1           0       -5.182225   -7.844917    0.026041
    131          1           0       -6.521709   -6.868758    0.551569
    132          1           0       -4.864220   -6.543672    1.565398
    133          8           0       -7.719071    6.840769   -0.351160
    134          1           0       -9.118315    6.273320   -1.679197
 ---------------------------------------------------------------------

 SCF Done:  E(RCAM-B3LYP) =  -3043.33371824     A.U. after   16 cycles

 Excitation energies and oscillator strengths:

 Excited State   1:      Singlet-A      1.9953 eV  621.40 nm  f=0.1911  <S**2>=0.000
     243 -> 246       -0.21934
     244 -> 245        0.66010
 This state for optimization and/or second-order correction.
 Total Energy, E(TD-HF/TD-KS) =  -3043.26039412
 Copying the excited state density for this state as the 1-particle RhoCI density.

 The electronic state is 1-A.
 Alpha  occ. eigenvalues --  -46.80941 -19.23218 -19.21947 -19.17971 -19.17955
 Alpha  occ. eigenvalues --  -19.17390 -19.17183 -19.14814 -14.38299 -14.37876
 Alpha  occ. eigenvalues --  -14.37308 -14.36288 -10.35816 -10.33507 -10.32801
 Alpha  occ. eigenvalues --  -10.32413 -10.29968 -10.28103 -10.28032 -10.27481
 Alpha  occ. eigenvalues --  -10.27260 -10.26788 -10.26698 -10.26246 -10.26146
 Alpha  occ. eigenvalues --  -10.26120 -10.26054 -10.25615 -10.25496 -10.25382
 Alpha  occ. eigenvalues --  -10.25313 -10.25276 -10.24949 -10.24712 -10.24630
 Alpha  occ. eigenvalues --  -10.24315 -10.24277 -10.24025 -10.24016 -10.23877
 Alpha  occ. eigenvalues --  -10.23556 -10.23084 -10.23057 -10.22990 -10.22743
 Alpha  occ. eigenvalues --  -10.22374 -10.22347 -10.22268 -10.22190 -10.22170
 Alpha  occ. eigenvalues --  -10.22047 -10.21961 -10.21747 -10.21615 -10.21556
 Alpha  occ. eigenvalues --  -10.21222 -10.20981 -10.20876 -10.20818 -10.20262
 Alpha  occ. eigenvalues --  -10.19726 -10.19680 -10.19509 -10.19294 -10.18986
 Alpha  occ. eigenvalues --  -10.18904  -3.09756  -1.84670  -1.84242  -1.84175
 Alpha  occ. eigenvalues --   -1.15743  -1.15250  -1.08461  -1.07671  -1.04714
 Alpha  occ. eigenvalues --   -1.04134  -1.03246  -1.01649  -1.00359  -0.99371
 Alpha  occ. eigenvalues --   -0.98356  -0.88117  -0.86097  -0.85860  -0.85818
 Alpha  occ. eigenvalues --   -0.84936  -0.84795  -0.84324  -0.84000  -0.83853
 Alpha  occ. eigenvalues --   -0.82935  -0.82784  -0.81564  -0.80707  -0.80131
 Alpha  occ. eigenvalues --   -0.79346  -0.78781  -0.78021  -0.77173  -0.77063
 Alpha  occ. eigenvalues --   -0.76112  -0.75531  -0.74118  -0.72465  -0.72184
 Alpha  occ. eigenvalues --   -0.71757  -0.71545  -0.71005  -0.70303  -0.69963
 Alpha  occ. eigenvalues --   -0.69595  -0.69249  -0.67553  -0.67209  -0.66146
 Alpha  occ. eigenvalues --   -0.65363  -0.64816  -0.63778  -0.63051  -0.61962
 Alpha  occ. eigenvalues --   -0.61380  -0.61131  -0.60485  -0.59146  -0.59117
 Alpha  occ. eigenvalues --   -0.58373  -0.57629  -0.57326  -0.57055  -0.56735
 Alpha  occ. eigenvalues --   -0.56107  -0.55822  -0.55237  -0.55197  -0.55110
 Alpha  occ. eigenvalues --   -0.54321  -0.53559  -0.53454  -0.52597  -0.52143
 Alpha  occ. eigenvalues --   -0.51811  -0.51575  -0.51463  -0.51176  -0.50870
 Alpha  occ. eigenvalues --   -0.50627  -0.50404  -0.50304  -0.49844  -0.49249
 Alpha  occ. eigenvalues --   -0.49042  -0.48930  -0.48431  -0.48339  -0.48134
 Alpha  occ. eigenvalues --   -0.47989  -0.47483  -0.47345  -0.47116  -0.47012
 Alpha  occ. eigenvalues --   -0.46940  -0.46543  -0.46360  -0.46191  -0.46050
 Alpha  occ. eigenvalues --   -0.45742  -0.45532  -0.45261  -0.45106  -0.44879
 Alpha  occ. eigenvalues --   -0.44813  -0.44699  -0.44362  -0.44222  -0.44009
 Alpha  occ. eigenvalues --   -0.43622  -0.43600  -0.43448  -0.43301  -0.43060
 Alpha  occ. eigenvalues --   -0.42800  -0.42541  -0.42484  -0.42175  -0.42118
 Alpha  occ. eigenvalues --   -0.41800  -0.41324  -0.41251  -0.41219  -0.41040
 Alpha  occ. eigenvalues --   -0.40991  -0.40831  -0.40639  -0.40283  -0.39981
 Alpha  occ. eigenvalues --   -0.39737  -0.39582  -0.39343  -0.39222  -0.39128
 Alpha  occ. eigenvalues --   -0.38842  -0.38721  -0.38495  -0.38226  -0.38074
 Alpha  occ. eigenvalues --   -0.37529  -0.37145  -0.37047  -0.37008  -0.36933
 Alpha  occ. eigenvalues --   -0.36610  -0.36568  -0.36015  -0.35668  -0.35546
 Alpha  occ. eigenvalues --   -0.35475  -0.35154  -0.34818  -0.34661  -0.34256
 Alpha  occ. eigenvalues --   -0.34164  -0.34116  -0.33973  -0.33557  -0.32772
 Alpha  occ. eigenvalues --   -0.32771  -0.32399  -0.32191  -0.31721  -0.31544
 Alpha  occ. eigenvalues --   -0.31308  -0.31197  -0.30547  -0.30257  -0.29249
 Alpha  occ. eigenvalues --   -0.28864  -0.28300  -0.28197  -0.27759  -0.27707
 Alpha  occ. eigenvalues --   -0.27505  -0.27161  -0.23508  -0.20505
 Alpha virt. eigenvalues --   -0.07740  -0.06385  -0.02089  -0.00774   0.00137
 Alpha virt. eigenvalues --    0.01196   0.02658   0.02896   0.04416   0.04920
 Alpha virt. eigenvalues --    0.05722   0.06497   0.07386   0.07915   0.09252

 Mulliken charges:
               1
     1  Mg   0.834531
     2  C    0.071400
     3  C   -0.205830
     4  C   -0.175078
     5  C   -0.191510
     6  N   -0.643918
     7  C    0.329858
     8  C   -0.154374
     9  C   -0.137892
    10  C    0.371659
    11  C   -0.304874
    12  C   -0.159048
    13  C   -0.247529
    14  C    0.547627
    15  O   -0.490675
    16  O   -0.424564
    17  N   -0.713551
    18  C    0.309751
    19  C    0.078287
    20  C   -0.061837
    21  C    0.338409
    22  C   -0.431447
    23  C    0.234505
    24  O   -0.415465
    25  N   -0.652380
    26  C    0.249220
    27  C   -0.026745
    28  C    0.019911
    29  C    0.284262
    30  C    0.252355
    31  C   -0.239225
    32  C   -0.312090
    33  N   -0.744836
    34  C    0.290504
    35  C   -0.049530
    36  C    0.090648
    37  C    0.292367
    38  C   -0.328791
    39  C    0.339516
    40  O   -0.446103
    41  C   -0.319405
    42  C    0.634150
    43  O   -0.491593
    44  O   -0.398865
    45  C   -0.083379
    46  C    0.017829
    47  C   -0.141806
    48  C    0.105429
    49  C   -0.376094
    50  C   -0.216217
    51  C   -0.174697
    52  C   -0.183418
    53  C   -0.071085
    54  C   -0.303723
    55  C   -0.164343
    56  C   -0.165678
    57  C   -0.123813
    58  C   -0.077754
    59  C   -0.325788
    60  C   -0.182245
    61  C   -0.146768
    62  C   -0.170154
    63  C   -0.041435
    64  C   -0.297636
    65  C   -0.296726
    66  H    0.085544
    67  H    0.148506
    68  H    0.091809
    69  H    0.104763
    70  H    0.116634
    71  H    0.087882
    72  H    0.120493
    73  H    0.121772
    74  H    0.115486
    75  H    0.108825
    76  H    0.141158
    77  H    0.106025
    78  H    0.123163
    79  H    0.154203
    80  H    0.138580
    81  H    0.086989
    82  H    0.111397
    83  H    0.111897
    84  H    0.085478
    85  H    0.133009
    86  H    0.117411
    87  H    0.135531
    88  H    0.142210
    89  H    0.121920
    90  H    0.163948
    91  H    0.117825
    92  H    0.124413
    93  H    0.081176
    94  H    0.143840
    95  H    0.123716
    96  H    0.127248
    97  H    0.099484
    98  H    0.100188
    99  H    0.101341
   100  H    0.098315
   101  H    0.072844
   102  H    0.100718
   103  H    0.084911
   104  H    0.112649
   105  H    0.101478
   106  H    0.073858
   107  H    0.071522
   108  H    0.069497
   109  H    0.112340
   110  H    0.084570
   111  H    0.053293
   112  H    0.096491
   113  H    0.059632
   114  H    0.097300
   115  H    0.087954
   116  H    0.120142
   117  H    0.066935
   118  H    0.090933
   119  H    0.107834
   120  H    0.102734
   121  H    0.075323
   122  H    0.094762
   123  H    0.041651
   124  H    0.119505
   125  H    0.098353
   126  H    0.075170
   127  H    0.083768
   128  H    0.117033
   129  H    0.078904
   130  H    0.108583
   131  H    0.108968
   132  H    0.123433
   133  O   -0.408154
   134  H    0.040579
 Sum of Mulliken charges =   0.00000

 Dipole moment (field-independent basis, Debye):
    X=              2.6153    Y=             -5.8240    Z=             -1.5857  Tot=              6.5782
 Quadrupole moment (field-independent basis, Debye-Ang):
   XX=           -370.5744   YY=           -438.5269   ZZ=           -395.5799
   XY=              7.2107   XZ=             27.9206   YZ=            -31.1167

 Normal termination of Gaussian 09 at Fri Oct  4 06:46:03 2019.
