 Gaussian 09, Revision D.01,
 Gaussian 09:  ES64L-G09RevD.01 24-Apr-2013

 ----------------------------------------------------------------------
 # td=(NStates=1) iop(3/107=0140000000,3/108=0140000000) iop(3/107=0140
 000000,3/108=0140000000) CAM-B3LYP/6-31G(d,p)
 ----------------------------------------------------------------------

 --
 TD
 --
 Symbolic Z-matrix:
 Charge =  0 Multiplicity = 1

                         Standard orientation:
 ---------------------------------------------------------------------
 Center     Atomic      Atomic             Coordinates (Angstroms)
 Number     Number       Type             X           Y           Z
 ---------------------------------------------------------------------
      1         12           0       -5.756180    1.142233    0.140427
      2          6           0       -4.925550   -2.152285   -0.444579
      3          6           0       -3.534004    1.114253    2.766315
      4          6           0       -6.318338    4.599355    0.707775
      5          6           0       -7.982180    1.103725   -2.343419
      6          7           0       -4.517969   -0.284268    1.100782
      7          6           0       -4.240493   -1.540879    0.628633
      8          6           0       -3.288795   -2.321992    1.378626
      9          6           0       -2.883489   -1.349581    2.655321
     10          6           0       -3.596695   -0.017177    2.154290
     11          6           0       -3.579122   -1.956672    3.922891
     12          6           0       -1.992589   -2.608283    0.668614
     13          6           0       -1.039311   -3.482892    1.496329
     14          6           0        0.213559   -3.858934    0.735480
     15          8           0        0.481237   -3.389993   -0.314033
     16          8           0        1.104886   -4.558526    1.531424
     17          7           0       -5.000168    2.559042    1.490909
     18          6           0       -4.079971    2.356596    2.496119
     19          6           0       -3.787762    3.589378    3.232037
     20          6           0       -4.594585    4.551602    2.625117
     21          6           0       -5.281513    3.917047    1.569321
     22          6           0       -2.897313    3.652408    4.389981
     23          6           0       -4.594326    5.973374    2.995894
     24          8           0       -3.998117    6.448959    3.872317
     25          7           0       -6.864362    2.656210   -0.753565
     26          6           0       -6.954137    3.882145   -0.280849
     27          6           0       -7.973933    4.487115   -1.148630
     28          6           0       -8.405728    3.681260   -2.128954
     29          6           0       -7.737018    2.384895   -1.721817
     30          6           0       -8.307809    5.928124   -1.088482
     31          6           0       -9.375778    3.915859   -3.179191
     32          6           0       -8.685184    4.046457   -4.607481
     33          7           0       -6.394122   -0.142826   -1.071798
     34          6           0       -7.329451   -0.025598   -2.073068
     35          6           0       -7.551110   -1.348234   -2.832558
     36          6           0       -6.574689   -2.152899   -2.129292
     37          6           0       -5.956359   -1.419960   -1.152624
     38          6           0       -8.341985   -1.567835   -3.922973
     39          6           0       -6.165198   -3.503513   -2.114290
     40          8           0       -6.435683   -4.516907   -2.832916
     41          6           0       -4.983173   -3.508469   -1.051099
     42          6           0       -5.442386   -4.576658    0.047401
     43          8           0       -5.735660   -4.375814    1.109944
     44          8           0       -5.166257   -5.811103   -0.479441
     45          6           0       -5.525655   -6.923096    0.378666
     46          6           0        2.260338   -5.004765    0.703500
     47          6           0        3.412237   -4.097299    1.072799
     48          6           0        4.106009   -3.169206    0.285334
     49          6           0        3.703090   -3.132107   -1.180639
     50          6           0        5.261377   -2.347392    0.785681
     51          6           0        6.579389   -2.702016    0.135118
     52          6           0        7.776927   -1.709040    0.582423
     53          6           0        9.090637   -1.918865   -0.131261
     54          6           0        9.558209   -3.400852    0.175090
     55          6           0       10.050817   -0.942479    0.434394
     56          6           0       11.423546   -0.991802   -0.372639
     57          6           0       12.316101    0.295523    0.170789
     58          6           0       13.728436    0.399179   -0.556325
     59          6           0       14.591952   -0.728880   -0.309699
     60          6           0       14.163639    1.852415   -0.226579
     61          6           0       15.403454    2.223421   -1.075835
     62          6           0       16.007149    3.537531   -0.677231
     63          6           0       17.366191    3.928474   -1.360663
     64          6           0       17.247033    3.957661   -2.891449
     65          6           0       17.926869    5.167985   -0.806291
     66          1           0       -2.880883    1.319504    3.626548
     67          1           0       -6.609434    5.559951    0.983810
     68          1           0       -8.871290    1.090865   -2.946439
     69          1           0       -3.589263   -3.351254    1.691486
     70          1           0       -1.857174   -1.340127    2.841480
     71          1           0       -2.939355   -2.679399    4.137411
     72          1           0       -3.665723   -1.109684    4.523598
     73          1           0       -4.464818   -2.143733    3.569914
     74          1           0       -2.425770   -3.083773   -0.191924
     75          1           0       -1.540470   -1.817607    0.218747
     76          1           0       -0.883017   -3.039266    2.570423
     77          1           0       -1.378074   -4.507705    1.867160
     78          1           0       -1.783413    3.654632    4.248162
     79          1           0       -2.894446    4.625216    4.682742
     80          1           0       -3.120626    2.856659    5.365528
     81          1           0       -5.181915    6.557970    2.204848
     82          1           0      -10.141072    3.200661   -3.383345
     83          1           0       -9.948579    4.912039   -3.142689
     84          1           0       -9.193661    4.244966   -5.386663
     85          1           0       -7.920247    4.747675   -4.442572
     86          1           0       -7.885513    3.305616   -4.711033
     87          1           0       -8.261321   -0.754348   -4.575650
     88          1           0       -8.232815   -2.543367   -4.405752
     89          1           0       -9.472061   -1.457610   -3.662630
     90          1           0       -4.304909   -3.961969   -1.616535
     91          1           0        2.315763   -5.948568    1.158808
     92          1           0        2.086781   -4.959574   -0.294164
     93          1           0        3.611454   -4.224679    2.071954
     94          1           0        2.587753   -3.521663   -1.335593
     95          1           0        3.799759   -2.021897   -1.617540
     96          1           0        4.306247   -3.587898   -1.923888
     97          1           0        5.078675   -1.375532    0.444940
     98          1           0        5.326789   -2.411383    1.916008
     99          1           0        6.834582   -3.766901    0.274063
    100          1           0        6.583520   -2.611991   -1.105784
    101          1           0        7.569277   -0.627515    0.565056
    102          1           0        7.936820   -2.065509    1.721951
    103          1           0        8.966438   -1.853027   -1.337130
    104          1           0        8.970030   -4.200943   -0.173208
    105          1           0       10.500133   -3.620880   -0.274881
    106          1           0        9.725435   -3.520980    1.200978
    107          1           0        9.828662    0.106628    0.308742
    108          1           0       10.206211   -0.987782    1.484760
    109          1           0       12.010287   -1.836861   -0.008901
    110          1           0       11.188300   -0.788744   -1.383514
    111          1           0       11.761504    1.217074    0.250024
    112          1           0       12.283272    0.119367    1.322157
    113          1           0       13.484753    0.254871   -1.651598
    114          1           0       15.045251   -0.734715    0.588451
    115          1           0       13.963317   -1.597942   -0.495307
    116          1           0       15.526308   -0.684614   -0.914390
    117          1           0       13.334103    2.560124   -0.212969
    118          1           0       14.522795    1.835652    0.881088
    119          1           0       16.237209    1.495417   -0.990638
    120          1           0       15.006667    2.174776   -2.085949
    121          1           0       15.298601    4.401598   -0.729542
    122          1           0       16.092236    3.599902    0.301510
    123          1           0       17.868129    3.176944   -1.159400
    124          1           0       16.318016    4.591691   -3.212229
    125          1           0       18.238497    4.233468   -3.343645
    126          1           0       16.805814    2.965616   -3.270493
    127          1           0       18.097187    5.121822    0.096244
    128          1           0       18.882282    5.138994   -1.317816
    129          1           0       17.337197    6.087501   -1.191465
    130          1           0       -5.346616   -7.930382   -0.195007
    131          1           0       -6.651895   -6.734781    0.727961
    132          1           0       -4.882155   -6.723193    1.376580
    133          8           0       -7.888494    6.822860   -0.395583
    134          1           0       -9.162304    6.274162   -1.832078
 ---------------------------------------------------------------------

 SCF Done:  E(RCAM-B3LYP) =  -3043.39183905     A.U. after   15 cycles

 Excitation energies and oscillator strengths:

 Excited State   1:      Singlet-A      1.9360 eV  640.40 nm  f=0.2457  <S**2>=0.000
     243 -> 246       -0.21060
     244 -> 245        0.66029
 This state for optimization and/or second-order correction.
 Total Energy, E(TD-HF/TD-KS) =  -3043.32069090
 Copying the excited state density for this state as the 1-particle RhoCI density.

 The electronic state is 1-A.
 Alpha  occ. eigenvalues --  -46.80790 -19.21343 -19.21339 -19.18635 -19.17598
 Alpha  occ. eigenvalues --  -19.17375 -19.17315 -19.16814 -14.38878 -14.37399
 Alpha  occ. eigenvalues --  -14.37031 -14.36664 -10.34623 -10.34589 -10.31020
 Alpha  occ. eigenvalues --  -10.30507 -10.29933 -10.29537 -10.27647 -10.27443
 Alpha  occ. eigenvalues --  -10.26988 -10.26868 -10.26387 -10.26359 -10.26302
 Alpha  occ. eigenvalues --  -10.26000 -10.25861 -10.25249 -10.24834 -10.24688
 Alpha  occ. eigenvalues --  -10.24377 -10.24129 -10.24114 -10.23966 -10.23792
 Alpha  occ. eigenvalues --  -10.23687 -10.23607 -10.23468 -10.23425 -10.23028
 Alpha  occ. eigenvalues --  -10.22874 -10.22763 -10.22647 -10.22641 -10.22117
 Alpha  occ. eigenvalues --  -10.22073 -10.21909 -10.21708 -10.21659 -10.21545
 Alpha  occ. eigenvalues --  -10.21466 -10.21080 -10.21074 -10.21015 -10.20948
 Alpha  occ. eigenvalues --  -10.20821 -10.20794 -10.20289 -10.20189 -10.20020
 Alpha  occ. eigenvalues --  -10.18904 -10.18894 -10.18786 -10.18785 -10.18494
 Alpha  occ. eigenvalues --  -10.18165  -3.09656  -1.84571  -1.84132  -1.84095
 Alpha  occ. eigenvalues --   -1.16468  -1.13141  -1.10056  -1.07432  -1.06972
 Alpha  occ. eigenvalues --   -1.05083  -1.03877  -1.02061  -1.00790  -0.98916
 Alpha  occ. eigenvalues --   -0.97840  -0.89385  -0.86329  -0.86137  -0.85846
 Alpha  occ. eigenvalues --   -0.85584  -0.85274  -0.84582  -0.84335  -0.84070
 Alpha  occ. eigenvalues --   -0.83565  -0.83000  -0.81412  -0.80445  -0.79821
 Alpha  occ. eigenvalues --   -0.79184  -0.78713  -0.78374  -0.77113  -0.76554
 Alpha  occ. eigenvalues --   -0.75859  -0.75372  -0.73887  -0.72500  -0.71824
 Alpha  occ. eigenvalues --   -0.71795  -0.71271  -0.70744  -0.69690  -0.69630
 Alpha  occ. eigenvalues --   -0.69354  -0.68328  -0.67767  -0.66919  -0.66426
 Alpha  occ. eigenvalues --   -0.65599  -0.64710  -0.64350  -0.62738  -0.62005
 Alpha  occ. eigenvalues --   -0.61840  -0.61216  -0.60550  -0.60148  -0.59162
 Alpha  occ. eigenvalues --   -0.58995  -0.58496  -0.58091  -0.58002  -0.57859
 Alpha  occ. eigenvalues --   -0.56785  -0.56392  -0.55897  -0.55694  -0.55076
 Alpha  occ. eigenvalues --   -0.54431  -0.54031  -0.53560  -0.53048  -0.52234
 Alpha  occ. eigenvalues --   -0.51741  -0.51283  -0.51081  -0.51008  -0.50842
 Alpha  occ. eigenvalues --   -0.50282  -0.50103  -0.49889  -0.49763  -0.49407
 Alpha  occ. eigenvalues --   -0.49167  -0.48984  -0.48896  -0.48672  -0.48499
 Alpha  occ. eigenvalues --   -0.48196  -0.47896  -0.47496  -0.47423  -0.47242
 Alpha  occ. eigenvalues --   -0.47149  -0.47061  -0.46722  -0.46602  -0.46281
 Alpha  occ. eigenvalues --   -0.45983  -0.45804  -0.45546  -0.45290  -0.44987
 Alpha  occ. eigenvalues --   -0.44903  -0.44628  -0.44502  -0.44366  -0.44021
 Alpha  occ. eigenvalues --   -0.43836  -0.43739  -0.43534  -0.43503  -0.43079
 Alpha  occ. eigenvalues --   -0.42916  -0.42795  -0.42637  -0.42518  -0.42381
 Alpha  occ. eigenvalues --   -0.41892  -0.41812  -0.41799  -0.41277  -0.40918
 Alpha  occ. eigenvalues --   -0.40587  -0.40489  -0.40371  -0.40245  -0.40172
 Alpha  occ. eigenvalues --   -0.40124  -0.39861  -0.39816  -0.39730  -0.39411
 Alpha  occ. eigenvalues --   -0.39227  -0.38703  -0.38686  -0.38464  -0.38342
 Alpha  occ. eigenvalues --   -0.38111  -0.38022  -0.37732  -0.37559  -0.37373
 Alpha  occ. eigenvalues --   -0.36665  -0.36485  -0.36404  -0.35815  -0.35573
 Alpha  occ. eigenvalues --   -0.35392  -0.35375  -0.35254  -0.35098  -0.34375
 Alpha  occ. eigenvalues --   -0.34165  -0.33790  -0.33314  -0.33125  -0.32934
 Alpha  occ. eigenvalues --   -0.32704  -0.32387  -0.32285  -0.31888  -0.31836
 Alpha  occ. eigenvalues --   -0.31714  -0.31386  -0.30831  -0.29801  -0.29280
 Alpha  occ. eigenvalues --   -0.28940  -0.28385  -0.27830  -0.27472  -0.27331
 Alpha  occ. eigenvalues --   -0.27123  -0.26028  -0.23159  -0.21383
 Alpha virt. eigenvalues --   -0.09144  -0.06244  -0.01779   0.00240   0.00700
 Alpha virt. eigenvalues --    0.02833   0.03520   0.03654   0.04095   0.04392
 Alpha virt. eigenvalues --    0.05211   0.06159   0.07546   0.08636   0.09461

 Mulliken charges:
               1
     1  Mg   0.839533
     2  C    0.073855
     3  C   -0.184732
     4  C   -0.128109
     5  C   -0.181624
     6  N   -0.649040
     7  C    0.372127
     8  C   -0.191093
     9  C   -0.167257
    10  C    0.326317
    11  C   -0.271397
    12  C   -0.157182
    13  C   -0.282194
    14  C    0.610144
    15  O   -0.433219
    16  O   -0.492056
    17  N   -0.679268
    18  C    0.277871
    19  C    0.074078
    20  C   -0.042032
    21  C    0.253707
    22  C   -0.399102
    23  C    0.262469
    24  O   -0.384135
    25  N   -0.712109
    26  C    0.367048
    27  C   -0.078317
    28  C    0.075566
    29  C    0.266746
    30  C    0.245073
    31  C   -0.273627
    32  C   -0.329523
    33  N   -0.785863
    34  C    0.295807
    35  C    0.138846
    36  C    0.023846
    37  C    0.327515
    38  C   -0.440037
    39  C    0.310726
    40  O   -0.491786
    41  C   -0.330584
    42  C    0.594909
    43  O   -0.391964
    44  O   -0.453043
    45  C   -0.081771
    46  C    0.003107
    47  C   -0.123323
    48  C    0.142949
    49  C   -0.386971
    50  C   -0.213368
    51  C   -0.176921
    52  C   -0.151807
    53  C   -0.044232
    54  C   -0.326088
    55  C   -0.182788
    56  C   -0.193091
    57  C   -0.209458
    58  C   -0.036483
    59  C   -0.302127
    60  C   -0.185154
    61  C   -0.173972
    62  C   -0.175643
    63  C   -0.041835
    64  C   -0.310878
    65  C   -0.280536
    66  H    0.078608
    67  H    0.138641
    68  H    0.092264
    69  H    0.119465
    70  H    0.105050
    71  H    0.109201
    72  H    0.107901
    73  H    0.134581
    74  H    0.107907
    75  H    0.129750
    76  H    0.129024
    77  H    0.123710
    78  H    0.122433
    79  H    0.154620
    80  H    0.095189
    81  H    0.051883
    82  H    0.122027
    83  H    0.116790
    84  H    0.118624
    85  H    0.119706
    86  H    0.105578
    87  H    0.150139
    88  H    0.164516
    89  H    0.130408
    90  H    0.161668
    91  H    0.118673
    92  H    0.124254
    93  H    0.075189
    94  H    0.134929
    95  H    0.080160
    96  H    0.126627
    97  H    0.115665
    98  H    0.099156
    99  H    0.105531
   100  H    0.059913
   101  H    0.089760
   102  H    0.067462
   103  H    0.062670
   104  H    0.107049
   105  H    0.099557
   106  H    0.105313
   107  H    0.093287
   108  H    0.097120
   109  H    0.112156
   110  H    0.105488
   111  H    0.087084
   112  H    0.066165
   113  H    0.076320
   114  H    0.108631
   115  H    0.103742
   116  H    0.091173
   117  H    0.099788
   118  H    0.072942
   119  H    0.086247
   120  H    0.095580
   121  H    0.065280
   122  H    0.090263
   123  H    0.092084
   124  H    0.087893
   125  H    0.095262
   126  H    0.091771
   127  H    0.103284
   128  H    0.089993
   129  H    0.091529
   130  H    0.132528
   131  H    0.118210
   132  H    0.107267
   133  O   -0.414850
   134  H    0.035675
 Sum of Mulliken charges =   0.00000

 Dipole moment (field-independent basis, Debye):
    X=              0.8191    Y=             -4.7320    Z=             -1.4700  Tot=              5.0223
 Quadrupole moment (field-independent basis, Debye-Ang):
   XX=           -355.0191   YY=           -439.8498   ZZ=           -394.1923
   XY=              7.9039   XZ=             34.2482   YZ=            -31.1770

 Normal termination of Gaussian 09 at Thu Oct  3 16:18:16 2019.
