 Gaussian 09, Revision D.01,
 Gaussian 09:  ES64L-G09RevD.01 24-Apr-2013

 ----------------------------------------------------------------------
 # td=(NStates=1) iop(3/107=0140000000,3/108=0140000000) iop(3/107=0140
 000000,3/108=0140000000) CAM-B3LYP/6-31G(d,p)
 ----------------------------------------------------------------------

 --
 TD
 --
 Symbolic Z-matrix:
 Charge =  0 Multiplicity = 1

                         Standard orientation:
 ---------------------------------------------------------------------
 Center     Atomic      Atomic             Coordinates (Angstroms)
 Number     Number       Type             X           Y           Z
 ---------------------------------------------------------------------
      1         12           0       -5.593773    1.290702    0.222673
      2          6           0       -5.056918   -2.137796   -0.420631
      3          6           0       -3.310342    1.109170    2.737184
      4          6           0       -6.080404    4.615376    0.670951
      5          6           0       -8.032614    1.251545   -2.311446
      6          7           0       -4.454362   -0.316171    1.082621
      7          6           0       -4.295840   -1.577707    0.677686
      8          6           0       -3.297609   -2.335250    1.387518
      9          6           0       -2.919274   -1.422993    2.572927
     10          6           0       -3.543868   -0.114351    2.082150
     11          6           0       -3.383500   -1.870167    3.909540
     12          6           0       -2.004859   -2.624810    0.586537
     13          6           0       -1.093126   -3.556602    1.326192
     14          6           0        0.200382   -3.907434    0.592394
     15          8           0        0.470126   -3.576012   -0.557207
     16          8           0        1.034498   -4.694755    1.390921
     17          7           0       -4.751659    2.653684    1.451489
     18          6           0       -3.839495    2.380416    2.535107
     19          6           0       -3.652638    3.637950    3.214079
     20          6           0       -4.401985    4.614608    2.660369
     21          6           0       -5.103829    3.974586    1.465157
     22          6           0       -2.722698    3.826856    4.361968
     23          6           0       -4.529945    5.988306    2.988174
     24          8           0       -3.899146    6.607269    3.842146
     25          7           0       -6.908291    2.675707   -0.720343
     26          6           0       -6.913706    3.979625   -0.256133
     27          6           0       -7.942735    4.629455   -1.129388
     28          6           0       -8.487445    3.702900   -2.033761
     29          6           0       -7.814695    2.436814   -1.617306
     30          6           0       -8.324504    6.159593   -1.084463
     31          6           0       -9.456698    3.915824   -3.098451
     32          6           0       -8.738415    4.139244   -4.489915
     33          7           0       -6.402019   -0.053547   -1.065005
     34          6           0       -7.356965    0.049835   -2.095837
     35          6           0       -7.544104   -1.217813   -2.720055
     36          6           0       -6.767533   -2.095517   -2.141168
     37          6           0       -6.067963   -1.342658   -1.123795
     38          6           0       -8.571000   -1.533710   -3.807643
     39          6           0       -6.275882   -3.528280   -2.167480
     40          8           0       -6.517445   -4.413158   -2.907419
     41          6           0       -5.095503   -3.603446   -0.924105
     42          6           0       -5.478666   -4.721562    0.032719
     43          8           0       -5.888195   -4.644422    1.163328
     44          8           0       -4.986026   -5.919998   -0.475572
     45          6           0       -5.431712   -7.048979    0.377580
     46          6           0        2.229082   -5.116109    0.833430
     47          6           0        3.342033   -4.155032    1.168379
     48          6           0        4.094884   -3.376042    0.334322
     49          6           0        3.771802   -3.284183   -1.147600
     50          6           0        5.188929   -2.537339    0.806696
     51          6           0        6.504983   -2.759170    0.201907
     52          6           0        7.678598   -1.850595    0.596592
     53          6           0        8.992168   -2.127626   -0.108914
     54          6           0        9.612281   -3.472496    0.327717
     55          6           0       10.007263   -0.978697    0.353569
     56          6           0       11.367883   -0.885759   -0.315977
     57          6           0       12.161979    0.320222    0.148640
     58          6           0       13.434478    0.555395   -0.619072
     59          6           0       14.401421   -0.656122   -0.441050
     60          6           0       14.226132    1.770004   -0.187373
     61          6           0       15.398192    2.145706   -1.068097
     62          6           0       16.085733    3.508435   -0.660144
     63          6           0       17.323700    4.019408   -1.402159
     64          6           0       17.122759    4.087339   -2.920704
     65          6           0       17.821929    5.307925   -0.861842
     66          1           0       -2.853282    0.866539    3.712523
     67          1           0       -6.092709    5.729626    0.678553
     68          1           0       -8.767358    1.327058   -3.115961
     69          1           0       -3.834016   -3.154624    1.648747
     70          1           0       -1.909313   -0.999015    2.492035
     71          1           0       -2.775539   -2.557229    4.293779
     72          1           0       -3.615285   -0.967108    4.747521
     73          1           0       -4.378445   -2.389322    3.767751
     74          1           0       -2.179215   -2.965244   -0.465719
     75          1           0       -1.493275   -1.751050    0.388907
     76          1           0       -0.708689   -3.235037    2.226816
     77          1           0       -1.604854   -4.570531    1.476247
     78          1           0       -1.767969    3.528661    4.018459
     79          1           0       -2.812893    4.837951    4.621431
     80          1           0       -2.890450    3.204244    5.308568
     81          1           0       -5.289334    6.430780    2.158124
     82          1           0      -10.191841    3.069062   -3.286933
     83          1           0       -9.955407    4.813550   -2.811420
     84          1           0       -9.391637    4.157012   -5.410499
     85          1           0       -8.057939    4.943103   -4.494977
     86          1           0       -8.202516    3.031427   -4.688320
     87          1           0       -8.631580   -0.764984   -4.697500
     88          1           0       -8.368722   -2.646266   -4.170899
     89          1           0       -9.728490   -1.703880   -3.367462
     90          1           0       -4.550194   -4.054949   -1.734247
     91          1           0        2.355873   -5.965945    1.137802
     92          1           0        2.195447   -5.262762   -0.340933
     93          1           0        3.667108   -3.932718    2.322262
     94          1           0        2.648533   -3.395331   -1.444438
     95          1           0        4.101477   -2.316319   -1.487660
     96          1           0        4.493300   -4.041665   -1.717237
     97          1           0        4.909817   -1.531872    0.990731
     98          1           0        5.444274   -2.837664    1.861044
     99          1           0        6.751877   -3.862267    0.371273
    100          1           0        6.462788   -2.642004   -0.650609
    101          1           0        7.438542   -0.942026    0.570265
    102          1           0        7.761796   -2.046015    1.571944
    103          1           0        8.780397   -2.103875   -1.252513
    104          1           0        9.166799   -4.114083   -0.202284
    105          1           0       10.584643   -3.820650   -0.292156
    106          1           0        9.635651   -3.894350    1.380520
    107          1           0        9.517557   -0.060030    0.201610
    108          1           0       10.236920   -1.100648    1.460574
    109          1           0       12.087388   -1.619552   -0.178160
    110          1           0       11.452633   -0.916069   -1.401862
    111          1           0       11.639513    1.257268    0.026623
    112          1           0       12.518589    0.402783    1.250991
    113          1           0       13.271329    0.676377   -1.873836
    114          1           0       14.780561   -0.889336    0.704250
    115          1           0       13.931905   -1.665559   -0.691988
    116          1           0       15.308135   -0.599225   -1.054333
    117          1           0       13.500157    2.715574   -0.359472
    118          1           0       14.508228    1.757472    0.895682
    119          1           0       16.161086    1.331739   -1.156513
    120          1           0       14.960466    2.061985   -2.075092
    121          1           0       15.524344    4.320036   -0.807475
    122          1           0       16.156071    3.644421    0.362085
    123          1           0       17.888336    3.120938   -1.113256
    124          1           0       16.560349    4.787153   -3.424910
    125          1           0       18.237777    4.179922   -3.405455
    126          1           0       16.967067    3.108184   -3.390721
    127          1           0       18.121483    5.212819    0.291278
    128          1           0       18.869712    5.657150   -1.289938
    129          1           0       17.305485    5.964115   -0.981737
    130          1           0       -5.189427   -7.976855   -0.113189
    131          1           0       -6.418616   -6.903743    0.724138
    132          1           0       -4.966748   -6.747300    1.270999
    133          8           0       -7.722095    6.932286   -0.343678
    134          1           0       -9.052660    6.544572   -1.567255
 ---------------------------------------------------------------------

 SCF Done:  E(RCAM-B3LYP) =  -3043.30794193     A.U. after   16 cycles

 Excitation energies and oscillator strengths:

 Excited State   1:      Singlet-A      1.9639 eV  631.32 nm  f=0.2049  <S**2>=0.000
     243 -> 246       -0.24266
     244 -> 245        0.65893
 This state for optimization and/or second-order correction.
 Total Energy, E(TD-HF/TD-KS) =  -3043.23577059
 Copying the excited state density for this state as the 1-particle RhoCI density.

 The electronic state is 1-A.
 Alpha  occ. eigenvalues --  -46.82181 -19.22431 -19.21992 -19.19885 -19.18146
 Alpha  occ. eigenvalues --  -19.18008 -19.17517 -19.17046 -14.39427 -14.37332
 Alpha  occ. eigenvalues --  -14.37232 -14.36890 -10.35815 -10.35508 -10.33782
 Alpha  occ. eigenvalues --  -10.30235 -10.30143 -10.27758 -10.27757 -10.27127
 Alpha  occ. eigenvalues --  -10.26898 -10.26868 -10.26629 -10.26297 -10.26203
 Alpha  occ. eigenvalues --  -10.26065 -10.25879 -10.25848 -10.25718 -10.25342
 Alpha  occ. eigenvalues --  -10.24822 -10.24487 -10.24314 -10.24260 -10.24216
 Alpha  occ. eigenvalues --  -10.24176 -10.24060 -10.23996 -10.23915 -10.23773
 Alpha  occ. eigenvalues --  -10.23397 -10.23385 -10.23345 -10.23150 -10.22983
 Alpha  occ. eigenvalues --  -10.22979 -10.22762 -10.22612 -10.22410 -10.21927
 Alpha  occ. eigenvalues --  -10.21487 -10.21396 -10.21345 -10.21227 -10.21048
 Alpha  occ. eigenvalues --  -10.20766 -10.20577 -10.20462 -10.20413 -10.20262
 Alpha  occ. eigenvalues --  -10.19803 -10.19523 -10.19245 -10.18603 -10.18367
 Alpha  occ. eigenvalues --  -10.17937  -3.10654  -1.85604  -1.85133  -1.85045
 Alpha  occ. eigenvalues --   -1.13126  -1.12847  -1.11282  -1.06711  -1.05807
 Alpha  occ. eigenvalues --   -1.05347  -1.04443  -1.01989  -1.00967  -0.99996
 Alpha  occ. eigenvalues --   -0.97918  -0.87623  -0.87065  -0.86980  -0.85566
 Alpha  occ. eigenvalues --   -0.85375  -0.84911  -0.84540  -0.84179  -0.83885
 Alpha  occ. eigenvalues --   -0.83679  -0.83281  -0.82696  -0.80804  -0.80233
 Alpha  occ. eigenvalues --   -0.79133  -0.78267  -0.77191  -0.77048  -0.76668
 Alpha  occ. eigenvalues --   -0.75495  -0.75165  -0.74046  -0.72889  -0.72365
 Alpha  occ. eigenvalues --   -0.71999  -0.71944  -0.70785  -0.70219  -0.69778
 Alpha  occ. eigenvalues --   -0.69595  -0.69144  -0.68248  -0.67735  -0.66959
 Alpha  occ. eigenvalues --   -0.66505  -0.66095  -0.64362  -0.64164  -0.63739
 Alpha  occ. eigenvalues --   -0.62388  -0.61317  -0.60985  -0.59981  -0.59919
 Alpha  occ. eigenvalues --   -0.59590  -0.59339  -0.58247  -0.57027  -0.56921
 Alpha  occ. eigenvalues --   -0.56534  -0.55991  -0.55440  -0.54984  -0.54930
 Alpha  occ. eigenvalues --   -0.54459  -0.53570  -0.53368  -0.52574  -0.52457
 Alpha  occ. eigenvalues --   -0.52093  -0.51984  -0.51796  -0.51067  -0.50905
 Alpha  occ. eigenvalues --   -0.50426  -0.50410  -0.50269  -0.49668  -0.49019
 Alpha  occ. eigenvalues --   -0.48841  -0.48730  -0.48264  -0.48103  -0.47927
 Alpha  occ. eigenvalues --   -0.47745  -0.47628  -0.47547  -0.47014  -0.46940
 Alpha  occ. eigenvalues --   -0.46801  -0.46756  -0.46654  -0.46313  -0.46066
 Alpha  occ. eigenvalues --   -0.45979  -0.45852  -0.45580  -0.45224  -0.44964
 Alpha  occ. eigenvalues --   -0.44895  -0.44653  -0.44288  -0.44215  -0.43999
 Alpha  occ. eigenvalues --   -0.43886  -0.43604  -0.43391  -0.43249  -0.43136
 Alpha  occ. eigenvalues --   -0.42564  -0.42345  -0.42174  -0.41911  -0.41825
 Alpha  occ. eigenvalues --   -0.41717  -0.41651  -0.41569  -0.41444  -0.41353
 Alpha  occ. eigenvalues --   -0.41197  -0.41155  -0.40965  -0.40646  -0.40351
 Alpha  occ. eigenvalues --   -0.40203  -0.39887  -0.39831  -0.39698  -0.39607
 Alpha  occ. eigenvalues --   -0.39543  -0.39108  -0.39090  -0.38780  -0.38457
 Alpha  occ. eigenvalues --   -0.38200  -0.37576  -0.37238  -0.37227  -0.36797
 Alpha  occ. eigenvalues --   -0.36771  -0.36590  -0.36446  -0.35908  -0.35749
 Alpha  occ. eigenvalues --   -0.35360  -0.35346  -0.35142  -0.35062  -0.34832
 Alpha  occ. eigenvalues --   -0.34290  -0.34225  -0.33659  -0.33524  -0.33211
 Alpha  occ. eigenvalues --   -0.32931  -0.32804  -0.31931  -0.31927  -0.31817
 Alpha  occ. eigenvalues --   -0.31356  -0.31335  -0.31072  -0.30238  -0.30219
 Alpha  occ. eigenvalues --   -0.29624  -0.28635  -0.28312  -0.28145  -0.27747
 Alpha  occ. eigenvalues --   -0.27367  -0.26476  -0.23109  -0.21282
 Alpha virt. eigenvalues --   -0.08613  -0.06123  -0.01946  -0.00946   0.00467
 Alpha virt. eigenvalues --    0.02169   0.02847   0.03279   0.03887   0.04120
 Alpha virt. eigenvalues --    0.04670   0.05348   0.07447   0.08619   0.08972

 Mulliken charges:
               1
     1  Mg   0.829186
     2  C    0.027065
     3  C   -0.201306
     4  C   -0.172183
     5  C   -0.165759
     6  N   -0.602380
     7  C    0.310167
     8  C   -0.151750
     9  C   -0.131124
    10  C    0.281913
    11  C   -0.303702
    12  C   -0.173666
    13  C   -0.246402
    14  C    0.587375
    15  O   -0.457960
    16  O   -0.465285
    17  N   -0.730581
    18  C    0.312360
    19  C    0.036021
    20  C    0.006230
    21  C    0.315338
    22  C   -0.384123
    23  C    0.240364
    24  O   -0.434001
    25  N   -0.695733
    26  C    0.306201
    27  C   -0.108387
    28  C    0.062956
    29  C    0.316864
    30  C    0.282672
    31  C   -0.266140
    32  C   -0.300592
    33  N   -0.714894
    34  C    0.273531
    35  C    0.016312
    36  C    0.065928
    37  C    0.301538
    38  C   -0.381677
    39  C    0.336781
    40  O   -0.397320
    41  C   -0.320991
    42  C    0.631657
    43  O   -0.480623
    44  O   -0.477040
    45  C   -0.091565
    46  C    0.044034
    47  C   -0.150079
    48  C    0.155860
    49  C   -0.382174
    50  C   -0.256877
    51  C   -0.149716
    52  C   -0.157324
    53  C   -0.079994
    54  C   -0.302787
    55  C   -0.158753
    56  C   -0.182704
    57  C   -0.158441
    58  C   -0.049673
    59  C   -0.307144
    60  C   -0.155995
    61  C   -0.178047
    62  C   -0.172937
    63  C   -0.059884
    64  C   -0.317663
    65  C   -0.267897
    66  H    0.085962
    67  H    0.156137
    68  H    0.085746
    69  H    0.123644
    70  H    0.120557
    71  H    0.133051
    72  H    0.091378
    73  H    0.124425
    74  H    0.124703
    75  H    0.123365
    76  H    0.143491
    77  H    0.137732
    78  H    0.129175
    79  H    0.159181
    80  H    0.109366
    81  H    0.051064
    82  H    0.114459
    83  H    0.114305
    84  H    0.110952
    85  H    0.129441
    86  H    0.076483
    87  H    0.115675
    88  H    0.135086
    89  H    0.107610
    90  H    0.174893
    91  H    0.105776
    92  H    0.106148
    93  H    0.056336
    94  H    0.147389
    95  H    0.111151
    96  H    0.098427
    97  H    0.109730
    98  H    0.087731
    99  H    0.081341
   100  H    0.090340
   101  H    0.089323
   102  H    0.097505
   103  H    0.074470
   104  H    0.120815
   105  H    0.066891
   106  H    0.105193
   107  H    0.091366
   108  H    0.089230
   109  H    0.107601
   110  H    0.087812
   111  H    0.086989
   112  H    0.077171
   113  H    0.046739
   114  H    0.073451
   115  H    0.090952
   116  H    0.105012
   117  H    0.065361
   118  H    0.088448
   119  H    0.083376
   120  H    0.093076
   121  H    0.092253
   122  H    0.089671
   123  H    0.089131
   124  H    0.116049
   125  H    0.068074
   126  H    0.105378
   127  H    0.075315
   128  H    0.081648
   129  H    0.106092
   130  H    0.132337
   131  H    0.138806
   132  H    0.134280
   133  O   -0.415296
   134  H    0.076153
 Sum of Mulliken charges =   0.00000

 Dipole moment (field-independent basis, Debye):
    X=             -0.7152    Y=             -5.0545    Z=             -1.6517  Tot=              5.3654
 Quadrupole moment (field-independent basis, Debye-Ang):
   XX=           -380.0547   YY=           -434.9643   ZZ=           -395.3233
   XY=              7.8418   XZ=             25.6537   YZ=            -38.3812

 Normal termination of Gaussian 09 at Thu Oct  3 22:28:45 2019.
