 Gaussian 09, Revision D.01,
 Gaussian 09:  ES64L-G09RevD.01 24-Apr-2013

 ----------------------------------------------------------------------
 # td=(NStates=1) iop(3/107=0140000000,3/108=0140000000) iop(3/107=0140
 000000,3/108=0140000000) CAM-B3LYP/6-31G(d,p)
 ----------------------------------------------------------------------

 --
 TD
 --
 Symbolic Z-matrix:
 Charge =  0 Multiplicity = 1

                         Standard orientation:
 ---------------------------------------------------------------------
 Center     Atomic      Atomic             Coordinates (Angstroms)
 Number     Number       Type             X           Y           Z
 ---------------------------------------------------------------------
      1         12           0       -5.609774    1.317765    0.223829
      2          6           0       -4.982676   -2.135546   -0.394599
      3          6           0       -3.407378    1.121360    2.832799
      4          6           0       -6.195707    4.531201    0.668650
      5          6           0       -8.108149    1.144087   -2.323612
      6          7           0       -4.323839   -0.219774    0.986087
      7          6           0       -4.268582   -1.540194    0.626212
      8          6           0       -3.279961   -2.360264    1.442378
      9          6           0       -2.972429   -1.304845    2.554795
     10          6           0       -3.638333   -0.055487    2.176831
     11          6           0       -3.383077   -1.793198    4.056152
     12          6           0       -2.024410   -2.662505    0.618912
     13          6           0       -0.981933   -3.389981    1.442823
     14          6           0        0.325338   -3.746299    0.637806
     15          8           0        0.465316   -3.389332   -0.431289
     16          8           0        0.902298   -4.670133    1.329488
     17          7           0       -4.865844    2.643610    1.486619
     18          6           0       -3.974449    2.350750    2.488537
     19          6           0       -3.673507    3.612930    3.214089
     20          6           0       -4.468436    4.612603    2.613761
     21          6           0       -5.225917    4.038324    1.463426
     22          6           0       -2.792326    3.852423    4.384144
     23          6           0       -4.503672    6.017874    2.875042
     24          8           0       -3.901092    6.545940    3.806260
     25          7           0       -6.889880    2.594627   -0.713706
     26          6           0       -6.915663    3.925458   -0.378269
     27          6           0       -7.932737    4.609734   -1.146211
     28          6           0       -8.450287    3.697011   -2.039451
     29          6           0       -7.806466    2.311723   -1.687381
     30          6           0       -8.198420    6.025102   -1.251979
     31          6           0       -9.502558    3.932311   -3.142175
     32          6           0       -8.743494    3.882673   -4.470843
     33          7           0       -6.356394   -0.098707   -1.096680
     34          6           0       -7.273705   -0.013202   -2.099174
     35          6           0       -7.485011   -1.359021   -2.708958
     36          6           0       -6.599090   -2.206348   -2.053400
     37          6           0       -5.964675   -1.375397   -1.140130
     38          6           0       -8.476251   -1.615194   -3.829715
     39          6           0       -6.128886   -3.559870   -2.168355
     40          8           0       -6.522807   -4.537255   -2.669154
     41          6           0       -4.945445   -3.567242   -0.998042
     42          6           0       -5.225435   -4.632091    0.043953
     43          8           0       -5.653101   -4.535264    1.112152
     44          8           0       -5.144410   -5.851688   -0.505379
     45          6           0       -5.291392   -6.878983    0.522983
     46          6           0        2.181827   -5.153243    0.595897
     47          6           0        3.287090   -4.260513    1.101014
     48          6           0        4.026717   -3.405727    0.301958
     49          6           0        3.773246   -3.140400   -1.131367
     50          6           0        5.205243   -2.626713    0.820238
     51          6           0        6.624797   -2.843965    0.224227
     52          6           0        7.626653   -1.929046    0.752810
     53          6           0        9.002374   -2.085653   -0.057899
     54          6           0        9.588933   -3.538952    0.139887
     55          6           0        9.952450   -0.937015    0.432909
     56          6           0       11.263257   -0.822280   -0.376402
     57          6           0       12.165295    0.256324    0.128409
     58          6           0       13.523478    0.486808   -0.610982
     59          6           0       14.448499   -0.697140   -0.437340
     60          6           0       14.163271    1.878342   -0.199068
     61          6           0       15.466461    2.167437   -1.012479
     62          6           0       15.907003    3.648240   -0.765229
     63          6           0       17.229090    3.965229   -1.399662
     64          6           0       17.099703    4.158088   -2.890764
     65          6           0       17.772849    5.185642   -0.718584
     66          1           0       -2.891655    1.099865    3.834254
     67          1           0       -6.529576    5.539903    0.751960
     68          1           0       -8.749371    1.143833   -3.028600
     69          1           0       -3.458995   -3.363573    1.846917
     70          1           0       -1.827170   -0.844389    2.568786
     71          1           0       -2.886143   -2.711357    4.321881
     72          1           0       -3.322213   -0.866260    4.615294
     73          1           0       -4.334553   -2.153444    3.847360
     74          1           0       -2.264453   -3.244827   -0.320307
     75          1           0       -1.546135   -1.679115    0.090626
     76          1           0       -0.919645   -2.573931    2.394856
     77          1           0       -1.511068   -4.324201    1.724114
     78          1           0       -1.861669    3.197525    4.172422
     79          1           0       -2.928196    4.888545    4.727988
     80          1           0       -3.356648    3.433649    5.326696
     81          1           0       -5.001065    6.522964    2.096924
     82          1           0      -10.079300    2.987966   -3.267398
     83          1           0      -10.260817    4.720982   -2.988709
     84          1           0       -9.313165    4.180217   -5.327779
     85          1           0       -7.924514    4.879791   -4.340591
     86          1           0       -7.957386    3.007375   -4.492965
     87          1           0       -8.122707   -1.136188   -4.842950
     88          1           0       -8.430267   -2.761498   -3.991915
     89          1           0       -9.428204   -1.506808   -3.688733
     90          1           0       -4.177510   -3.896968   -1.587151
     91          1           0        2.330664   -6.212145    1.052534
     92          1           0        1.707086   -5.091610   -0.472284
     93          1           0        3.639979   -4.500293    2.040275
     94          1           0        2.884676   -3.469268   -1.343245
     95          1           0        3.846295   -1.974936   -1.298808
     96          1           0        4.693081   -3.694469   -1.697749
     97          1           0        4.976960   -1.545858    0.627935
     98          1           0        5.303451   -2.667935    1.897417
     99          1           0        6.850199   -3.698534    0.540532
    100          1           0        6.479105   -2.642849   -0.927566
    101          1           0        7.610785   -0.919555    0.410627
    102          1           0        7.783133   -1.872998    1.816015
    103          1           0        8.876082   -1.864329   -1.120291
    104          1           0        8.818859   -4.232199   -0.247315
    105          1           0       10.392837   -3.596217   -0.469494
    106          1           0        9.719803   -3.808763    1.123620
    107          1           0        9.212250   -0.089985    0.591177
    108          1           0       10.029912   -1.144349    1.568928
    109          1           0       11.676261   -1.876452   -0.391077
    110          1           0       10.994129   -0.574872   -1.540594
    111          1           0       11.670809    1.230290    0.052776
    112          1           0       12.235590    0.168054    1.210665
    113          1           0       13.351478    0.439449   -1.750152
    114          1           0       14.869880   -1.014070    0.362871
    115          1           0       14.037731   -1.607210   -0.971125
    116          1           0       15.295555   -0.741111   -1.124629
    117          1           0       13.441399    2.831583   -0.542468
    118          1           0       14.339463    1.932917    0.740107
    119          1           0       16.196359    1.572937   -0.704596
    120          1           0       15.328564    2.027618   -1.970130
    121          1           0       15.167858    4.380099   -1.020904
    122          1           0       16.119083    3.676857    0.352888
    123          1           0       18.136068    3.198194   -1.129406
    124          1           0       16.704486    5.167730   -3.044909
    125          1           0       18.102914    4.178050   -3.185795
    126          1           0       16.671439    3.258720   -3.409229
    127          1           0       17.966978    4.976925    0.443304
    128          1           0       18.629404    5.432549   -1.361961
    129          1           0       17.088679    6.033530   -0.875074
    130          1           0       -5.425220   -7.797603   -0.181935
    131          1           0       -6.371562   -6.719143    1.039038
    132          1           0       -4.466707   -6.921376    1.330266
    133          8           0       -7.819888    6.930428   -0.450624
    134          1           0       -8.953593    6.387379   -2.088474
 ---------------------------------------------------------------------

 SCF Done:  E(RCAM-B3LYP) =  -3043.40643050     A.U. after   15 cycles

 Excitation energies and oscillator strengths:

 Excited State   1:      Singlet-A      1.9853 eV  624.50 nm  f=0.2317  <S**2>=0.000
     243 -> 246       -0.22799
     244 -> 245        0.66367
 This state for optimization and/or second-order correction.
 Total Energy, E(TD-HF/TD-KS) =  -3043.33347041
 Copying the excited state density for this state as the 1-particle RhoCI density.

 The electronic state is 1-A.
 Alpha  occ. eigenvalues --  -46.81047 -19.21759 -19.21023 -19.18420 -19.17286
 Alpha  occ. eigenvalues --  -19.17280 -19.16514 -19.16355 -14.38921 -14.37575
 Alpha  occ. eigenvalues --  -14.36933 -14.36888 -10.33894 -10.33365 -10.31861
 Alpha  occ. eigenvalues --  -10.31362 -10.29388 -10.28933 -10.28477 -10.27436
 Alpha  occ. eigenvalues --  -10.27385 -10.27154 -10.26997 -10.26982 -10.26816
 Alpha  occ. eigenvalues --  -10.26285 -10.25941 -10.25577 -10.25244 -10.25055
 Alpha  occ. eigenvalues --  -10.24872 -10.24683 -10.24529 -10.23941 -10.23775
 Alpha  occ. eigenvalues --  -10.23736 -10.23694 -10.23585 -10.23314 -10.23200
 Alpha  occ. eigenvalues --  -10.23182 -10.23004 -10.22954 -10.22710 -10.22690
 Alpha  occ. eigenvalues --  -10.22688 -10.22650 -10.22602 -10.21952 -10.21939
 Alpha  occ. eigenvalues --  -10.21898 -10.21864 -10.21726 -10.21637 -10.21455
 Alpha  occ. eigenvalues --  -10.21392 -10.20754 -10.20699 -10.20567 -10.20294
 Alpha  occ. eigenvalues --  -10.20177 -10.19904 -10.19833 -10.18811 -10.18725
 Alpha  occ. eigenvalues --  -10.17981  -3.09726  -1.84664  -1.84203  -1.84133
 Alpha  occ. eigenvalues --   -1.15869  -1.15060  -1.10685  -1.07572  -1.05719
 Alpha  occ. eigenvalues --   -1.05054  -1.04315  -1.01125  -0.99640  -0.99332
 Alpha  occ. eigenvalues --   -0.97441  -0.88056  -0.86686  -0.85537  -0.85350
 Alpha  occ. eigenvalues --   -0.84993  -0.84823  -0.84626  -0.84323  -0.83484
 Alpha  occ. eigenvalues --   -0.83238  -0.82668  -0.81155  -0.80737  -0.79528
 Alpha  occ. eigenvalues --   -0.79173  -0.78437  -0.77591  -0.77046  -0.76748
 Alpha  occ. eigenvalues --   -0.75788  -0.75395  -0.73495  -0.72229  -0.71939
 Alpha  occ. eigenvalues --   -0.71587  -0.71527  -0.71204  -0.70233  -0.69365
 Alpha  occ. eigenvalues --   -0.69150  -0.68644  -0.67503  -0.66892  -0.65921
 Alpha  occ. eigenvalues --   -0.65442  -0.64576  -0.64201  -0.63340  -0.62069
 Alpha  occ. eigenvalues --   -0.61771  -0.61107  -0.60466  -0.59574  -0.58748
 Alpha  occ. eigenvalues --   -0.58154  -0.57546  -0.57341  -0.57053  -0.56914
 Alpha  occ. eigenvalues --   -0.56677  -0.56471  -0.55747  -0.55131  -0.54185
 Alpha  occ. eigenvalues --   -0.53999  -0.53440  -0.52943  -0.52625  -0.52228
 Alpha  occ. eigenvalues --   -0.51833  -0.51688  -0.51477  -0.50824  -0.50685
 Alpha  occ. eigenvalues --   -0.50331  -0.50135  -0.49770  -0.49624  -0.49350
 Alpha  occ. eigenvalues --   -0.49097  -0.48594  -0.48514  -0.48131  -0.47848
 Alpha  occ. eigenvalues --   -0.47752  -0.47690  -0.47438  -0.47245  -0.46992
 Alpha  occ. eigenvalues --   -0.46902  -0.46652  -0.46511  -0.46237  -0.45952
 Alpha  occ. eigenvalues --   -0.45850  -0.45693  -0.45366  -0.45284  -0.45236
 Alpha  occ. eigenvalues --   -0.44993  -0.44759  -0.44502  -0.44266  -0.44104
 Alpha  occ. eigenvalues --   -0.44006  -0.43953  -0.43278  -0.43200  -0.43066
 Alpha  occ. eigenvalues --   -0.42614  -0.42540  -0.42428  -0.42101  -0.42029
 Alpha  occ. eigenvalues --   -0.41765  -0.41587  -0.41449  -0.41214  -0.40940
 Alpha  occ. eigenvalues --   -0.40884  -0.40717  -0.40524  -0.40481  -0.40453
 Alpha  occ. eigenvalues --   -0.40248  -0.40081  -0.39704  -0.39336  -0.39217
 Alpha  occ. eigenvalues --   -0.39035  -0.38631  -0.38512  -0.38364  -0.38005
 Alpha  occ. eigenvalues --   -0.37921  -0.37707  -0.37427  -0.37243  -0.37032
 Alpha  occ. eigenvalues --   -0.36794  -0.35913  -0.35740  -0.35646  -0.35245
 Alpha  occ. eigenvalues --   -0.34866  -0.34823  -0.34794  -0.34540  -0.34363
 Alpha  occ. eigenvalues --   -0.34285  -0.33979  -0.33663  -0.33603  -0.33424
 Alpha  occ. eigenvalues --   -0.33074  -0.32839  -0.32567  -0.31911  -0.31695
 Alpha  occ. eigenvalues --   -0.31381  -0.30656  -0.30571  -0.29940  -0.29414
 Alpha  occ. eigenvalues --   -0.29039  -0.28796  -0.28083  -0.27787  -0.27503
 Alpha  occ. eigenvalues --   -0.27234  -0.26836  -0.23364  -0.21253
 Alpha virt. eigenvalues --   -0.08629  -0.06339  -0.01676  -0.01353   0.00384
 Alpha virt. eigenvalues --    0.02139   0.03842   0.03937   0.04752   0.04930
 Alpha virt. eigenvalues --    0.05892   0.06263   0.07798   0.08866   0.09526

 Mulliken charges:
               1
     1  Mg   0.830247
     2  C    0.084599
     3  C   -0.192278
     4  C   -0.163884
     5  C   -0.096965
     6  N   -0.645809
     7  C    0.295224
     8  C   -0.127524
     9  C   -0.190222
    10  C    0.380390
    11  C   -0.311918
    12  C   -0.172669
    13  C   -0.267305
    14  C    0.608675
    15  O   -0.422589
    16  O   -0.450115
    17  N   -0.755953
    18  C    0.353745
    19  C    0.037427
    20  C   -0.035481
    21  C    0.305590
    22  C   -0.396573
    23  C    0.255554
    24  O   -0.442116
    25  N   -0.714160
    26  C    0.298383
    27  C    0.014962
    28  C   -0.003319
    29  C    0.303002
    30  C    0.224940
    31  C   -0.241575
    32  C   -0.301245
    33  N   -0.691689
    34  C    0.240470
    35  C   -0.012444
    36  C    0.063782
    37  C    0.291003
    38  C   -0.387438
    39  C    0.346991
    40  O   -0.393738
    41  C   -0.347507
    42  C    0.619865
    43  O   -0.446915
    44  O   -0.447806
    45  C   -0.088150
    46  C   -0.054678
    47  C   -0.120380
    48  C    0.137882
    49  C   -0.330385
    50  C   -0.249717
    51  C   -0.140126
    52  C   -0.187600
    53  C   -0.083716
    54  C   -0.313952
    55  C   -0.178638
    56  C   -0.165675
    57  C   -0.164541
    58  C   -0.050931
    59  C   -0.324830
    60  C   -0.159907
    61  C   -0.168066
    62  C   -0.156132
    63  C   -0.057291
    64  C   -0.309059
    65  C   -0.294130
    66  H    0.094668
    67  H    0.130577
    68  H    0.063245
    69  H    0.117885
    70  H    0.096820
    71  H    0.122373
    72  H    0.112711
    73  H    0.139176
    74  H    0.099769
    75  H    0.088093
    76  H    0.097761
    77  H    0.113793
    78  H    0.120962
    79  H    0.180216
    80  H    0.116561
    81  H    0.090726
    82  H    0.116419
    83  H    0.124797
    84  H    0.126526
    85  H    0.059079
    86  H    0.122498
    87  H    0.118180
    88  H    0.129418
    89  H    0.142177
    90  H    0.151817
    91  H    0.119459
    92  H    0.147068
    93  H    0.090027
    94  H    0.132711
    95  H    0.102860
    96  H    0.104286
    97  H    0.097680
    98  H    0.089384
    99  H    0.111165
   100  H    0.085214
   101  H    0.098898
   102  H    0.092913
   103  H    0.085656
   104  H    0.093998
   105  H    0.107969
   106  H    0.108637
   107  H    0.080057
   108  H    0.074088
   109  H    0.101260
   110  H    0.065753
   111  H    0.094088
   112  H    0.090714
   113  H    0.073021
   114  H    0.114295
   115  H    0.086344
   116  H    0.092151
   117  H    0.053672
   118  H    0.102309
   119  H    0.102041
   120  H    0.095479
   121  H    0.088510
   122  H    0.069114
   123  H    0.055663
   124  H    0.103401
   125  H    0.109694
   126  H    0.103933
   127  H    0.090608
   128  H    0.089546
   129  H    0.092670
   130  H    0.117480
   131  H    0.123444
   132  H    0.121507
   133  O   -0.438556
   134  H    0.067954
 Sum of Mulliken charges =   0.00000

 Dipole moment (field-independent basis, Debye):
    X=              3.1680    Y=             -5.0714    Z=             -1.6432  Tot=              6.2013
 Quadrupole moment (field-independent basis, Debye-Ang):
   XX=           -356.0229   YY=           -446.3579   ZZ=           -390.5100
   XY=             -1.6903   XZ=             22.7250   YZ=            -33.5759

 Normal termination of Gaussian 09 at Fri Oct  4 23:59:43 2019.
