 Gaussian 09, Revision D.01,
 Gaussian 09:  ES64L-G09RevD.01 24-Apr-2013

 ----------------------------------------------------------------------
 # td=(NStates=1) iop(3/107=0140000000,3/108=0140000000) iop(3/107=0140
 000000,3/108=0140000000) CAM-B3LYP/6-31G(d,p)
 ----------------------------------------------------------------------

 --
 TD
 --
 Symbolic Z-matrix:
 Charge =  0 Multiplicity = 1

                         Standard orientation:
 ---------------------------------------------------------------------
 Center     Atomic      Atomic             Coordinates (Angstroms)
 Number     Number       Type             X           Y           Z
 ---------------------------------------------------------------------
      1         12           0       -5.611036    1.157207    0.147101
      2          6           0       -4.956789   -2.081840   -0.415901
      3          6           0       -3.507538    1.174398    2.760712
      4          6           0       -6.258234    4.448713    0.684051
      5          6           0       -7.917412    1.199650   -2.387950
      6          7           0       -4.350828   -0.298530    1.152661
      7          6           0       -4.308605   -1.580549    0.650601
      8          6           0       -3.157947   -2.346738    1.514596
      9          6           0       -2.870502   -1.283090    2.585688
     10          6           0       -3.567388   -0.079385    2.114038
     11          6           0       -3.474910   -1.658569    3.950828
     12          6           0       -1.955684   -2.677839    0.654158
     13          6           0       -0.992623   -3.573327    1.398546
     14          6           0        0.258345   -3.852248    0.659369
     15          8           0        0.577850   -3.415550   -0.429221
     16          8           0        1.056254   -4.559243    1.350680
     17          7           0       -4.872818    2.578425    1.456444
     18          6           0       -3.984966    2.427545    2.445063
     19          6           0       -3.836066    3.653662    3.244593
     20          6           0       -4.554477    4.650406    2.589589
     21          6           0       -5.244877    3.938223    1.464720
     22          6           0       -2.866574    3.847481    4.330875
     23          6           0       -4.753319    6.002252    3.092902
     24          8           0       -4.044087    6.421777    4.001793
     25          7           0       -6.776194    2.610139   -0.791661
     26          6           0       -6.899601    3.887868   -0.388162
     27          6           0       -7.938898    4.566384   -1.200032
     28          6           0       -8.324229    3.663382   -2.071516
     29          6           0       -7.500158    2.446965   -1.924729
     30          6           0       -8.297924    5.979917   -1.242854
     31          6           0       -9.393843    3.773519   -3.265602
     32          6           0       -8.971868    4.027297   -4.695686
     33          7           0       -6.225214   -0.095810   -1.113180
     34          6           0       -7.234017   -0.063161   -2.068587
     35          6           0       -7.539858   -1.285875   -2.653952
     36          6           0       -6.660248   -2.155470   -2.121842
     37          6           0       -5.931223   -1.411221   -1.156794
     38          6           0       -8.442797   -1.606612   -3.718245
     39          6           0       -6.208959   -3.510266   -2.004366
     40          8           0       -6.561415   -4.526078   -2.641408
     41          6           0       -5.052694   -3.483990   -0.851590
     42          6           0       -5.489368   -4.688120    0.044594
     43          8           0       -5.846675   -4.444224    1.207138
     44          8           0       -5.155392   -5.860245   -0.436640
     45          6           0       -5.516047   -6.945975    0.416622
     46          6           0        2.347503   -5.046570    0.776253
     47          6           0        3.295338   -4.061507    1.153511
     48          6           0        4.089079   -3.327114    0.315927
     49          6           0        3.841621   -3.237557   -1.144558
     50          6           0        5.116974   -2.251499    0.772216
     51          6           0        6.551067   -2.631001    0.207314
     52          6           0        7.769446   -1.837330    0.750473
     53          6           0        9.036555   -1.989637   -0.106849
     54          6           0        9.503897   -3.353065   -0.061601
     55          6           0       10.042024   -0.900944    0.430440
     56          6           0       11.385097   -0.820035   -0.441830
     57          6           0       12.218211    0.330316    0.041137
     58          6           0       13.531684    0.462128   -0.647554
     59          6           0       14.400331   -0.725399   -0.450696
     60          6           0       14.206565    1.776287   -0.269016
     61          6           0       15.425110    2.164173   -0.999941
     62          6           0       15.987696    3.450864   -0.699613
     63          6           0       17.285390    3.839275   -1.294297
     64          6           0       17.221355    3.975543   -2.717642
     65          6           0       17.855314    5.140506   -0.774996
     66          1           0       -2.863367    1.156296    3.729154
     67          1           0       -6.556981    5.534184    0.986161
     68          1           0       -8.574082    1.188726   -3.180039
     69          1           0       -3.525272   -3.314352    1.761257
     70          1           0       -1.857269   -1.144200    2.820977
     71          1           0       -3.096948   -2.687771    4.444961
     72          1           0       -3.399328   -0.798791    4.749211
     73          1           0       -4.521984   -2.006687    3.751817
     74          1           0       -2.069550   -3.220834   -0.380011
     75          1           0       -1.621641   -1.748007    0.270404
     76          1           0       -0.660167   -3.157948    2.166384
     77          1           0       -1.407174   -4.461838    1.395583
     78          1           0       -1.780528    3.375402    4.075725
     79          1           0       -2.710147    4.964220    4.566213
     80          1           0       -3.221925    3.195965    5.292001
     81          1           0       -5.656890    6.528501    2.523339
     82          1           0      -10.238702    3.007358   -3.172471
     83          1           0       -9.865794    4.730218   -3.076774
     84          1           0       -9.709685    4.112586   -5.385230
     85          1           0       -8.322417    5.010667   -4.811281
     86          1           0       -8.389374    3.070433   -5.079864
     87          1           0       -8.189335   -0.953654   -4.496947
     88          1           0       -8.233740   -2.685194   -3.950512
     89          1           0       -9.613790   -1.592405   -3.532531
     90          1           0       -4.169085   -3.773244   -1.270812
     91          1           0        2.460973   -5.957833    1.427813
     92          1           0        2.220971   -5.280982   -0.420996
     93          1           0        3.522647   -3.996530    2.214488
     94          1           0        2.770192   -3.500255   -1.340932
     95          1           0        4.131217   -2.262921   -1.442452
     96          1           0        4.606184   -3.742875   -1.682417
     97          1           0        4.858380   -1.408218    0.236116
     98          1           0        5.084890   -2.096382    1.768738
     99          1           0        6.793819   -3.922617    0.434818
    100          1           0        6.519519   -2.765296   -0.808259
    101          1           0        7.477106   -0.856321    0.820661
    102          1           0        7.865102   -1.967462    1.789502
    103          1           0        8.611308   -1.710128   -1.230518
    104          1           0        8.697011   -4.134697   -0.302056
    105          1           0       10.606507   -3.535087   -0.706728
    106          1           0        9.740897   -3.500853    0.987620
    107          1           0        9.586412    0.092709    0.222782
    108          1           0       10.087261   -1.254931    1.515119
    109          1           0       11.949651   -1.748300   -0.510110
    110          1           0       11.186051   -0.585466   -1.408879
    111          1           0       11.858174    1.417869   -0.090186
    112          1           0       12.558550    0.118016    1.137009
    113          1           0       13.120933    0.572347   -1.710761
    114          1           0       14.463629   -0.838358    0.568502
    115          1           0       13.882415   -1.421203   -0.937679
    116          1           0       15.403495   -0.466860   -0.881157
    117          1           0       13.489770    2.525568   -0.352850
    118          1           0       14.639656    1.703080    0.789822
    119          1           0       16.127170    1.441056   -0.627077
    120          1           0       15.392114    1.919871   -2.094703
    121          1           0       15.163856    4.297150   -1.027268
    122          1           0       16.172074    3.631035    0.430121
    123          1           0       17.822003    3.032236   -0.967104
    124          1           0       16.452720    4.683055   -3.015907
    125          1           0       18.253994    4.257794   -3.370981
    126          1           0       16.994453    2.973508   -3.053289
    127          1           0       18.084823    5.204973    0.323860
    128          1           0       18.774197    5.342149   -1.164029
    129          1           0       17.262638    6.104942   -0.891182
    130          1           0       -5.391636   -7.990052   -0.089740
    131          1           0       -6.542771   -6.909535    0.722644
    132          1           0       -4.861690   -7.162339    1.395035
    133          8           0       -7.793607    6.833522   -0.488462
    134          1           0       -9.150858    6.157871   -1.694706
 ---------------------------------------------------------------------

 SCF Done:  E(RCAM-B3LYP) =  -3043.42618963     A.U. after   15 cycles

 Excitation energies and oscillator strengths:

 Excited State   1:      Singlet-A      2.1098 eV  587.67 nm  f=0.1764  <S**2>=0.000
     243 -> 246       -0.26549
     244 -> 245        0.63974
 This state for optimization and/or second-order correction.
 Total Energy, E(TD-HF/TD-KS) =  -3043.34865748
 Copying the excited state density for this state as the 1-particle RhoCI density.

 The electronic state is 1-A.
 Alpha  occ. eigenvalues --  -46.81124 -19.24748 -19.21682 -19.18046 -19.17340
 Alpha  occ. eigenvalues --  -19.16533 -19.16527 -19.14923 -14.38483 -14.36886
 Alpha  occ. eigenvalues --  -14.36677 -14.36621 -10.35511 -10.33083 -10.31699
 Alpha  occ. eigenvalues --  -10.31077 -10.29773 -10.29165 -10.29016 -10.27227
 Alpha  occ. eigenvalues --  -10.26956 -10.26778 -10.26492 -10.26431 -10.25692
 Alpha  occ. eigenvalues --  -10.25564 -10.25114 -10.25102 -10.24886 -10.24532
 Alpha  occ. eigenvalues --  -10.24154 -10.23939 -10.23813 -10.23765 -10.23740
 Alpha  occ. eigenvalues --  -10.23596 -10.23462 -10.23316 -10.23300 -10.23130
 Alpha  occ. eigenvalues --  -10.23069 -10.23047 -10.22870 -10.22791 -10.22694
 Alpha  occ. eigenvalues --  -10.22599 -10.22456 -10.22259 -10.22178 -10.21985
 Alpha  occ. eigenvalues --  -10.21365 -10.21201 -10.21201 -10.20966 -10.20894
 Alpha  occ. eigenvalues --  -10.20596 -10.20524 -10.20402 -10.20251 -10.20219
 Alpha  occ. eigenvalues --  -10.19909 -10.19878 -10.19818 -10.19765 -10.19281
 Alpha  occ. eigenvalues --  -10.18344  -3.09937  -1.84852  -1.84428  -1.84358
 Alpha  occ. eigenvalues --   -1.15504  -1.14906  -1.07190  -1.05609  -1.04691
 Alpha  occ. eigenvalues --   -1.03980  -1.03175  -1.02464  -1.01147  -1.00446
 Alpha  occ. eigenvalues --   -0.99109  -0.89003  -0.87743  -0.87171  -0.86376
 Alpha  occ. eigenvalues --   -0.85972  -0.85833  -0.85106  -0.84971  -0.84383
 Alpha  occ. eigenvalues --   -0.83645  -0.83447  -0.82619  -0.81166  -0.80624
 Alpha  occ. eigenvalues --   -0.79766  -0.79446  -0.78219  -0.77728  -0.77468
 Alpha  occ. eigenvalues --   -0.76093  -0.75174  -0.74188  -0.73071  -0.72155
 Alpha  occ. eigenvalues --   -0.72069  -0.71792  -0.70986  -0.70279  -0.69941
 Alpha  occ. eigenvalues --   -0.69382  -0.69273  -0.68059  -0.67035  -0.66512
 Alpha  occ. eigenvalues --   -0.66264  -0.65974  -0.64331  -0.63301  -0.62696
 Alpha  occ. eigenvalues --   -0.62249  -0.61530  -0.61361  -0.59806  -0.58619
 Alpha  occ. eigenvalues --   -0.58503  -0.58214  -0.58112  -0.57498  -0.57053
 Alpha  occ. eigenvalues --   -0.56776  -0.56583  -0.55811  -0.55274  -0.55222
 Alpha  occ. eigenvalues --   -0.54677  -0.54027  -0.53430  -0.53069  -0.52804
 Alpha  occ. eigenvalues --   -0.52228  -0.51656  -0.51551  -0.51204  -0.51138
 Alpha  occ. eigenvalues --   -0.50962  -0.50354  -0.50048  -0.49944  -0.49683
 Alpha  occ. eigenvalues --   -0.49167  -0.49007  -0.48700  -0.48313  -0.48220
 Alpha  occ. eigenvalues --   -0.48126  -0.47571  -0.47434  -0.47354  -0.47070
 Alpha  occ. eigenvalues --   -0.46922  -0.46720  -0.46617  -0.46144  -0.45746
 Alpha  occ. eigenvalues --   -0.45692  -0.45599  -0.45429  -0.45117  -0.44729
 Alpha  occ. eigenvalues --   -0.44567  -0.44385  -0.44148  -0.44125  -0.43933
 Alpha  occ. eigenvalues --   -0.43717  -0.43493  -0.43171  -0.43040  -0.42911
 Alpha  occ. eigenvalues --   -0.42544  -0.42127  -0.41997  -0.41917  -0.41732
 Alpha  occ. eigenvalues --   -0.41638  -0.41538  -0.41247  -0.41113  -0.41060
 Alpha  occ. eigenvalues --   -0.40954  -0.40795  -0.40561  -0.40408  -0.40314
 Alpha  occ. eigenvalues --   -0.40126  -0.39844  -0.39636  -0.39531  -0.39415
 Alpha  occ. eigenvalues --   -0.39103  -0.38927  -0.38629  -0.38616  -0.38482
 Alpha  occ. eigenvalues --   -0.38007  -0.37925  -0.37567  -0.37381  -0.37046
 Alpha  occ. eigenvalues --   -0.36758  -0.36582  -0.36459  -0.36306  -0.36039
 Alpha  occ. eigenvalues --   -0.35908  -0.35467  -0.35118  -0.34863  -0.34499
 Alpha  occ. eigenvalues --   -0.33735  -0.33729  -0.33439  -0.33418  -0.33150
 Alpha  occ. eigenvalues --   -0.32979  -0.32624  -0.32393  -0.31921  -0.31820
 Alpha  occ. eigenvalues --   -0.31353  -0.30551  -0.30483  -0.29867  -0.29593
 Alpha  occ. eigenvalues --   -0.29131  -0.28776  -0.28405  -0.28149  -0.27970
 Alpha  occ. eigenvalues --   -0.27100  -0.26718  -0.22734  -0.21585
 Alpha virt. eigenvalues --   -0.08243  -0.05952  -0.02180  -0.01731   0.00786
 Alpha virt. eigenvalues --    0.03114   0.03150   0.03632   0.04409   0.05033
 Alpha virt. eigenvalues --    0.05748   0.06626   0.08190   0.08596   0.08856

 Mulliken charges:
               1
     1  Mg   0.844969
     2  C    0.111164
     3  C   -0.215777
     4  C   -0.205408
     5  C   -0.136734
     6  N   -0.612997
     7  C    0.262563
     8  C   -0.144261
     9  C   -0.145890
    10  C    0.391048
    11  C   -0.312441
    12  C   -0.197165
    13  C   -0.197992
    14  C    0.544483
    15  O   -0.496191
    16  O   -0.437805
    17  N   -0.674641
    18  C    0.337124
    19  C    0.080474
    20  C   -0.035627
    21  C    0.302326
    22  C   -0.390824
    23  C    0.259429
    24  O   -0.422324
    25  N   -0.646179
    26  C    0.309787
    27  C   -0.011075
    28  C    0.003060
    29  C    0.245035
    30  C    0.263275
    31  C   -0.246074
    32  C   -0.300215
    33  N   -0.744437
    34  C    0.233441
    35  C    0.051692
    36  C    0.112761
    37  C    0.231970
    38  C   -0.406080
    39  C    0.318351
    40  O   -0.487479
    41  C   -0.306986
    42  C    0.606798
    43  O   -0.489921
    44  O   -0.392028
    45  C   -0.099036
    46  C   -0.020820
    47  C   -0.115505
    48  C    0.137754
    49  C   -0.386749
    50  C   -0.230901
    51  C   -0.167183
    52  C   -0.173936
    53  C   -0.055658
    54  C   -0.270035
    55  C   -0.160349
    56  C   -0.189984
    57  C   -0.150292
    58  C   -0.080103
    59  C   -0.288922
    60  C   -0.154552
    61  C   -0.174566
    62  C   -0.148565
    63  C   -0.036451
    64  C   -0.281856
    65  C   -0.315265
    66  H    0.066458
    67  H    0.125274
    68  H    0.086129
    69  H    0.115909
    70  H    0.116501
    71  H    0.093156
    72  H    0.105447
    73  H    0.130370
    74  H    0.099563
    75  H    0.115288
    76  H    0.129997
    77  H    0.141102
    78  H    0.107996
    79  H    0.173049
    80  H    0.105383
    81  H    0.084199
    82  H    0.113966
    83  H    0.107661
    84  H    0.133046
    85  H    0.101437
    86  H    0.088076
    87  H    0.134164
    88  H    0.148757
    89  H    0.112359
    90  H    0.156723
    91  H    0.122482
    92  H    0.127037
    93  H    0.083130
    94  H    0.153186
    95  H    0.110838
    96  H    0.119433
    97  H    0.122310
    98  H    0.100122
    99  H    0.025280
   100  H    0.110024
   101  H    0.097555
   102  H    0.095926
   103  H    0.048980
   104  H    0.103654
   105  H    0.061790
   106  H    0.100214
   107  H    0.100838
   108  H    0.088891
   109  H    0.099288
   110  H    0.105852
   111  H    0.077317
   112  H    0.064336
   113  H    0.059316
   114  H    0.105800
   115  H    0.108606
   116  H    0.093672
   117  H    0.086125
   118  H    0.073822
   119  H    0.090184
   120  H    0.088701
   121  H    0.044933
   122  H    0.077563
   123  H    0.092494
   124  H    0.105772
   125  H    0.063808
   126  H    0.096839
   127  H    0.079208
   128  H    0.111660
   129  H    0.093145
   130  H    0.118737
   131  H    0.148668
   132  H    0.109871
   133  O   -0.432244
   134  H    0.082604
 Sum of Mulliken charges =   0.00000

 Dipole moment (field-independent basis, Debye):
    X=              1.4648    Y=             -3.8505    Z=             -0.3530  Tot=              4.1348
 Quadrupole moment (field-independent basis, Debye-Ang):
   XX=           -371.2656   YY=           -430.3585   ZZ=           -396.8500
   XY=             -4.0551   XZ=             23.9799   YZ=            -34.9764

 Normal termination of Gaussian 09 at Wed Oct  9 00:53:09 2019.
