 Gaussian 09, Revision D.01,
 Gaussian 09:  ES64L-G09RevD.01 24-Apr-2013

 ----------------------------------------------------------------------
 # td=(NStates=1) iop(3/107=0140000000,3/108=0140000000) iop(3/107=0140
 000000,3/108=0140000000) CAM-B3LYP/6-31G(d,p)
 ----------------------------------------------------------------------

 --
 TD
 --
 Symbolic Z-matrix:
 Charge =  0 Multiplicity = 1

                         Standard orientation:
 ---------------------------------------------------------------------
 Center     Atomic      Atomic             Coordinates (Angstroms)
 Number     Number       Type             X           Y           Z
 ---------------------------------------------------------------------
      1         12           0       -5.575660    1.201107    0.220571
      2          6           0       -4.988123   -2.148534   -0.367905
      3          6           0       -3.326672    1.224445    2.702680
      4          6           0       -6.109282    4.594280    0.503140
      5          6           0       -8.095295    1.147276   -2.335054
      6          7           0       -4.372790   -0.312691    1.132965
      7          6           0       -4.179993   -1.597006    0.623224
      8          6           0       -3.170994   -2.305792    1.491588
      9          6           0       -2.830471   -1.379282    2.541723
     10          6           0       -3.468822   -0.072978    2.137037
     11          6           0       -3.437636   -1.796519    3.968859
     12          6           0       -1.985024   -2.720679    0.674324
     13          6           0       -1.012630   -3.531286    1.533138
     14          6           0        0.204054   -3.923545    0.535107
     15          8           0        0.330620   -3.620097   -0.582716
     16          8           0        1.001773   -4.806990    1.226659
     17          7           0       -4.741665    2.700745    1.431455
     18          6           0       -3.879416    2.449830    2.391587
     19          6           0       -3.721365    3.691962    3.139930
     20          6           0       -4.478833    4.675849    2.538388
     21          6           0       -5.133314    3.990080    1.387694
     22          6           0       -2.700475    3.730526    4.271220
     23          6           0       -4.561908    6.134357    2.926805
     24          8           0       -3.919087    6.521027    3.768711
     25          7           0       -7.010226    2.594642   -0.632416
     26          6           0       -7.002576    3.984118   -0.398449
     27          6           0       -7.902359    4.709430   -1.195718
     28          6           0       -8.342853    3.797040   -2.062654
     29          6           0       -7.767615    2.382305   -1.681386
     30          6           0       -8.296632    6.065201   -1.078434
     31          6           0       -9.333141    3.951401   -3.102893
     32          6           0       -8.757148    4.008541   -4.520098
     33          7           0       -6.407474   -0.068290   -1.136797
     34          6           0       -7.339696    0.011211   -2.081861
     35          6           0       -7.695752   -1.365754   -2.655305
     36          6           0       -6.717265   -2.155805   -2.001025
     37          6           0       -6.032473   -1.381181   -1.058526
     38          6           0       -8.788312   -1.626080   -3.658538
     39          6           0       -6.284052   -3.492592   -1.902399
     40          8           0       -6.727357   -4.571760   -2.351335
     41          6           0       -4.991411   -3.546722   -0.870576
     42          6           0       -5.247589   -4.726199    0.032715
     43          8           0       -5.740303   -4.461953    1.100590
     44          8           0       -4.871202   -5.905915   -0.342959
     45          6           0       -5.291775   -6.962992    0.649825
     46          6           0        2.365900   -5.182778    0.556674
     47          6           0        3.391786   -4.185097    0.881393
     48          6           0        4.048741   -3.374634    0.080058
     49          6           0        3.826167   -3.282618   -1.350852
     50          6           0        5.267106   -2.528863    0.625129
     51          6           0        6.475051   -2.832370   -0.115604
     52          6           0        7.609360   -1.849839    0.461313
     53          6           0        9.043798   -1.983584   -0.095113
     54          6           0        9.671099   -3.387402    0.213449
     55          6           0        9.837613   -0.857160    0.371237
     56          6           0       11.269906   -0.859194   -0.389325
     57          6           0       12.148516    0.330850    0.129163
     58          6           0       13.498624    0.430425   -0.545351
     59          6           0       14.438484   -0.609654   -0.305666
     60          6           0       14.023435    1.783479   -0.158524
     61          6           0       15.314597    2.295472   -0.925933
     62          6           0       15.945610    3.594487   -0.571953
     63          6           0       17.282031    3.942692   -1.315786
     64          6           0       17.190326    3.999621   -2.747559
     65          6           0       17.750627    5.280995   -0.724077
     66          1           0       -2.887253    1.467657    3.706286
     67          1           0       -6.292185    5.600663    0.657719
     68          1           0       -8.885724    0.993098   -3.059638
     69          1           0       -3.422422   -3.344527    1.944963
     70          1           0       -1.703846   -1.157466    2.706183
     71          1           0       -2.810623   -2.740436    4.347812
     72          1           0       -3.322424   -0.922812    4.680316
     73          1           0       -4.483419   -2.316512    3.804648
     74          1           0       -2.356276   -3.358960   -0.220023
     75          1           0       -1.356309   -1.828868    0.285665
     76          1           0       -0.652212   -2.972925    2.371864
     77          1           0       -1.153881   -4.581874    1.849702
     78          1           0       -1.721047    3.663618    3.871722
     79          1           0       -2.829179    4.722560    4.701773
     80          1           0       -2.770103    2.916390    5.047181
     81          1           0       -5.199710    6.809804    2.118568
     82          1           0      -10.189993    3.304219   -2.993183
     83          1           0       -9.769112    5.044351   -2.832081
     84          1           0       -9.477487    4.288412   -5.194913
     85          1           0       -8.099365    4.823200   -4.597131
     86          1           0       -8.106840    3.137269   -4.682858
     87          1           0       -8.847706   -0.957198   -4.413694
     88          1           0       -8.608507   -2.592141   -4.109638
     89          1           0       -9.723239   -1.695761   -3.024919
     90          1           0       -4.101781   -3.663030   -1.655170
     91          1           0        2.671493   -6.192062    1.067178
     92          1           0        2.034616   -5.180865   -0.561059
     93          1           0        3.609798   -3.984593    1.938511
     94          1           0        2.828221   -3.558370   -1.565744
     95          1           0        4.022172   -2.276719   -1.756249
     96          1           0        4.583741   -3.934666   -1.933638
     97          1           0        4.918710   -1.381515    0.467572
     98          1           0        5.273285   -2.936996    1.547071
     99          1           0        6.755244   -3.806079   -0.053843
    100          1           0        6.396910   -2.678977   -1.247794
    101          1           0        7.414938   -0.749157    0.379302
    102          1           0        7.940287   -2.050090    1.499203
    103          1           0        8.971597   -1.741204   -1.213252
    104          1           0        9.035723   -4.096356   -0.211960
    105          1           0       10.628877   -3.455880   -0.283656
    106          1           0        9.750762   -3.639044    1.223420
    107          1           0        9.355721    0.116692    0.066275
    108          1           0        9.991654   -0.877786    1.610405
    109          1           0       11.957263   -1.876063   -0.297415
    110          1           0       11.104097   -0.654768   -1.457567
    111          1           0       11.465468    1.289614   -0.103594
    112          1           0       12.341478    0.177218    1.234936
    113          1           0       13.339643    0.220340   -1.598422
    114          1           0       14.706485   -0.726729    0.812314
    115          1           0       14.069245   -1.647329   -0.611361
    116          1           0       15.433346   -0.277342   -0.913409
    117          1           0       13.269075    2.603038   -0.222671
    118          1           0       14.473675    1.790304    0.893464
    119          1           0       16.119174    1.459423   -1.002414
    120          1           0       15.156124    2.351000   -2.018552
    121          1           0       15.312991    4.340083   -0.733636
    122          1           0       15.995003    3.644497    0.551211
    123          1           0       18.068540    3.192264   -1.097657
    124          1           0       16.294382    4.627480   -2.935494
    125          1           0       18.100892    4.425388   -3.232586
    126          1           0       16.924284    2.998950   -3.239527
    127          1           0       17.728382    5.138609    0.441917
    128          1           0       18.754183    5.515002   -1.192296
    129          1           0       17.028991    6.038936   -1.119757
    130          1           0       -5.128980   -7.880077    0.087355
    131          1           0       -6.342052   -6.809949    1.035400
    132          1           0       -4.622136   -7.138741    1.451004
    133          8           0       -7.755893    6.919322   -0.360178
    134          1           0       -9.269619    6.342183   -1.802633
 ---------------------------------------------------------------------

 SCF Done:  E(RCAM-B3LYP) =  -3043.53574289     A.U. after   16 cycles

 Excitation energies and oscillator strengths:

 Excited State   1:      Singlet-A      1.9285 eV  642.89 nm  f=0.2188  <S**2>=0.000
     243 -> 246        0.21013
     244 -> 245        0.65801
 This state for optimization and/or second-order correction.
 Total Energy, E(TD-HF/TD-KS) =  -3043.46487072
 Copying the excited state density for this state as the 1-particle RhoCI density.

 The electronic state is 1-A.
 Alpha  occ. eigenvalues --  -46.82747 -19.23500 -19.20591 -19.18151 -19.18003
 Alpha  occ. eigenvalues --  -19.17683 -19.16461 -19.15414 -14.38903 -14.37251
 Alpha  occ. eigenvalues --  -14.36987 -14.35864 -10.34246 -10.34209 -10.31950
 Alpha  occ. eigenvalues --  -10.30957 -10.30950 -10.29196 -10.27822 -10.27784
 Alpha  occ. eigenvalues --  -10.27109 -10.26768 -10.26348 -10.26158 -10.26154
 Alpha  occ. eigenvalues --  -10.26052 -10.25925 -10.25076 -10.25014 -10.24464
 Alpha  occ. eigenvalues --  -10.24380 -10.24351 -10.24335 -10.24134 -10.23487
 Alpha  occ. eigenvalues --  -10.23447 -10.23350 -10.23299 -10.23247 -10.22808
 Alpha  occ. eigenvalues --  -10.22683 -10.22656 -10.22655 -10.22486 -10.22475
 Alpha  occ. eigenvalues --  -10.22394 -10.22365 -10.22355 -10.21873 -10.21650
 Alpha  occ. eigenvalues --  -10.21602 -10.21520 -10.21482 -10.21455 -10.21310
 Alpha  occ. eigenvalues --  -10.21197 -10.21187 -10.20978 -10.20938 -10.20899
 Alpha  occ. eigenvalues --  -10.20792 -10.20633 -10.20496 -10.20394 -10.19566
 Alpha  occ. eigenvalues --  -10.19299  -3.11005  -1.85967  -1.85478  -1.85389
 Alpha  occ. eigenvalues --   -1.14573  -1.12761  -1.12697  -1.06439  -1.04703
 Alpha  occ. eigenvalues --   -1.04330  -1.03906  -1.00960  -1.00265  -0.99769
 Alpha  occ. eigenvalues --   -0.99103  -0.88298  -0.87115  -0.86463  -0.86372
 Alpha  occ. eigenvalues --   -0.86325  -0.85040  -0.84536  -0.84238  -0.83339
 Alpha  occ. eigenvalues --   -0.82930  -0.81895  -0.81027  -0.80255  -0.79887
 Alpha  occ. eigenvalues --   -0.78853  -0.78306  -0.77695  -0.77172  -0.76290
 Alpha  occ. eigenvalues --   -0.75456  -0.74770  -0.73408  -0.72630  -0.72047
 Alpha  occ. eigenvalues --   -0.71793  -0.70878  -0.70749  -0.70086  -0.69802
 Alpha  occ. eigenvalues --   -0.68903  -0.68321  -0.67670  -0.66567  -0.65839
 Alpha  occ. eigenvalues --   -0.65099  -0.64470  -0.64080  -0.62391  -0.62071
 Alpha  occ. eigenvalues --   -0.61269  -0.60454  -0.59611  -0.58679  -0.58503
 Alpha  occ. eigenvalues --   -0.58014  -0.57704  -0.57297  -0.57020  -0.56399
 Alpha  occ. eigenvalues --   -0.56031  -0.55726  -0.55045  -0.54656  -0.54320
 Alpha  occ. eigenvalues --   -0.53796  -0.52855  -0.52355  -0.52287  -0.52089
 Alpha  occ. eigenvalues --   -0.51716  -0.51510  -0.51211  -0.50416  -0.50213
 Alpha  occ. eigenvalues --   -0.50149  -0.50118  -0.49558  -0.49424  -0.49136
 Alpha  occ. eigenvalues --   -0.48841  -0.48610  -0.48424  -0.48144  -0.48064
 Alpha  occ. eigenvalues --   -0.47786  -0.47457  -0.47261  -0.47188  -0.46747
 Alpha  occ. eigenvalues --   -0.46532  -0.46372  -0.46151  -0.46122  -0.45963
 Alpha  occ. eigenvalues --   -0.45720  -0.45577  -0.45496  -0.45263  -0.45048
 Alpha  occ. eigenvalues --   -0.44950  -0.44516  -0.44382  -0.44023  -0.43934
 Alpha  occ. eigenvalues --   -0.43668  -0.43570  -0.43359  -0.43228  -0.43035
 Alpha  occ. eigenvalues --   -0.42862  -0.42778  -0.42465  -0.42424  -0.42042
 Alpha  occ. eigenvalues --   -0.41917  -0.41693  -0.41437  -0.41173  -0.41048
 Alpha  occ. eigenvalues --   -0.40924  -0.40741  -0.40368  -0.40320  -0.40247
 Alpha  occ. eigenvalues --   -0.40039  -0.39862  -0.39677  -0.39624  -0.39282
 Alpha  occ. eigenvalues --   -0.39188  -0.38709  -0.38535  -0.38335  -0.38252
 Alpha  occ. eigenvalues --   -0.38012  -0.37778  -0.37402  -0.37224  -0.37059
 Alpha  occ. eigenvalues --   -0.36877  -0.36658  -0.36534  -0.35922  -0.35862
 Alpha  occ. eigenvalues --   -0.35559  -0.35009  -0.34787  -0.34581  -0.34350
 Alpha  occ. eigenvalues --   -0.34322  -0.33610  -0.33526  -0.33468  -0.33187
 Alpha  occ. eigenvalues --   -0.33146  -0.32704  -0.32513  -0.31595  -0.31326
 Alpha  occ. eigenvalues --   -0.31100  -0.30173  -0.30088  -0.29909  -0.29433
 Alpha  occ. eigenvalues --   -0.28634  -0.28345  -0.28214  -0.27910  -0.27609
 Alpha  occ. eigenvalues --   -0.27305  -0.26955  -0.22634  -0.20423
 Alpha virt. eigenvalues --   -0.08172  -0.05860  -0.01701  -0.00619   0.00824
 Alpha virt. eigenvalues --    0.03230   0.03481   0.03842   0.04646   0.05030
 Alpha virt. eigenvalues --    0.05571   0.05960   0.07937   0.08821   0.09354

 Mulliken charges:
               1
     1  Mg   0.831669
     2  C    0.090101
     3  C   -0.172187
     4  C   -0.157624
     5  C   -0.164418
     6  N   -0.639681
     7  C    0.321694
     8  C   -0.140974
     9  C   -0.136461
    10  C    0.336004
    11  C   -0.307405
    12  C   -0.171581
    13  C   -0.277782
    14  C    0.585843
    15  O   -0.427953
    16  O   -0.507583
    17  N   -0.719972
    18  C    0.328955
    19  C    0.017803
    20  C   -0.065626
    21  C    0.291422
    22  C   -0.398559
    23  C    0.252265
    24  O   -0.336604
    25  N   -0.657999
    26  C    0.244145
    27  C    0.120439
    28  C   -0.027997
    29  C    0.316507
    30  C    0.233408
    31  C   -0.267982
    32  C   -0.313143
    33  N   -0.721341
    34  C    0.265904
    35  C    0.013537
    36  C    0.071513
    37  C    0.296976
    38  C   -0.377915
    39  C    0.306449
    40  O   -0.487565
    41  C   -0.342746
    42  C    0.661703
    43  O   -0.494343
    44  O   -0.440276
    45  C   -0.109961
    46  C   -0.029903
    47  C   -0.111406
    48  C    0.117684
    49  C   -0.376223
    50  C   -0.182776
    51  C   -0.174348
    52  C   -0.165950
    53  C   -0.062821
    54  C   -0.317918
    55  C   -0.149751
    56  C   -0.189346
    57  C   -0.155216
    58  C   -0.026578
    59  C   -0.295738
    60  C   -0.164965
    61  C   -0.198384
    62  C   -0.159772
    63  C   -0.055078
    64  C   -0.295611
    65  C   -0.293366
    66  H    0.065330
    67  H    0.110448
    68  H    0.096091
    69  H    0.122237
    70  H    0.104596
    71  H    0.091554
    72  H    0.115894
    73  H    0.130958
    74  H    0.108774
    75  H    0.110513
    76  H    0.135957
    77  H    0.139266
    78  H    0.139491
    79  H    0.148387
    80  H    0.115362
    81  H    0.051707
    82  H    0.121794
    83  H    0.072285
    84  H    0.120041
    85  H    0.120826
    86  H    0.114147
    87  H    0.137227
    88  H    0.151122
    89  H    0.139441
    90  H    0.142598
    91  H    0.122577
    92  H    0.133467
    93  H    0.080344
    94  H    0.135222
    95  H    0.112191
    96  H    0.107950
    97  H    0.090400
    98  H    0.101145
    99  H    0.110366
   100  H    0.089987
   101  H    0.082217
   102  H    0.087415
   103  H    0.066647
   104  H    0.104992
   105  H    0.106722
   106  H    0.108420
   107  H    0.089019
   108  H    0.056741
   109  H    0.070591
   110  H    0.096343
   111  H    0.068763
   112  H    0.085012
   113  H    0.087562
   114  H    0.081269
   115  H    0.091823
   116  H    0.088465
   117  H    0.089254
   118  H    0.088226
   119  H    0.072166
   120  H    0.082167
   121  H    0.099033
   122  H    0.072152
   123  H    0.081650
   124  H    0.092071
   125  H    0.098748
   126  H    0.095001
   127  H    0.095192
   128  H    0.090721
   129  H    0.095683
   130  H    0.129865
   131  H    0.156020
   132  H    0.136605
   133  O   -0.423949
   134  H    0.054513
 Sum of Mulliken charges =   0.00000

 Dipole moment (field-independent basis, Debye):
    X=              2.1628    Y=             -4.2442    Z=             -1.6729  Tot=              5.0488
 Quadrupole moment (field-independent basis, Debye-Ang):
   XX=           -381.6734   YY=           -431.3523   ZZ=           -392.3623
   XY=              0.0919   XZ=             17.9801   YZ=            -33.5392

 Normal termination of Gaussian 09 at Tue Oct  8 11:27:56 2019.
