 Gaussian 09, Revision D.01,
 Gaussian 09:  ES64L-G09RevD.01 24-Apr-2013

 ----------------------------------------------------------------------
 # td=(NStates=1) iop(3/107=0140000000,3/108=0140000000) iop(3/107=0140
 000000,3/108=0140000000) CAM-B3LYP/6-31G(d,p)
 ----------------------------------------------------------------------

 --
 TD
 --
 Symbolic Z-matrix:
 Charge =  0 Multiplicity = 1

                         Standard orientation:
 ---------------------------------------------------------------------
 Center     Atomic      Atomic             Coordinates (Angstroms)
 Number     Number       Type             X           Y           Z
 ---------------------------------------------------------------------
      1         12           0       -5.574245    1.307905    0.272969
      2          6           0       -5.064563   -2.078658   -0.374393
      3          6           0       -3.287784    1.140096    2.689983
      4          6           0       -6.237433    4.552362    0.681011
      5          6           0       -8.118893    1.232708   -2.293192
      6          7           0       -4.264083   -0.263829    0.940407
      7          6           0       -4.231530   -1.550821    0.542954
      8          6           0       -3.171910   -2.387460    1.396496
      9          6           0       -2.862580   -1.356663    2.572897
     10          6           0       -3.505899   -0.086176    2.064302
     11          6           0       -3.509235   -1.779166    3.866909
     12          6           0       -2.009467   -2.748274    0.525628
     13          6           0       -0.989635   -3.620863    1.315157
     14          6           0        0.198420   -3.948784    0.431432
     15          8           0        0.484778   -3.595780   -0.630679
     16          8           0        1.019804   -4.829943    1.162861
     17          7           0       -4.744068    2.637760    1.486979
     18          6           0       -3.824632    2.461252    2.460150
     19          6           0       -3.728380    3.718451    3.178772
     20          6           0       -4.485641    4.628241    2.588212
     21          6           0       -5.197467    3.940051    1.537391
     22          6           0       -2.731735    3.801079    4.168745
     23          6           0       -4.454972    6.090507    2.904981
     24          8           0       -3.765958    6.562343    3.779203
     25          7           0       -6.929741    2.649665   -0.606981
     26          6           0       -6.995909    3.959235   -0.317574
     27          6           0       -7.957385    4.655217   -1.160902
     28          6           0       -8.468671    3.730740   -1.998896
     29          6           0       -7.872693    2.386721   -1.580686
     30          6           0       -8.355034    5.991512   -1.155807
     31          6           0       -9.413087    3.913704   -3.104180
     32          6           0       -8.645913    4.087395   -4.460150
     33          7           0       -6.436156   -0.116134   -1.034068
     34          6           0       -7.422284   -0.028537   -2.020275
     35          6           0       -7.606321   -1.314998   -2.676730
     36          6           0       -6.821989   -2.184481   -2.061991
     37          6           0       -6.073839   -1.411380   -1.056788
     38          6           0       -8.726429   -1.519837   -3.707688
     39          6           0       -6.406433   -3.584597   -1.920229
     40          8           0       -6.634360   -4.574735   -2.656219
     41          6           0       -5.128509   -3.535338   -0.891083
     42          6           0       -5.424992   -4.622726    0.099680
     43          8           0       -5.776317   -4.437868    1.274422
     44          8           0       -5.266286   -5.856093   -0.475338
     45          6           0       -5.471288   -6.875705    0.605520
     46          6           0        2.281543   -5.193096    0.592581
     47          6           0        3.319842   -4.168256    0.982749
     48          6           0        4.014433   -3.340316    0.171487
     49          6           0        3.882939   -3.130574   -1.310732
     50          6           0        5.255326   -2.587509    0.801385
     51          6           0        6.534586   -2.767416    0.129560
     52          6           0        7.676919   -1.878067    0.664724
     53          6           0        9.081546   -1.968319   -0.066740
     54          6           0        9.800816   -3.337123    0.325670
     55          6           0       10.101342   -0.930780    0.469697
     56          6           0       11.466425   -0.944229   -0.230850
     57          6           0       12.292708    0.253633    0.184465
     58          6           0       13.549802    0.393271   -0.578292
     59          6           0       14.475987   -0.825160   -0.408077
     60          6           0       14.314026    1.786001   -0.299172
     61          6           0       15.481482    2.256392   -1.014360
     62          6           0       15.925692    3.667415   -0.602918
     63          6           0       17.297261    3.972165   -1.392187
     64          6           0       16.936646    4.148846   -2.975993
     65          6           0       17.927747    5.203482   -0.766245
     66          1           0       -2.813006    1.034475    3.585485
     67          1           0       -6.306786    5.511102    0.937508
     68          1           0       -8.727399    1.108944   -2.982429
     69          1           0       -3.824096   -3.230993    1.604747
     70          1           0       -1.709411   -1.224393    2.713920
     71          1           0       -2.734236   -2.616330    4.179126
     72          1           0       -3.579981   -1.145001    4.702584
     73          1           0       -4.657809   -2.199908    3.682911
     74          1           0       -2.397193   -3.570307   -0.161888
     75          1           0       -1.784395   -1.668560    0.102534
     76          1           0       -0.686489   -3.136110    2.323001
     77          1           0       -1.404856   -4.516441    1.595057
     78          1           0       -1.606496    3.300664    4.010731
     79          1           0       -2.584725    4.872566    4.378795
     80          1           0       -3.085766    3.353492    5.123863
     81          1           0       -5.173352    6.843498    2.333317
     82          1           0      -10.258223    3.112520   -3.222446
     83          1           0      -10.016541    4.878769   -3.001230
     84          1           0       -9.123835    4.466000   -5.378589
     85          1           0       -7.855584    4.930910   -4.234913
     86          1           0       -8.067208    3.179355   -4.669949
     87          1           0       -8.562542   -0.955494   -4.750655
     88          1           0       -8.915423   -2.640093   -3.785587
     89          1           0       -9.669114   -1.140942   -3.460934
     90          1           0       -4.131455   -3.873814   -1.401236
     91          1           0        2.572191   -6.119405    0.941100
     92          1           0        2.270903   -5.356295   -0.473745
     93          1           0        3.472057   -4.307222    1.942219
     94          1           0        2.898017   -3.273320   -1.517035
     95          1           0        4.253335   -2.293817   -1.826950
     96          1           0        4.384305   -4.003482   -1.866187
     97          1           0        5.004577   -1.546892    0.625761
     98          1           0        5.414894   -2.746636    1.768054
     99          1           0        6.803445   -3.873649    0.251968
    100          1           0        6.420828   -2.621356   -0.899521
    101          1           0        7.520669   -0.738341    0.541522
    102          1           0        7.788309   -2.070868    1.726785
    103          1           0        9.022226   -1.911931   -1.173450
    104          1           0        8.915689   -4.126950    0.151804
    105          1           0       10.742955   -3.476063   -0.420409
    106          1           0       10.124433   -3.366441    1.221933
    107          1           0        9.761801   -0.027758    0.486909
    108          1           0       10.204746   -1.190836    1.604991
    109          1           0       11.964928   -1.840435   -0.012654
    110          1           0       11.353491   -0.795018   -1.395947
    111          1           0       11.788023    1.201424    0.017366
    112          1           0       12.449837    0.182328    1.293208
    113          1           0       13.235606    0.676829   -1.671634
    114          1           0       14.713922   -0.749259    0.866479
    115          1           0       14.077889   -1.675511   -0.516362
    116          1           0       15.466597   -0.936036   -0.915492
    117          1           0       13.597805    2.578959   -0.424812
    118          1           0       14.452649    1.890047    0.738150
    119          1           0       16.193484    1.515651   -0.991333
    120          1           0       15.210777    2.248931   -2.043516
    121          1           0       15.119119    4.242571   -0.950792
    122          1           0       15.968227    3.892046    0.616335
    123          1           0       18.010875    3.081763   -1.296597
    124          1           0       16.311816    5.033920   -2.939775
    125          1           0       17.843506    4.238115   -3.553672
    126          1           0       16.284612    3.308141   -3.495111
    127          1           0       17.968694    4.929151    0.296794
    128          1           0       18.984661    5.152128   -1.084823
    129          1           0       17.258946    6.211001   -0.921872
    130          1           0       -5.529849   -7.708652   -0.017222
    131          1           0       -6.564543   -6.642355    1.172076
    132          1           0       -4.704178   -6.740284    1.351836
    133          8           0       -7.853608    6.877607   -0.419953
    134          1           0       -9.189239    6.279540   -1.642902
 ---------------------------------------------------------------------

 SCF Done:  E(RCAM-B3LYP) =  -3043.46360032     A.U. after   16 cycles

 Excitation energies and oscillator strengths:

 Excited State   1:      Singlet-A      1.9855 eV  624.45 nm  f=0.2562  <S**2>=0.000
     243 -> 246       -0.23331
     244 -> 245        0.65984
 This state for optimization and/or second-order correction.
 Total Energy, E(TD-HF/TD-KS) =  -3043.39063466
 Copying the excited state density for this state as the 1-particle RhoCI density.

 The electronic state is 1-A.
 Alpha  occ. eigenvalues --  -46.82473 -19.23011 -19.20327 -19.18324 -19.17877
 Alpha  occ. eigenvalues --  -19.17851 -19.17595 -19.16394 -14.39017 -14.37928
 Alpha  occ. eigenvalues --  -14.37108 -14.37004 -10.35275 -10.34817 -10.32665
 Alpha  occ. eigenvalues --  -10.31671 -10.28965 -10.28074 -10.27534 -10.27208
 Alpha  occ. eigenvalues --  -10.27094 -10.26938 -10.26820 -10.26595 -10.26557
 Alpha  occ. eigenvalues --  -10.26160 -10.25951 -10.25596 -10.25522 -10.25349
 Alpha  occ. eigenvalues --  -10.25315 -10.25167 -10.24659 -10.24441 -10.23850
 Alpha  occ. eigenvalues --  -10.23847 -10.23801 -10.23632 -10.23439 -10.23413
 Alpha  occ. eigenvalues --  -10.23385 -10.23359 -10.23241 -10.23014 -10.22984
 Alpha  occ. eigenvalues --  -10.22844 -10.22806 -10.22657 -10.22255 -10.21947
 Alpha  occ. eigenvalues --  -10.21789 -10.21664 -10.21546 -10.21276 -10.21039
 Alpha  occ. eigenvalues --  -10.20817 -10.20671 -10.20542 -10.20271 -10.20247
 Alpha  occ. eigenvalues --  -10.20113 -10.19779 -10.19722 -10.19555 -10.18593
 Alpha  occ. eigenvalues --  -10.18403  -3.10915  -1.85867  -1.85389  -1.85311
 Alpha  occ. eigenvalues --   -1.14029  -1.12426  -1.08006  -1.05347  -1.05300
 Alpha  occ. eigenvalues --   -1.04602  -1.03812  -1.01026  -1.00282  -1.00256
 Alpha  occ. eigenvalues --   -0.99270  -0.88187  -0.86456  -0.86220  -0.85804
 Alpha  occ. eigenvalues --   -0.85352  -0.84879  -0.84782  -0.84190  -0.83815
 Alpha  occ. eigenvalues --   -0.83646  -0.82472  -0.81817  -0.80597  -0.79729
 Alpha  occ. eigenvalues --   -0.79383  -0.78815  -0.77894  -0.77398  -0.76681
 Alpha  occ. eigenvalues --   -0.75219  -0.75181  -0.74522  -0.72366  -0.72038
 Alpha  occ. eigenvalues --   -0.71322  -0.70661  -0.70289  -0.70002  -0.69710
 Alpha  occ. eigenvalues --   -0.69345  -0.68866  -0.68041  -0.67000  -0.66553
 Alpha  occ. eigenvalues --   -0.65822  -0.64894  -0.64750  -0.62655  -0.62223
 Alpha  occ. eigenvalues --   -0.62007  -0.61460  -0.60706  -0.59230  -0.58867
 Alpha  occ. eigenvalues --   -0.58643  -0.58359  -0.58060  -0.57524  -0.57426
 Alpha  occ. eigenvalues --   -0.57156  -0.56997  -0.56164  -0.55524  -0.55194
 Alpha  occ. eigenvalues --   -0.54238  -0.53824  -0.53594  -0.53350  -0.52789
 Alpha  occ. eigenvalues --   -0.52452  -0.51576  -0.51383  -0.51265  -0.51245
 Alpha  occ. eigenvalues --   -0.50353  -0.49939  -0.49824  -0.49368  -0.49048
 Alpha  occ. eigenvalues --   -0.48711  -0.48584  -0.48360  -0.48111  -0.47997
 Alpha  occ. eigenvalues --   -0.47460  -0.47276  -0.47199  -0.46895  -0.46858
 Alpha  occ. eigenvalues --   -0.46631  -0.46563  -0.46272  -0.46075  -0.45864
 Alpha  occ. eigenvalues --   -0.45504  -0.45375  -0.45152  -0.45071  -0.44706
 Alpha  occ. eigenvalues --   -0.44609  -0.44475  -0.44231  -0.44093  -0.43920
 Alpha  occ. eigenvalues --   -0.43695  -0.43436  -0.43133  -0.42818  -0.42729
 Alpha  occ. eigenvalues --   -0.42622  -0.42489  -0.42291  -0.42139  -0.41936
 Alpha  occ. eigenvalues --   -0.41750  -0.41511  -0.41231  -0.41104  -0.41063
 Alpha  occ. eigenvalues --   -0.41000  -0.40933  -0.40754  -0.40529  -0.40356
 Alpha  occ. eigenvalues --   -0.40081  -0.39648  -0.39605  -0.39400  -0.39233
 Alpha  occ. eigenvalues --   -0.39132  -0.38967  -0.38943  -0.38486  -0.38341
 Alpha  occ. eigenvalues --   -0.37898  -0.37673  -0.37345  -0.37272  -0.37151
 Alpha  occ. eigenvalues --   -0.36867  -0.36731  -0.36568  -0.36100  -0.35912
 Alpha  occ. eigenvalues --   -0.35568  -0.35178  -0.35111  -0.34905  -0.34847
 Alpha  occ. eigenvalues --   -0.34476  -0.33998  -0.33834  -0.33548  -0.33327
 Alpha  occ. eigenvalues --   -0.32929  -0.32551  -0.32107  -0.31456  -0.31351
 Alpha  occ. eigenvalues --   -0.31208  -0.31122  -0.31024  -0.30359  -0.29968
 Alpha  occ. eigenvalues --   -0.29835  -0.29176  -0.28533  -0.28038  -0.27958
 Alpha  occ. eigenvalues --   -0.27753  -0.26521  -0.23051  -0.21551
 Alpha virt. eigenvalues --   -0.09014  -0.06300  -0.02344  -0.01166  -0.00315
 Alpha virt. eigenvalues --    0.02791   0.03290   0.03499   0.03926   0.04472
 Alpha virt. eigenvalues --    0.04688   0.05025   0.07514   0.07929   0.09472

 Mulliken charges:
               1
     1  Mg   0.831715
     2  C    0.131242
     3  C   -0.176682
     4  C   -0.122977
     5  C   -0.080557
     6  N   -0.625748
     7  C    0.253428
     8  C   -0.152591
     9  C   -0.151701
    10  C    0.336208
    11  C   -0.288169
    12  C   -0.145974
    13  C   -0.272813
    14  C    0.604283
    15  O   -0.410239
    16  O   -0.499036
    17  N   -0.723593
    18  C    0.307113
    19  C    0.071697
    20  C   -0.015034
    21  C    0.266144
    22  C   -0.416083
    23  C    0.245026
    24  O   -0.397289
    25  N   -0.695290
    26  C    0.335593
    27  C    0.053574
    28  C    0.035726
    29  C    0.284693
    30  C    0.220243
    31  C   -0.274526
    32  C   -0.313386
    33  N   -0.697149
    34  C    0.227168
    35  C   -0.005054
    36  C    0.089772
    37  C    0.260054
    38  C   -0.386279
    39  C    0.355923
    40  O   -0.448153
    41  C   -0.338895
    42  C    0.616651
    43  O   -0.491722
    44  O   -0.450475
    45  C   -0.084615
    46  C   -0.001180
    47  C   -0.133794
    48  C    0.128430
    49  C   -0.390648
    50  C   -0.206490
    51  C   -0.174099
    52  C   -0.170965
    53  C   -0.067691
    54  C   -0.292756
    55  C   -0.154242
    56  C   -0.171588
    57  C   -0.163832
    58  C   -0.054388
    59  C   -0.285759
    60  C   -0.187180
    61  C   -0.169601
    62  C   -0.164881
    63  C   -0.060016
    64  C   -0.315282
    65  C   -0.295875
    66  H    0.070117
    67  H    0.090156
    68  H    0.038352
    69  H    0.130414
    70  H    0.106693
    71  H    0.090519
    72  H    0.125108
    73  H    0.113248
    74  H    0.103699
    75  H    0.116462
    76  H    0.128999
    77  H    0.151241
    78  H    0.100799
    79  H    0.156460
    80  H    0.124357
    81  H    0.083645
    82  H    0.108572
    83  H    0.111029
    84  H    0.120185
    85  H    0.098753
    86  H    0.119295
    87  H    0.111237
    88  H    0.139089
    89  H    0.139014
    90  H    0.158065
    91  H    0.114248
    92  H    0.108281
    93  H    0.082000
    94  H    0.150456
    95  H    0.123626
    96  H    0.109740
    97  H    0.096066
    98  H    0.093176
    99  H    0.083179
   100  H    0.098884
   101  H    0.078064
   102  H    0.091000
   103  H    0.083003
   104  H    0.072387
   105  H    0.079508
   106  H    0.116893
   107  H    0.086873
   108  H    0.068010
   109  H    0.108687
   110  H    0.072900
   111  H    0.091250
   112  H    0.081609
   113  H    0.063422
   114  H    0.049165
   115  H    0.117255
   116  H    0.098562
   117  H    0.071036
   118  H    0.082974
   119  H    0.094664
   120  H    0.090859
   121  H    0.101861
   122  H    0.060704
   123  H    0.083089
   124  H    0.108038
   125  H    0.106648
   126  H    0.090788
   127  H    0.108673
   128  H    0.099802
   129  H    0.087886
   130  H    0.138267
   131  H    0.122846
   132  H    0.139256
   133  O   -0.449071
   134  H    0.077539
 Sum of Mulliken charges =   0.00000

 Dipole moment (field-independent basis, Debye):
    X=              0.1019    Y=             -3.5361    Z=             -0.8306  Tot=              3.6338
 Quadrupole moment (field-independent basis, Debye-Ang):
   XX=           -371.0161   YY=           -440.2011   ZZ=           -393.5790
   XY=              2.6890   XZ=             16.0975   YZ=            -35.4463

 Normal termination of Gaussian 09 at Tue Oct  8 23:29:31 2019.
