 Gaussian 09, Revision D.01,
 Gaussian 09:  ES64L-G09RevD.01 24-Apr-2013

 ----------------------------------------------------------------------
 # td=(NStates=1) iop(3/107=0140000000,3/108=0140000000) iop(3/107=0140
 000000,3/108=0140000000) CAM-B3LYP/6-31G(d,p)
 ----------------------------------------------------------------------

 --
 TD
 --
 Symbolic Z-matrix:
 Charge =  0 Multiplicity = 1

                         Standard orientation:
 ---------------------------------------------------------------------
 Center     Atomic      Atomic             Coordinates (Angstroms)
 Number     Number       Type             X           Y           Z
 ---------------------------------------------------------------------
      1         12           0       -5.650186    1.280842    0.148169
      2          6           0       -5.145506   -2.203960   -0.334400
      3          6           0       -3.448353    1.134874    2.722397
      4          6           0       -6.342436    4.534114    0.638730
      5          6           0       -8.075831    1.130922   -2.391098
      6          7           0       -4.389331   -0.289102    0.990692
      7          6           0       -4.256802   -1.683242    0.647707
      8          6           0       -3.186982   -2.329668    1.431451
      9          6           0       -2.891369   -1.421159    2.510554
     10          6           0       -3.622435   -0.128885    2.055576
     11          6           0       -3.299688   -1.792792    3.966946
     12          6           0       -1.963374   -2.813861    0.543186
     13          6           0       -0.925515   -3.410006    1.517194
     14          6           0        0.291930   -3.803879    0.759355
     15          8           0        0.527067   -3.321991   -0.338766
     16          8           0        1.085328   -4.728987    1.328201
     17          7           0       -4.991994    2.633871    1.463354
     18          6           0       -4.082387    2.395640    2.476888
     19          6           0       -3.902434    3.689308    3.349550
     20          6           0       -4.818766    4.539126    2.732078
     21          6           0       -5.434683    3.867028    1.547842
     22          6           0       -2.843671    3.824279    4.378039
     23          6           0       -4.889835    5.928161    3.114711
     24          8           0       -4.226942    6.483084    3.934372
     25          7           0       -7.056761    2.598556   -0.695909
     26          6           0       -7.028937    3.907470   -0.419569
     27          6           0       -7.912378    4.576593   -1.264830
     28          6           0       -8.512083    3.625778   -2.102941
     29          6           0       -7.918708    2.355359   -1.668015
     30          6           0       -8.122564    6.012747   -1.322655
     31          6           0       -9.493996    3.861356   -3.204439
     32          6           0       -8.695701    3.993470   -4.517633
     33          7           0       -6.472310   -0.202728   -1.070936
     34          6           0       -7.473721   -0.086202   -1.994129
     35          6           0       -7.675998   -1.410052   -2.702202
     36          6           0       -6.857818   -2.221148   -2.040022
     37          6           0       -6.098774   -1.467270   -1.038474
     38          6           0       -8.650750   -1.683322   -3.792906
     39          6           0       -6.226545   -3.525739   -2.057472
     40          8           0       -6.485896   -4.553426   -2.690081
     41          6           0       -5.034605   -3.503271   -1.031624
     42          6           0       -5.211775   -4.654208    0.067588
     43          8           0       -5.608550   -4.557450    1.227919
     44          8           0       -4.885257   -5.881535   -0.457555
     45          6           0       -5.244624   -7.011812    0.298078
     46          6           0        2.251895   -5.020117    0.629203
     47          6           0        3.390700   -4.136944    1.078180
     48          6           0        4.082086   -3.236055    0.298384
     49          6           0        3.750864   -3.071903   -1.215770
     50          6           0        5.314203   -2.322740    0.767718
     51          6           0        6.665995   -2.663568    0.253377
     52          6           0        7.787101   -1.773940    0.720361
     53          6           0        9.062359   -1.894273    0.054701
     54          6           0        9.685928   -3.343647    0.115572
     55          6           0       10.043609   -0.819181    0.480677
     56          6           0       11.379797   -0.737241   -0.306937
     57          6           0       12.195534    0.446161    0.110169
     58          6           0       13.608337    0.501344   -0.601836
     59          6           0       14.462837   -0.752190   -0.369850
     60          6           0       14.381325    1.787538   -0.157626
     61          6           0       15.602837    2.076049   -0.966189
     62          6           0       16.073026    3.425265   -0.748029
     63          6           0       17.408635    3.888709   -1.447916
     64          6           0       17.194213    3.969324   -2.846210
     65          6           0       17.938226    5.260034   -0.836312
     66          1           0       -2.814679    1.431106    3.415053
     67          1           0       -6.500974    5.645078    0.821125
     68          1           0       -8.946122    1.201753   -3.071764
     69          1           0       -3.660241   -3.063607    1.865264
     70          1           0       -1.840132   -1.103138    2.469008
     71          1           0       -2.696097   -2.513836    4.387212
     72          1           0       -3.234392   -0.798409    4.568562
     73          1           0       -4.347374   -2.088458    3.881383
     74          1           0       -2.209793   -3.582732   -0.253685
     75          1           0       -1.633908   -1.839169   -0.027791
     76          1           0       -0.589261   -2.791786    2.323980
     77          1           0       -1.137532   -4.234872    2.093132
     78          1           0       -1.856111    3.658154    3.954666
     79          1           0       -2.946859    4.855013    4.683557
     80          1           0       -2.904123    3.180611    5.395716
     81          1           0       -5.621989    6.525355    2.360920
     82          1           0      -10.171736    2.939753   -3.057028
     83          1           0      -10.020700    4.685964   -2.942686
     84          1           0       -9.390709    4.258341   -5.435489
     85          1           0       -8.105723    4.957071   -4.454564
     86          1           0       -8.056907    3.201167   -4.551467
     87          1           0       -8.482026   -1.224693   -4.693265
     88          1           0       -8.611752   -2.753917   -4.106383
     89          1           0       -9.700765   -1.407017   -3.465261
     90          1           0       -4.056410   -3.903961   -1.631550
     91          1           0        2.452238   -5.954882    1.124445
     92          1           0        2.220566   -5.103999   -0.561265
     93          1           0        3.455278   -4.119550    2.045798
     94          1           0        2.822615   -2.971900   -1.321851
     95          1           0        4.287551   -2.222511   -1.971646
     96          1           0        4.291412   -4.002830   -1.718288
     97          1           0        4.974804   -1.263982    0.503311
     98          1           0        5.421265   -2.439342    1.876428
     99          1           0        6.793144   -3.736858    0.254109
    100          1           0        6.552356   -2.545839   -0.746216
    101          1           0        7.285091   -0.818507    0.455022
    102          1           0        7.913549   -2.106308    1.801028
    103          1           0        8.828491   -1.673152   -1.035058
    104          1           0        9.078171   -4.185687   -0.300128
    105          1           0       10.560990   -3.342459   -0.294581
    106          1           0       10.008582   -3.490424    1.164614
    107          1           0        9.766678    0.082029    0.375124
    108          1           0       10.356816   -0.956551    1.706366
    109          1           0       12.072535   -1.693391   -0.295786
    110          1           0       11.058757   -0.659281   -1.354562
    111          1           0       11.684701    1.452768    0.102143
    112          1           0       12.483114    0.353175    1.263606
    113          1           0       13.522017    0.740040   -1.831145
    114          1           0       14.791134   -0.960576    0.568437
    115          1           0       14.004483   -1.614355   -1.000228
    116          1           0       15.537054   -0.672330   -0.998514
    117          1           0       13.607299    2.496734   -0.419628
    118          1           0       14.667219    1.766819    0.923378
    119          1           0       16.546142    1.352861   -0.750935
    120          1           0       15.280100    1.908577   -2.211610
    121          1           0       15.378092    4.335744   -1.066245
    122          1           0       16.338642    3.673593    0.431384
    123          1           0       18.328441    3.263506   -1.320240
    124          1           0       16.431648    4.579300   -3.207707
    125          1           0       18.252296    4.298956   -3.272704
    126          1           0       16.792475    3.092974   -3.421647
    127          1           0       17.957938    5.297080    0.186716
    128          1           0       18.928988    5.325226   -1.335580
    129          1           0       17.191318    6.178930   -1.285080
    130          1           0       -4.962898   -7.946854   -0.235941
    131          1           0       -6.370052   -6.994070    0.569136
    132          1           0       -4.718922   -6.999581    1.143209
    133          8           0       -7.786980    6.962312   -0.590423
    134          1           0       -8.805319    6.422548   -2.286842
 ---------------------------------------------------------------------

 SCF Done:  E(RCAM-B3LYP) =  -3043.42740488     A.U. after   16 cycles

 Excitation energies and oscillator strengths:

 Excited State   1:      Singlet-A      2.0143 eV  615.53 nm  f=0.1719  <S**2>=0.000
     243 -> 246       -0.26331
     244 -> 245        0.64459
 This state for optimization and/or second-order correction.
 Total Energy, E(TD-HF/TD-KS) =  -3043.35338166
 Copying the excited state density for this state as the 1-particle RhoCI density.

 The electronic state is 1-A.
 Alpha  occ. eigenvalues --  -46.83004 -19.23405 -19.22314 -19.18045 -19.17582
 Alpha  occ. eigenvalues --  -19.16984 -19.16914 -19.16912 -14.39830 -14.37535
 Alpha  occ. eigenvalues --  -14.37502 -14.36578 -10.35912 -10.34957 -10.31492
 Alpha  occ. eigenvalues --  -10.31115 -10.30557 -10.28490 -10.28300 -10.27874
 Alpha  occ. eigenvalues --  -10.27621 -10.27217 -10.27022 -10.26652 -10.26591
 Alpha  occ. eigenvalues --  -10.26224 -10.26090 -10.25901 -10.25816 -10.25617
 Alpha  occ. eigenvalues --  -10.25358 -10.24990 -10.24457 -10.24355 -10.24349
 Alpha  occ. eigenvalues --  -10.24297 -10.23979 -10.23811 -10.23529 -10.23451
 Alpha  occ. eigenvalues --  -10.23167 -10.23134 -10.23129 -10.23010 -10.22765
 Alpha  occ. eigenvalues --  -10.22734 -10.22606 -10.22444 -10.22394 -10.22383
 Alpha  occ. eigenvalues --  -10.22356 -10.22342 -10.22277 -10.21903 -10.21784
 Alpha  occ. eigenvalues --  -10.21536 -10.21489 -10.21335 -10.21313 -10.20969
 Alpha  occ. eigenvalues --  -10.20852 -10.20698 -10.20554 -10.19600 -10.19487
 Alpha  occ. eigenvalues --  -10.19313  -3.11407  -1.86359  -1.85864  -1.85814
 Alpha  occ. eigenvalues --   -1.15178  -1.13161  -1.08547  -1.05956  -1.05237
 Alpha  occ. eigenvalues --   -1.04925  -1.04526  -1.01845  -1.01146  -1.00673
 Alpha  occ. eigenvalues --   -0.99906  -0.89113  -0.87724  -0.86674  -0.85486
 Alpha  occ. eigenvalues --   -0.85417  -0.84746  -0.84485  -0.84178  -0.83700
 Alpha  occ. eigenvalues --   -0.83613  -0.83036  -0.82716  -0.81115  -0.79831
 Alpha  occ. eigenvalues --   -0.79287  -0.78986  -0.77820  -0.77162  -0.76901
 Alpha  occ. eigenvalues --   -0.75919  -0.75640  -0.75178  -0.72912  -0.72725
 Alpha  occ. eigenvalues --   -0.71943  -0.70880  -0.70870  -0.70345  -0.69939
 Alpha  occ. eigenvalues --   -0.69728  -0.68931  -0.68014  -0.67289  -0.66634
 Alpha  occ. eigenvalues --   -0.65876  -0.64692  -0.64475  -0.62892  -0.62268
 Alpha  occ. eigenvalues --   -0.62130  -0.61676  -0.59827  -0.59317  -0.59003
 Alpha  occ. eigenvalues --   -0.58797  -0.57946  -0.57829  -0.57669  -0.57077
 Alpha  occ. eigenvalues --   -0.57066  -0.56630  -0.56084  -0.55568  -0.54589
 Alpha  occ. eigenvalues --   -0.54186  -0.53388  -0.52972  -0.52872  -0.52482
 Alpha  occ. eigenvalues --   -0.52266  -0.51770  -0.51573  -0.51092  -0.50629
 Alpha  occ. eigenvalues --   -0.50552  -0.50247  -0.49643  -0.49380  -0.49316
 Alpha  occ. eigenvalues --   -0.49141  -0.48589  -0.48500  -0.48084  -0.47908
 Alpha  occ. eigenvalues --   -0.47736  -0.47675  -0.47287  -0.47168  -0.47116
 Alpha  occ. eigenvalues --   -0.46812  -0.46697  -0.46180  -0.46101  -0.45921
 Alpha  occ. eigenvalues --   -0.45764  -0.45690  -0.45391  -0.45232  -0.44983
 Alpha  occ. eigenvalues --   -0.44819  -0.44606  -0.44510  -0.44083  -0.43968
 Alpha  occ. eigenvalues --   -0.43887  -0.43688  -0.43484  -0.43393  -0.43052
 Alpha  occ. eigenvalues --   -0.42819  -0.42643  -0.42616  -0.42566  -0.42254
 Alpha  occ. eigenvalues --   -0.42149  -0.41929  -0.41833  -0.41609  -0.41498
 Alpha  occ. eigenvalues --   -0.41344  -0.41050  -0.40823  -0.40809  -0.40440
 Alpha  occ. eigenvalues --   -0.40359  -0.40144  -0.40084  -0.40052  -0.39389
 Alpha  occ. eigenvalues --   -0.39190  -0.38998  -0.38891  -0.38672  -0.38427
 Alpha  occ. eigenvalues --   -0.38097  -0.37963  -0.37757  -0.37682  -0.37460
 Alpha  occ. eigenvalues --   -0.37191  -0.37088  -0.36520  -0.35840  -0.35524
 Alpha  occ. eigenvalues --   -0.35383  -0.35169  -0.34845  -0.34718  -0.34476
 Alpha  occ. eigenvalues --   -0.34067  -0.33907  -0.33488  -0.33106  -0.33013
 Alpha  occ. eigenvalues --   -0.32850  -0.32587  -0.32313  -0.32122  -0.31650
 Alpha  occ. eigenvalues --   -0.31307  -0.30896  -0.30732  -0.30527  -0.29953
 Alpha  occ. eigenvalues --   -0.29550  -0.29096  -0.28121  -0.27793  -0.27613
 Alpha  occ. eigenvalues --   -0.27005  -0.26825  -0.23191  -0.21083
 Alpha virt. eigenvalues --   -0.08105  -0.06781  -0.02217  -0.00560  -0.00156
 Alpha virt. eigenvalues --    0.02090   0.02540   0.03172   0.03688   0.03880
 Alpha virt. eigenvalues --    0.04426   0.05332   0.07936   0.08116   0.08764

 Mulliken charges:
               1
     1  Mg   0.846575
     2  C    0.111747
     3  C   -0.138462
     4  C   -0.179735
     5  C   -0.154667
     6  N   -0.598677
     7  C    0.257033
     8  C   -0.110547
     9  C   -0.162907
    10  C    0.344543
    11  C   -0.303757
    12  C   -0.164183
    13  C   -0.265720
    14  C    0.593621
    15  O   -0.472647
    16  O   -0.447270
    17  N   -0.721627
    18  C    0.210824
    19  C    0.086330
    20  C   -0.060951
    21  C    0.358987
    22  C   -0.404063
    23  C    0.249929
    24  O   -0.403883
    25  N   -0.701321
    26  C    0.324404
    27  C    0.025374
    28  C   -0.031654
    29  C    0.280006
    30  C    0.224306
    31  C   -0.221060
    32  C   -0.305249
    33  N   -0.709193
    34  C    0.244614
    35  C    0.030244
    36  C    0.060000
    37  C    0.266403
    38  C   -0.395155
    39  C    0.356836
    40  O   -0.464892
    41  C   -0.341253
    42  C    0.610140
    43  O   -0.469219
    44  O   -0.445319
    45  C   -0.077784
    46  C    0.002566
    47  C   -0.123752
    48  C    0.096889
    49  C   -0.348922
    50  C   -0.219958
    51  C   -0.185153
    52  C   -0.133902
    53  C   -0.060587
    54  C   -0.316265
    55  C   -0.130230
    56  C   -0.182139
    57  C   -0.167851
    58  C   -0.047525
    59  C   -0.303620
    60  C   -0.152931
    61  C   -0.137473
    62  C   -0.140416
    63  C   -0.063438
    64  C   -0.278765
    65  C   -0.289550
    66  H    0.052105
    67  H    0.144284
    68  H    0.096482
    69  H    0.134248
    70  H    0.114346
    71  H    0.122362
    72  H    0.110283
    73  H    0.130721
    74  H    0.121319
    75  H    0.124984
    76  H    0.144761
    77  H    0.139708
    78  H    0.139016
    79  H    0.168321
    80  H    0.114195
    81  H    0.044104
    82  H    0.098575
    83  H    0.122295
    84  H    0.099929
    85  H    0.116168
    86  H    0.126663
    87  H    0.141366
    88  H    0.144693
    89  H    0.126955
    90  H    0.154070
    91  H    0.109323
    92  H    0.122174
    93  H    0.078177
    94  H    0.155365
    95  H    0.076971
    96  H    0.105059
    97  H    0.094194
    98  H    0.084180
    99  H    0.094367
   100  H    0.097103
   101  H    0.087458
   102  H    0.081642
   103  H    0.066651
   104  H    0.101973
   105  H    0.116667
   106  H    0.094541
   107  H    0.101249
   108  H    0.042074
   109  H    0.085664
   110  H    0.092934
   111  H    0.088002
   112  H    0.073256
   113  H    0.048394
   114  H    0.120625
   115  H    0.098100
   116  H    0.070225
   117  H    0.097994
   118  H    0.090310
   119  H    0.082971
   120  H    0.047476
   121  H    0.074650
   122  H    0.053757
   123  H    0.082284
   124  H    0.103647
   125  H    0.070213
   126  H    0.094205
   127  H    0.114913
   128  H    0.099055
   129  H    0.062480
   130  H    0.121072
   131  H    0.118245
   132  H    0.129881
   133  O   -0.433709
   134  H    0.024539
 Sum of Mulliken charges =   0.00000

 Dipole moment (field-independent basis, Debye):
    X=              2.8897    Y=             -5.4885    Z=             -0.4232  Tot=              6.2172
 Quadrupole moment (field-independent basis, Debye-Ang):
   XX=           -394.9565   YY=           -452.6159   ZZ=           -393.2562
   XY=             13.5353   XZ=             23.2511   YZ=            -30.1606

 Normal termination of Gaussian 09 at Fri Oct  4 11:07:01 2019.
