 Gaussian 09, Revision D.01,
 Gaussian 09:  ES64L-G09RevD.01 24-Apr-2013

 ----------------------------------------------------------------------
 # td=(NStates=1) iop(3/107=0140000000,3/108=0140000000) iop(3/107=0140
 000000,3/108=0140000000) CAM-B3LYP/6-31G(d,p)
 ----------------------------------------------------------------------

 --
 TD
 --
 Symbolic Z-matrix:
 Charge =  0 Multiplicity = 1

                         Standard orientation:
 ---------------------------------------------------------------------
 Center     Atomic      Atomic             Coordinates (Angstroms)
 Number     Number       Type             X           Y           Z
 ---------------------------------------------------------------------
      1         12           0       -5.639598    1.204839    0.122607
      2          6           0       -5.024828   -2.129298   -0.324699
      3          6           0       -3.332025    1.112504    2.823648
      4          6           0       -6.123891    4.547459    0.684536
      5          6           0       -7.949781    1.253533   -2.344352
      6          7           0       -4.270660   -0.284088    0.963059
      7          6           0       -4.186375   -1.640118    0.627487
      8          6           0       -3.266364   -2.389855    1.511572
      9          6           0       -2.857520   -1.433770    2.640571
     10          6           0       -3.556871   -0.095603    2.057756
     11          6           0       -3.540418   -1.797822    4.032173
     12          6           0       -1.994672   -2.922826    0.657072
     13          6           0       -0.951002   -3.699557    1.416019
     14          6           0        0.248460   -3.960805    0.606079
     15          8           0        0.593444   -3.394048   -0.440707
     16          8           0        1.133436   -4.725573    1.212982
     17          7           0       -4.878622    2.604958    1.381838
     18          6           0       -3.997405    2.398309    2.523736
     19          6           0       -3.801204    3.548722    3.291146
     20          6           0       -4.498488    4.509594    2.645793
     21          6           0       -5.187082    3.890584    1.549471
     22          6           0       -2.909098    3.592405    4.383949
     23          6           0       -4.641779    5.911762    2.980529
     24          8           0       -3.966322    6.444059    3.860189
     25          7           0       -6.799734    2.619009   -0.772988
     26          6           0       -6.851014    3.976616   -0.403048
     27          6           0       -7.861824    4.620633   -1.167610
     28          6           0       -8.404713    3.769065   -2.034119
     29          6           0       -7.700335    2.518041   -1.736725
     30          6           0       -8.311722    6.048549   -1.035689
     31          6           0       -9.447913    3.920523   -3.198912
     32          6           0       -8.803806    4.065226   -4.453452
     33          7           0       -6.350255   -0.073819   -1.069878
     34          6           0       -7.361075    0.064582   -2.000950
     35          6           0       -7.566510   -1.223653   -2.676817
     36          6           0       -6.657734   -2.129591   -2.112978
     37          6           0       -5.974364   -1.360478   -1.108878
     38          6           0       -8.632987   -1.512451   -3.825859
     39          6           0       -6.166780   -3.448961   -2.089326
     40          8           0       -6.575758   -4.353890   -2.810156
     41          6           0       -5.102280   -3.615861   -0.950199
     42          6           0       -5.436841   -4.699978    0.078709
     43          8           0       -5.862007   -4.500380    1.211026
     44          8           0       -5.091982   -5.837161   -0.476247
     45          6           0       -5.434912   -7.101886    0.330495
     46          6           0        2.384400   -5.068104    0.640476
     47          6           0        3.456317   -3.991703    0.949235
     48          6           0        4.054796   -3.239206    0.097972
     49          6           0        3.771629   -3.060998   -1.397420
     50          6           0        5.217652   -2.373704    0.762051
     51          6           0        6.414668   -2.581543    0.036934
     52          6           0        7.634126   -1.742716    0.695319
     53          6           0        9.069595   -1.961428   -0.077184
     54          6           0        9.515086   -3.416021    0.225537
     55          6           0       10.097715   -0.948479    0.464410
     56          6           0       11.436463   -1.035876   -0.251866
     57          6           0       12.301820    0.210942    0.200198
     58          6           0       13.546339    0.509452   -0.562315
     59          6           0       14.463621   -0.698020   -0.340859
     60          6           0       14.254193    1.826837   -0.176641
     61          6           0       15.414800    2.177652   -1.021590
     62          6           0       15.946527    3.587215   -0.595805
     63          6           0       17.222060    3.955879   -1.422793
     64          6           0       17.091061    3.983900   -2.976548
     65          6           0       17.760263    5.327964   -0.840322
     66          1           0       -2.599330    1.092422    3.525025
     67          1           0       -6.280311    5.596915    0.880597
     68          1           0       -8.585949    1.130477   -3.231663
     69          1           0       -3.899737   -3.106805    1.877966
     70          1           0       -1.882894   -1.188795    2.599829
     71          1           0       -3.041964   -2.790832    4.261327
     72          1           0       -3.246551   -1.092916    4.775690
     73          1           0       -4.685388   -2.057591    3.984380
     74          1           0       -2.434023   -3.423414   -0.274336
     75          1           0       -1.310469   -2.020676    0.152521
     76          1           0       -0.353768   -3.144204    2.189799
     77          1           0       -1.257722   -4.676665    1.878989
     78          1           0       -1.709941    3.452091    4.099700
     79          1           0       -2.829636    4.574890    4.899312
     80          1           0       -3.109972    2.839226    5.168367
     81          1           0       -5.455089    6.415133    2.428658
     82          1           0      -10.403672    3.106964   -2.958402
     83          1           0       -9.975585    5.032098   -2.853212
     84          1           0       -9.486985    4.325050   -5.144181
     85          1           0       -7.997712    4.893683   -4.388852
     86          1           0       -8.270233    3.083018   -4.779198
     87          1           0       -8.500945   -0.983947   -4.885246
     88          1           0       -8.220728   -2.584530   -4.113134
     89          1           0       -9.582933   -1.424640   -3.308687
     90          1           0       -4.432482   -3.864334   -1.591467
     91          1           0        2.428094   -5.978699    1.135579
     92          1           0        2.456401   -5.201755   -0.550970
     93          1           0        3.992729   -4.168182    1.958055
     94          1           0        2.784540   -3.450139   -1.447201
     95          1           0        3.774531   -1.838249   -1.699382
     96          1           0        4.754493   -3.637701   -1.881301
     97          1           0        4.796792   -1.308736    0.561074
     98          1           0        5.443027   -2.628835    1.703852
     99          1           0        6.703277   -3.657092    0.184901
    100          1           0        6.482251   -2.178019   -0.985646
    101          1           0        7.374794   -0.751080    0.583018
    102          1           0        7.780858   -2.082191    1.761157
    103          1           0        8.701256   -1.757863   -0.995362
    104          1           0        8.846688   -4.291339    0.143067
    105          1           0       10.383046   -3.663988   -0.362342
    106          1           0        9.783093   -3.448982    1.279114
    107          1           0        9.727979    0.121546    0.351033
    108          1           0       10.088847   -1.046366    1.543837
    109          1           0       12.016631   -1.837353    0.133131
    110          1           0       11.418558   -0.838682   -1.234386
    111          1           0       11.654269    0.957106    0.217142
    112          1           0       12.386490    0.200725    1.240587
    113          1           0       13.414645    0.672086   -1.678856
    114          1           0       14.746521   -0.701927    0.852231
    115          1           0       13.947402   -1.544267   -0.680256
    116          1           0       15.446148   -0.625907   -0.829215
    117          1           0       13.529643    2.712906   -0.304842
    118          1           0       14.638127    1.874854    1.034528
    119          1           0       16.108729    1.369569   -1.104276
    120          1           0       14.805247    2.045860   -1.944939
    121          1           0       15.069942    4.326998   -0.906408
    122          1           0       16.133924    3.883453    0.492782
    123          1           0       17.950858    3.127885   -1.214132
    124          1           0       16.307394    4.793928   -3.161206
    125          1           0       18.119969    4.378798   -3.484660
    126          1           0       16.721725    3.041222   -3.200902
    127          1           0       17.624067    5.307551    0.167318
    128          1           0       18.819267    5.244390   -1.137832
    129          1           0       17.102996    6.060091   -1.377724
    130          1           0       -5.294105   -7.783265   -0.386911
    131          1           0       -6.462779   -7.166398    0.473360
    132          1           0       -4.932377   -7.215668    1.192140
    133          8           0       -7.944494    6.900946   -0.257521
    134          1           0       -9.150281    6.423153   -1.730480
 ---------------------------------------------------------------------

 SCF Done:  E(RCAM-B3LYP) =  -3043.43431508     A.U. after   16 cycles

 Excitation energies and oscillator strengths:

 Excited State   1:      Singlet-A      1.9375 eV  639.92 nm  f=0.2196  <S**2>=0.000
     243 -> 246        0.21000
     244 -> 245        0.66422
 This state for optimization and/or second-order correction.
 Total Energy, E(TD-HF/TD-KS) =  -3043.36311385
 Copying the excited state density for this state as the 1-particle RhoCI density.

 The electronic state is 1-A.
 Alpha  occ. eigenvalues --  -46.80416 -19.23972 -19.21904 -19.17547 -19.17425
 Alpha  occ. eigenvalues --  -19.16657 -19.16456 -19.15848 -14.38567 -14.36837
 Alpha  occ. eigenvalues --  -14.36552 -14.36494 -10.35648 -10.34426 -10.30967
 Alpha  occ. eigenvalues --  -10.30941 -10.29460 -10.27946 -10.27279 -10.26852
 Alpha  occ. eigenvalues --  -10.26721 -10.26712 -10.26344 -10.26303 -10.26297
 Alpha  occ. eigenvalues --  -10.25885 -10.25799 -10.25782 -10.25689 -10.25329
 Alpha  occ. eigenvalues --  -10.24813 -10.24562 -10.24259 -10.24159 -10.24152
 Alpha  occ. eigenvalues --  -10.24102 -10.23711 -10.23631 -10.23458 -10.23379
 Alpha  occ. eigenvalues --  -10.23262 -10.22975 -10.22856 -10.22492 -10.22449
 Alpha  occ. eigenvalues --  -10.22367 -10.22329 -10.22300 -10.22112 -10.21969
 Alpha  occ. eigenvalues --  -10.21871 -10.21795 -10.21422 -10.21186 -10.21117
 Alpha  occ. eigenvalues --  -10.21111 -10.20927 -10.20763 -10.20579 -10.20576
 Alpha  occ. eigenvalues --  -10.20557 -10.20418 -10.20028 -10.19614 -10.19442
 Alpha  occ. eigenvalues --  -10.18195  -3.09324  -1.84227  -1.83799  -1.83772
 Alpha  occ. eigenvalues --   -1.14321  -1.13824  -1.07399  -1.06439  -1.05437
 Alpha  occ. eigenvalues --   -1.04680  -1.03000  -1.00929  -1.00051  -0.99539
 Alpha  occ. eigenvalues --   -0.98796  -0.87990  -0.86457  -0.86010  -0.85573
 Alpha  occ. eigenvalues --   -0.85537  -0.85081  -0.83966  -0.83667  -0.82942
 Alpha  occ. eigenvalues --   -0.82878  -0.82296  -0.81986  -0.80736  -0.80500
 Alpha  occ. eigenvalues --   -0.80243  -0.78936  -0.78339  -0.77461  -0.76469
 Alpha  occ. eigenvalues --   -0.75497  -0.74707  -0.74312  -0.73559  -0.71828
 Alpha  occ. eigenvalues --   -0.70903  -0.70804  -0.70437  -0.69786  -0.69078
 Alpha  occ. eigenvalues --   -0.68956  -0.68769  -0.67182  -0.66372  -0.65835
 Alpha  occ. eigenvalues --   -0.65182  -0.65110  -0.64305  -0.62699  -0.61800
 Alpha  occ. eigenvalues --   -0.61652  -0.61054  -0.60979  -0.59958  -0.59553
 Alpha  occ. eigenvalues --   -0.58212  -0.57803  -0.57501  -0.56659  -0.56320
 Alpha  occ. eigenvalues --   -0.56136  -0.55857  -0.55092  -0.54787  -0.54331
 Alpha  occ. eigenvalues --   -0.53942  -0.53187  -0.52784  -0.52577  -0.52214
 Alpha  occ. eigenvalues --   -0.51886  -0.51752  -0.51524  -0.51280  -0.51038
 Alpha  occ. eigenvalues --   -0.50471  -0.49879  -0.49795  -0.49226  -0.49141
 Alpha  occ. eigenvalues --   -0.49054  -0.48757  -0.48523  -0.48183  -0.47860
 Alpha  occ. eigenvalues --   -0.47682  -0.47667  -0.47205  -0.46799  -0.46680
 Alpha  occ. eigenvalues --   -0.46535  -0.46453  -0.46270  -0.46110  -0.45956
 Alpha  occ. eigenvalues --   -0.45730  -0.45446  -0.45250  -0.44996  -0.44873
 Alpha  occ. eigenvalues --   -0.44540  -0.44263  -0.44050  -0.43912  -0.43858
 Alpha  occ. eigenvalues --   -0.43700  -0.43168  -0.43139  -0.42914  -0.42626
 Alpha  occ. eigenvalues --   -0.42400  -0.42306  -0.42144  -0.41924  -0.41866
 Alpha  occ. eigenvalues --   -0.41646  -0.41564  -0.41328  -0.41214  -0.41102
 Alpha  occ. eigenvalues --   -0.40889  -0.40745  -0.40513  -0.40278  -0.40242
 Alpha  occ. eigenvalues --   -0.40070  -0.39756  -0.39559  -0.39448  -0.39020
 Alpha  occ. eigenvalues --   -0.38881  -0.38572  -0.38266  -0.38190  -0.38052
 Alpha  occ. eigenvalues --   -0.37982  -0.37776  -0.37606  -0.37484  -0.36968
 Alpha  occ. eigenvalues --   -0.36913  -0.36165  -0.36010  -0.35803  -0.35471
 Alpha  occ. eigenvalues --   -0.35384  -0.35194  -0.35050  -0.34628  -0.34580
 Alpha  occ. eigenvalues --   -0.34369  -0.33904  -0.33405  -0.33356  -0.32938
 Alpha  occ. eigenvalues --   -0.32632  -0.32357  -0.31930  -0.31843  -0.31276
 Alpha  occ. eigenvalues --   -0.30810  -0.30479  -0.29973  -0.29794  -0.29172
 Alpha  occ. eigenvalues --   -0.29140  -0.28738  -0.28037  -0.27894  -0.27731
 Alpha  occ. eigenvalues --   -0.27568  -0.27240  -0.23044  -0.20742
 Alpha virt. eigenvalues --   -0.08424  -0.05928  -0.01492  -0.00173   0.01170
 Alpha virt. eigenvalues --    0.03201   0.03852   0.04029   0.04919   0.05291
 Alpha virt. eigenvalues --    0.05556   0.05945   0.08340   0.08896   0.09356

 Mulliken charges:
               1
     1  Mg   0.839474
     2  C    0.029867
     3  C   -0.175613
     4  C   -0.192909
     5  C   -0.179414
     6  N   -0.599576
     7  C    0.281240
     8  C   -0.145257
     9  C   -0.123048
    10  C    0.301194
    11  C   -0.311861
    12  C   -0.184641
    13  C   -0.250892
    14  C    0.581354
    15  O   -0.495251
    16  O   -0.446843
    17  N   -0.690168
    18  C    0.236610
    19  C    0.137301
    20  C   -0.022787
    21  C    0.336568
    22  C   -0.416816
    23  C    0.244213
    24  O   -0.433197
    25  N   -0.684357
    26  C    0.291066
    27  C   -0.020564
    28  C    0.036604
    29  C    0.291583
    30  C    0.247529
    31  C   -0.211406
    32  C   -0.285147
    33  N   -0.771750
    34  C    0.301735
    35  C   -0.036156
    36  C    0.108025
    37  C    0.292439
    38  C   -0.374601
    39  C    0.279953
    40  O   -0.467919
    41  C   -0.258046
    42  C    0.640773
    43  O   -0.491635
    44  O   -0.446154
    45  C   -0.102938
    46  C    0.008467
    47  C   -0.133066
    48  C    0.126271
    49  C   -0.343329
    50  C   -0.177247
    51  C   -0.179188
    52  C   -0.206846
    53  C   -0.052303
    54  C   -0.320312
    55  C   -0.186338
    56  C   -0.171480
    57  C   -0.183354
    58  C   -0.066528
    59  C   -0.293946
    60  C   -0.154924
    61  C   -0.169700
    62  C   -0.159807
    63  C   -0.080500
    64  C   -0.292506
    65  C   -0.302957
    66  H    0.076924
    67  H    0.118464
    68  H    0.092072
    69  H    0.136497
    70  H    0.113698
    71  H    0.104701
    72  H    0.122100
    73  H    0.126688
    74  H    0.116257
    75  H    0.114760
    76  H    0.150339
    77  H    0.131475
    78  H    0.102163
    79  H    0.156668
    80  H    0.120826
    81  H    0.085659
    82  H    0.094393
    83  H    0.073931
    84  H    0.129386
    85  H    0.115692
    86  H    0.103665
    87  H    0.118125
    88  H    0.145146
    89  H    0.143497
    90  H    0.156495
    91  H    0.115098
    92  H    0.104557
    93  H    0.067567
    94  H    0.157254
    95  H    0.090057
    96  H    0.108361
    97  H    0.086153
    98  H    0.095643
    99  H    0.089226
   100  H    0.093807
   101  H    0.094078
   102  H    0.072044
   103  H    0.087315
   104  H    0.099469
   105  H    0.105914
   106  H    0.100281
   107  H    0.079422
   108  H    0.096067
   109  H    0.113908
   110  H    0.105487
   111  H    0.084790
   112  H    0.091719
   113  H    0.068960
   114  H    0.078466
   115  H    0.111517
   116  H    0.092663
   117  H    0.078044
   118  H    0.037514
   119  H    0.099215
   120  H    0.090971
   121  H    0.070851
   122  H    0.096426
   123  H    0.077422
   124  H    0.090092
   125  H    0.087170
   126  H    0.117050
   127  H    0.105408
   128  H    0.101396
   129  H    0.099606
   130  H    0.143446
   131  H    0.148518
   132  H    0.148698
   133  O   -0.408841
   134  H    0.058586
 Sum of Mulliken charges =   0.00000

 Dipole moment (field-independent basis, Debye):
    X=              1.2284    Y=             -6.6656    Z=             -0.9256  Tot=              6.8408
 Quadrupole moment (field-independent basis, Debye-Ang):
   XX=           -383.0331   YY=           -424.5594   ZZ=           -395.3871
   XY=             10.6267   XZ=             21.7614   YZ=            -39.6104

 Normal termination of Gaussian 09 at Mon Oct  7 19:08:46 2019.
