 Gaussian 09, Revision D.01,
 Gaussian 09:  ES64L-G09RevD.01 24-Apr-2013

 ----------------------------------------------------------------------
 # td=(NStates=1) iop(3/107=0140000000,3/108=0140000000) iop(3/107=0140
 000000,3/108=0140000000) CAM-B3LYP/6-31G(d,p)
 ----------------------------------------------------------------------

 --
 TD
 --
 Symbolic Z-matrix:
 Charge =  0 Multiplicity = 1

                         Standard orientation:
 ---------------------------------------------------------------------
 Center     Atomic      Atomic             Coordinates (Angstroms)
 Number     Number       Type             X           Y           Z
 ---------------------------------------------------------------------
      1         12           0       -5.476679    1.350532    0.165132
      2          6           0       -4.901823   -2.162094   -0.390076
      3          6           0       -3.498589    1.133975    2.824816
      4          6           0       -6.137318    4.478020    0.671544
      5          6           0       -8.008722    1.320511   -2.413961
      6          7           0       -4.340989   -0.294089    1.004348
      7          6           0       -4.237632   -1.541346    0.686468
      8          6           0       -3.302802   -2.333921    1.598967
      9          6           0       -2.909152   -1.348564    2.672309
     10          6           0       -3.573499   -0.058512    2.172161
     11          6           0       -3.636563   -1.807180    3.978580
     12          6           0       -2.034924   -2.690701    0.730172
     13          6           0       -0.998753   -3.597179    1.406345
     14          6           0        0.178303   -3.914236    0.640292
     15          8           0        0.318000   -3.655736   -0.525425
     16          8           0        0.972003   -4.670157    1.377356
     17          7           0       -4.787669    2.590653    1.552196
     18          6           0       -3.950512    2.388965    2.591075
     19          6           0       -3.681302    3.591741    3.240734
     20          6           0       -4.423294    4.608816    2.528867
     21          6           0       -5.195570    3.925304    1.509206
     22          6           0       -2.639137    3.859612    4.329688
     23          6           0       -4.579810    6.001181    3.011044
     24          8           0       -4.008006    6.639974    3.833739
     25          7           0       -6.819559    2.626764   -0.702918
     26          6           0       -6.839951    3.893010   -0.356096
     27          6           0       -7.840395    4.590666   -1.131982
     28          6           0       -8.304903    3.730010   -2.013962
     29          6           0       -7.724214    2.415496   -1.716324
     30          6           0       -8.127324    6.003526   -1.176095
     31          6           0       -9.275492    3.969372   -3.177778
     32          6           0       -8.698281    4.090397   -4.532719
     33          7           0       -6.178209   -0.132223   -1.144041
     34          6           0       -7.285244    0.068831   -2.170558
     35          6           0       -7.496316   -1.226394   -2.733689
     36          6           0       -6.651309   -2.097020   -2.161579
     37          6           0       -5.784038   -1.358082   -1.212352
     38          6           0       -8.451097   -1.642700   -3.809116
     39          6           0       -6.248294   -3.525539   -2.034328
     40          8           0       -6.764658   -4.549846   -2.601344
     41          6           0       -5.062152   -3.540705   -0.907188
     42          6           0       -5.319039   -4.631881    0.065696
     43          8           0       -5.803787   -4.396328    1.191752
     44          8           0       -5.188131   -5.818294   -0.528542
     45          6           0       -5.328927   -6.940398    0.453926
     46          6           0        2.238179   -5.118602    0.747395
     47          6           0        3.328913   -4.134534    1.000963
     48          6           0        3.943176   -3.278311    0.124517
     49          6           0        3.639146   -3.144469   -1.359999
     50          6           0        5.071528   -2.326289    0.519968
     51          6           0        6.472327   -2.880892    0.044881
     52          6           0        7.612482   -1.995842    0.684804
     53          6           0        9.019760   -2.098276   -0.029090
     54          6           0        9.618162   -3.575510    0.014049
     55          6           0        9.913614   -0.968269    0.483555
     56          6           0       11.344983   -0.954230   -0.246135
     57          6           0       12.190694    0.287666    0.275098
     58          6           0       13.492423    0.442666   -0.538857
     59          6           0       14.446455   -0.637529   -0.287919
     60          6           0       14.093986    1.804279   -0.232586
     61          6           0       15.414223    2.211516   -0.992778
     62          6           0       15.898904    3.606124   -0.691446
     63          6           0       17.291192    3.937817   -1.432154
     64          6           0       17.059691    4.144704   -2.993204
     65          6           0       17.891364    5.222719   -0.779375
     66          1           0       -2.849713    0.868452    3.814711
     67          1           0       -6.319688    5.660991    0.561267
     68          1           0       -8.716430    1.174003   -3.236831
     69          1           0       -3.752548   -3.363530    1.963829
     70          1           0       -1.958974   -1.217230    2.820646
     71          1           0       -3.186670   -2.939558    4.328263
     72          1           0       -3.319410   -1.030207    4.599541
     73          1           0       -4.673702   -1.741214    3.907914
     74          1           0       -2.340470   -3.161657   -0.223039
     75          1           0       -1.472087   -1.651711    0.557035
     76          1           0       -0.740146   -3.277201    2.402905
     77          1           0       -1.484810   -4.537502    1.541055
     78          1           0       -1.554173    3.960087    3.999836
     79          1           0       -2.639721    5.069591    4.838900
     80          1           0       -2.798072    3.019275    5.083193
     81          1           0       -5.347087    6.659540    2.309668
     82          1           0       -9.903057    3.106797   -3.244541
     83          1           0       -9.957083    4.768118   -2.776975
     84          1           0       -9.536725    4.396527   -5.185088
     85          1           0       -8.184859    5.029047   -4.508141
     86          1           0       -8.150147    3.140327   -4.880306
     87          1           0       -8.477183   -1.033487   -4.807841
     88          1           0       -8.300491   -2.757356   -4.102897
     89          1           0       -9.577106   -1.500185   -3.499910
     90          1           0       -4.119753   -3.840940   -1.377029
     91          1           0        2.396883   -6.193967    1.038150
     92          1           0        2.121257   -5.081035   -0.167652
     93          1           0        3.497244   -4.136150    2.168499
     94          1           0        2.513590   -3.642236   -1.731452
     95          1           0        3.797075   -2.169266   -1.870059
     96          1           0        4.019817   -4.058481   -1.984366
     97          1           0        4.645797   -1.498699    0.205967
     98          1           0        4.983020   -2.515876    1.722378
     99          1           0        6.597366   -3.939250    0.477947
    100          1           0        6.638690   -2.792038   -1.095130
    101          1           0        7.122122   -1.261260    0.688438
    102          1           0        7.752887   -2.383807    1.762366
    103          1           0        8.738657   -1.656173   -1.103151
    104          1           0        8.794789   -4.230510   -0.221240
    105          1           0       10.438206   -3.757252   -0.854135
    106          1           0        9.810480   -3.582732    1.123246
    107          1           0        9.585047    0.197708    0.382772
    108          1           0       10.154451   -1.039135    1.652736
    109          1           0       12.035080   -1.726668   -0.084193
    110          1           0       11.181971   -0.923652   -1.354004
    111          1           0       11.700343    1.061088    0.258381
    112          1           0       12.370590    0.057495    1.420464
    113          1           0       13.343161    0.338264   -1.726277
    114          1           0       14.820398   -0.955794    0.881979
    115          1           0       14.140200   -1.772079   -0.583153
    116          1           0       15.647512   -0.741635   -0.674825
    117          1           0       13.556437    2.804026   -0.176596
    118          1           0       14.446123    1.876960    0.989691
    119          1           0       16.291160    1.477230   -0.571384
    120          1           0       15.307241    2.001138   -2.081229
    121          1           0       15.091174    4.308727   -0.886131
    122          1           0       16.232470    3.750300    0.274781
    123          1           0       18.126617    3.072932   -1.260318
    124          1           0       16.451308    4.893590   -3.241027
    125          1           0       17.981264    4.419759   -3.325948
    126          1           0       16.726505    3.093668   -3.494942
    127          1           0       18.125460    4.929279    0.249395
    128          1           0       18.683287    5.640431   -1.387826
    129          1           0       17.103827    5.899142   -0.646152
    130          1           0       -5.158845   -7.750584   -0.112793
    131          1           0       -6.326316   -6.742279    0.740652
    132          1           0       -4.635814   -6.999855    1.263960
    133          8           0       -7.808449    6.943667   -0.410659
    134          1           0       -8.697857    6.051037   -2.112319
 ---------------------------------------------------------------------

 SCF Done:  E(RCAM-B3LYP) =  -3043.29573760     A.U. after   16 cycles

 Excitation energies and oscillator strengths:

 Excited State   1:      Singlet-A      2.0046 eV  618.51 nm  f=0.2548  <S**2>=0.000
     243 -> 245        0.10254
     243 -> 246        0.23278
     244 -> 245        0.65195
 This state for optimization and/or second-order correction.
 Total Energy, E(TD-HF/TD-KS) =  -3043.22207093
 Copying the excited state density for this state as the 1-particle RhoCI density.

 The electronic state is 1-A.
 Alpha  occ. eigenvalues --  -46.81680 -19.23313 -19.21972 -19.18205 -19.17444
 Alpha  occ. eigenvalues --  -19.17075 -19.16886 -19.16281 -14.38955 -14.37492
 Alpha  occ. eigenvalues --  -14.36903 -14.36666 -10.34966 -10.33871 -10.32612
 Alpha  occ. eigenvalues --  -10.30828 -10.30516 -10.27616 -10.27364 -10.27353
 Alpha  occ. eigenvalues --  -10.26917 -10.26523 -10.26403 -10.26334 -10.26256
 Alpha  occ. eigenvalues --  -10.26050 -10.25546 -10.25438 -10.25127 -10.24893
 Alpha  occ. eigenvalues --  -10.24888 -10.24531 -10.24432 -10.24346 -10.24306
 Alpha  occ. eigenvalues --  -10.24061 -10.23994 -10.23911 -10.23817 -10.23812
 Alpha  occ. eigenvalues --  -10.23798 -10.23744 -10.23725 -10.23664 -10.23644
 Alpha  occ. eigenvalues --  -10.23574 -10.23260 -10.23246 -10.23013 -10.22976
 Alpha  occ. eigenvalues --  -10.22862 -10.22846 -10.22666 -10.22603 -10.22580
 Alpha  occ. eigenvalues --  -10.22562 -10.22408 -10.22393 -10.22290 -10.21445
 Alpha  occ. eigenvalues --  -10.20583 -10.20078 -10.19930 -10.19637 -10.19516
 Alpha  occ. eigenvalues --  -10.19250  -3.10260  -1.85201  -1.84756  -1.84641
 Alpha  occ. eigenvalues --   -1.13732  -1.13141  -1.08005  -1.05470  -1.04788
 Alpha  occ. eigenvalues --   -1.03567  -1.03521  -1.02023  -1.01188  -0.99981
 Alpha  occ. eigenvalues --   -0.98382  -0.87841  -0.87000  -0.86433  -0.85895
 Alpha  occ. eigenvalues --   -0.85529  -0.85116  -0.84805  -0.84111  -0.83651
 Alpha  occ. eigenvalues --   -0.82769  -0.82431  -0.82148  -0.81000  -0.80652
 Alpha  occ. eigenvalues --   -0.79611  -0.78453  -0.78284  -0.77529  -0.76528
 Alpha  occ. eigenvalues --   -0.74796  -0.74242  -0.73957  -0.73448  -0.71864
 Alpha  occ. eigenvalues --   -0.71489  -0.70914  -0.70227  -0.69952  -0.69774
 Alpha  occ. eigenvalues --   -0.69176  -0.69028  -0.68205  -0.67319  -0.66539
 Alpha  occ. eigenvalues --   -0.65612  -0.64917  -0.64199  -0.63228  -0.62265
 Alpha  occ. eigenvalues --   -0.62006  -0.61183  -0.60618  -0.59646  -0.58926
 Alpha  occ. eigenvalues --   -0.58274  -0.58023  -0.57890  -0.57087  -0.56909
 Alpha  occ. eigenvalues --   -0.56291  -0.56024  -0.55709  -0.54973  -0.54670
 Alpha  occ. eigenvalues --   -0.53994  -0.53480  -0.53232  -0.52862  -0.52475
 Alpha  occ. eigenvalues --   -0.52082  -0.51720  -0.51543  -0.51322  -0.50921
 Alpha  occ. eigenvalues --   -0.50243  -0.50141  -0.49564  -0.49562  -0.49053
 Alpha  occ. eigenvalues --   -0.48846  -0.48610  -0.48160  -0.48022  -0.47898
 Alpha  occ. eigenvalues --   -0.47676  -0.47615  -0.47458  -0.47077  -0.46823
 Alpha  occ. eigenvalues --   -0.46492  -0.46424  -0.46280  -0.46010  -0.45711
 Alpha  occ. eigenvalues --   -0.45485  -0.45315  -0.45065  -0.44973  -0.44803
 Alpha  occ. eigenvalues --   -0.44588  -0.44489  -0.44184  -0.44080  -0.43824
 Alpha  occ. eigenvalues --   -0.43453  -0.43321  -0.43235  -0.42863  -0.42648
 Alpha  occ. eigenvalues --   -0.42507  -0.42273  -0.42247  -0.42047  -0.41669
 Alpha  occ. eigenvalues --   -0.41542  -0.41321  -0.41243  -0.40941  -0.40788
 Alpha  occ. eigenvalues --   -0.40682  -0.40499  -0.40312  -0.40065  -0.39960
 Alpha  occ. eigenvalues --   -0.39694  -0.39289  -0.39241  -0.39190  -0.38996
 Alpha  occ. eigenvalues --   -0.38906  -0.38679  -0.38548  -0.38210  -0.37982
 Alpha  occ. eigenvalues --   -0.37594  -0.37505  -0.37189  -0.36899  -0.36736
 Alpha  occ. eigenvalues --   -0.36575  -0.36480  -0.36453  -0.36052  -0.35282
 Alpha  occ. eigenvalues --   -0.35248  -0.35143  -0.34715  -0.34652  -0.34459
 Alpha  occ. eigenvalues --   -0.34166  -0.33920  -0.33638  -0.33412  -0.33262
 Alpha  occ. eigenvalues --   -0.32589  -0.32318  -0.32284  -0.31985  -0.31487
 Alpha  occ. eigenvalues --   -0.31472  -0.30629  -0.30275  -0.30124  -0.29849
 Alpha  occ. eigenvalues --   -0.29781  -0.28353  -0.27877  -0.27696  -0.27646
 Alpha  occ. eigenvalues --   -0.26875  -0.26549  -0.23199  -0.22009
 Alpha virt. eigenvalues --   -0.09515  -0.06283  -0.01429  -0.01061   0.00330
 Alpha virt. eigenvalues --    0.02443   0.02543   0.03026   0.04318   0.04723
 Alpha virt. eigenvalues --    0.05173   0.05980   0.07639   0.08307   0.08958

 Mulliken charges:
               1
     1  Mg   0.828538
     2  C    0.116173
     3  C   -0.218778
     4  C   -0.173200
     5  C   -0.162591
     6  N   -0.623364
     7  C    0.361088
     8  C   -0.159700
     9  C   -0.124687
    10  C    0.304588
    11  C   -0.283937
    12  C   -0.172848
    13  C   -0.269918
    14  C    0.613484
    15  O   -0.473996
    16  O   -0.471629
    17  N   -0.759452
    18  C    0.384580
    19  C    0.038344
    20  C   -0.052957
    21  C    0.325618
    22  C   -0.378169
    23  C    0.249469
    24  O   -0.392248
    25  N   -0.726748
    26  C    0.337845
    27  C    0.009950
    28  C   -0.005054
    29  C    0.330974
    30  C    0.259208
    31  C   -0.258731
    32  C   -0.302792
    33  N   -0.706119
    34  C    0.198522
    35  C    0.049182
    36  C    0.038422
    37  C    0.282768
    38  C   -0.402613
    39  C    0.376743
    40  O   -0.483498
    41  C   -0.335480
    42  C    0.624731
    43  O   -0.500818
    44  O   -0.445561
    45  C   -0.091694
    46  C    0.029263
    47  C   -0.154238
    48  C    0.134831
    49  C   -0.386334
    50  C   -0.222254
    51  C   -0.189174
    52  C   -0.126305
    53  C   -0.068308
    54  C   -0.308536
    55  C   -0.159480
    56  C   -0.190105
    57  C   -0.147294
    58  C   -0.041271
    59  C   -0.287102
    60  C   -0.167426
    61  C   -0.161888
    62  C   -0.169702
    63  C   -0.062397
    64  C   -0.301946
    65  C   -0.322331
    66  H    0.072848
    67  H    0.148196
    68  H    0.111402
    69  H    0.120163
    70  H    0.110139
    71  H    0.082825
    72  H    0.104540
    73  H    0.139490
    74  H    0.110181
    75  H    0.091270
    76  H    0.128737
    77  H    0.138980
    78  H    0.133590
    79  H    0.134916
    80  H    0.110814
    81  H    0.034989
    82  H    0.115540
    83  H    0.115166
    84  H    0.117439
    85  H    0.121345
    86  H    0.115664
    87  H    0.111842
    88  H    0.151489
    89  H    0.114555
    90  H    0.157805
    91  H    0.115370
    92  H    0.114187
    93  H    0.073648
    94  H    0.116160
    95  H    0.121655
    96  H    0.120317
    97  H    0.118338
    98  H    0.083686
    99  H    0.099934
   100  H    0.094278
   101  H    0.097017
   102  H    0.069981
   103  H    0.062502
   104  H    0.119401
   105  H    0.106100
   106  H    0.114916
   107  H    0.078427
   108  H    0.064906
   109  H    0.109146
   110  H    0.081366
   111  H    0.093862
   112  H    0.081863
   113  H    0.084582
   114  H    0.065950
   115  H    0.086854
   116  H    0.083845
   117  H    0.087945
   118  H    0.049060
   119  H    0.070762
   120  H    0.089300
   121  H    0.087910
   122  H    0.097777
   123  H    0.064311
   124  H    0.112596
   125  H    0.105564
   126  H    0.079338
   127  H    0.103400
   128  H    0.101901
   129  H    0.111189
   130  H    0.135828
   131  H    0.156766
   132  H    0.131007
   133  O   -0.450359
   134  H    0.061845
 Sum of Mulliken charges =   0.00000

 Dipole moment (field-independent basis, Debye):
    X=              2.5806    Y=             -4.9143    Z=             -2.0153  Tot=              5.9052
 Quadrupole moment (field-independent basis, Debye-Ang):
   XX=           -393.8704   YY=           -434.6360   ZZ=           -396.5236
   XY=              9.1901   XZ=             25.0223   YZ=            -39.4672

 Normal termination of Gaussian 09 at Sat Oct  5 05:24:47 2019.
