 Gaussian 09, Revision D.01,
 Gaussian 09:  ES64L-G09RevD.01 24-Apr-2013

 ----------------------------------------------------------------------
 # td=(NStates=1) iop(3/107=0140000000,3/108=0140000000) iop(3/107=0140
 000000,3/108=0140000000) CAM-B3LYP/6-31G(d,p)
 ----------------------------------------------------------------------

 --
 TD
 --
 Symbolic Z-matrix:
 Charge =  0 Multiplicity = 1

                         Standard orientation:
 ---------------------------------------------------------------------
 Center     Atomic      Atomic             Coordinates (Angstroms)
 Number     Number       Type             X           Y           Z
 ---------------------------------------------------------------------
      1         12           0       -5.548550    1.235169    0.076005
      2          6           0       -4.980771   -2.108746   -0.396720
      3          6           0       -3.285013    1.184948    2.579454
      4          6           0       -6.313871    4.574170    0.601376
      5          6           0       -7.940122    1.089072   -2.424282
      6          7           0       -4.410472   -0.347526    0.984937
      7          6           0       -4.205186   -1.655000    0.612703
      8          6           0       -3.110762   -2.289416    1.466249
      9          6           0       -2.809650   -1.253476    2.582850
     10          6           0       -3.534395   -0.070494    2.065838
     11          6           0       -3.436077   -1.595428    3.997840
     12          6           0       -1.835523   -2.562120    0.674434
     13          6           0       -0.806226   -3.507117    1.421300
     14          6           0        0.367886   -3.881120    0.703550
     15          8           0        0.596151   -3.450580   -0.501503
     16          8           0        1.130002   -4.714232    1.465839
     17          7           0       -4.832554    2.645401    1.383499
     18          6           0       -3.969933    2.419237    2.345538
     19          6           0       -3.802560    3.642202    3.169048
     20          6           0       -4.591899    4.562332    2.557577
     21          6           0       -5.314733    3.904765    1.485514
     22          6           0       -2.861455    3.767809    4.279323
     23          6           0       -4.808270    5.956507    3.029979
     24          8           0       -4.199947    6.447381    3.964763
     25          7           0       -6.962419    2.614759   -0.687731
     26          6           0       -7.060194    3.977442   -0.311958
     27          6           0       -8.030608    4.560189   -1.275696
     28          6           0       -8.529490    3.469878   -2.031808
     29          6           0       -7.799498    2.341642   -1.835947
     30          6           0       -8.383757    5.975622   -1.160378
     31          6           0       -9.669543    3.698342   -3.019431
     32          6           0       -9.000282    3.876238   -4.469767
     33          7           0       -6.391490   -0.136599   -1.039888
     34          6           0       -7.341876   -0.078564   -1.991025
     35          6           0       -7.429859   -1.302562   -2.728177
     36          6           0       -6.668800   -2.176863   -1.965753
     37          6           0       -5.982204   -1.455874   -1.007326
     38          6           0       -8.558053   -1.611053   -3.831996
     39          6           0       -6.203152   -3.553555   -2.024267
     40          8           0       -6.561944   -4.533941   -2.643772
     41          6           0       -5.078191   -3.621937   -0.894333
     42          6           0       -5.217770   -4.609590    0.044894
     43          8           0       -5.687867   -4.425746    1.198291
     44          8           0       -4.970343   -5.840110   -0.443965
     45          6           0       -5.164334   -6.974630    0.457122
     46          6           0        2.378455   -5.065373    0.769230
     47          6           0        3.448495   -4.095251    1.111935
     48          6           0        4.086050   -3.226301    0.230978
     49          6           0        3.687912   -3.077078   -1.338813
     50          6           0        5.164382   -2.363071    0.742862
     51          6           0        6.547430   -2.714610    0.131949
     52          6           0        7.587237   -1.853066    0.681297
     53          6           0        8.974109   -1.969636   -0.084700
     54          6           0        9.514123   -3.456216    0.063568
     55          6           0        9.870005   -0.926111    0.537671
     56          6           0       11.320301   -0.925376   -0.170905
     57          6           0       12.187503    0.323306    0.197751
     58          6           0       13.588609    0.486911   -0.595214
     59          6           0       14.444545   -0.701783   -0.429674
     60          6           0       14.177195    1.748388   -0.213321
     61          6           0       15.497109    2.163612   -1.134032
     62          6           0       16.079269    3.564246   -0.699566
     63          6           0       17.333853    4.052541   -1.330432
     64          6           0       17.278916    4.152837   -2.948189
     65          6           0       17.875623    5.326380   -0.800940
     66          1           0       -2.497178    1.360563    3.261017
     67          1           0       -6.531804    5.528848    0.959093
     68          1           0       -8.641544    1.122111   -3.175433
     69          1           0       -3.381689   -3.359472    1.843860
     70          1           0       -1.754348   -0.972083    2.705720
     71          1           0       -3.052001   -2.441318    4.248562
     72          1           0       -3.279238   -0.688019    4.586407
     73          1           0       -4.539618   -1.801458    3.605341
     74          1           0       -2.008025   -3.307243    0.002640
     75          1           0       -1.403971   -1.725496    0.347013
     76          1           0       -0.633653   -2.869977    2.323016
     77          1           0       -1.378390   -4.417572    1.810439
     78          1           0       -1.864120    3.479795    3.907697
     79          1           0       -2.917890    4.756882    4.719311
     80          1           0       -3.132159    3.060181    4.902545
     81          1           0       -5.499211    6.712276    2.550708
     82          1           0      -10.499476    2.787145   -3.056283
     83          1           0      -10.098887    4.608067   -2.801507
     84          1           0       -9.892979    4.240830   -5.212187
     85          1           0       -8.213606    4.635633   -4.431813
     86          1           0       -8.577192    2.902412   -4.849957
     87          1           0       -7.990323   -0.876871   -4.776270
     88          1           0       -8.367229   -2.593526   -4.106170
     89          1           0       -9.618499   -1.345066   -3.644400
     90          1           0       -4.107033   -3.793714   -1.416220
     91          1           0        2.459794   -6.212492    1.130243
     92          1           0        2.251279   -5.280740   -0.403684
     93          1           0        3.632415   -4.164774    2.135303
     94          1           0        2.637144   -3.673121   -1.593836
     95          1           0        3.637102   -2.005221   -1.632870
     96          1           0        4.403874   -3.555415   -1.946616
     97          1           0        4.803173   -1.302976    0.690763
     98          1           0        5.387927   -2.394083    1.802708
     99          1           0        6.874076   -3.703517    0.548189
    100          1           0        6.514107   -2.768800   -0.974839
    101          1           0        7.268558   -0.714499    0.508294
    102          1           0        7.585910   -2.186310    1.681231
    103          1           0        8.840617   -1.844062   -1.133404
    104          1           0        8.745719   -4.434281   -0.255360
    105          1           0       10.286526   -3.734112   -0.498164
    106          1           0       10.090941   -3.631127    1.153347
    107          1           0        9.302476   -0.062345    0.478701
    108          1           0       10.124196   -1.248038    1.736360
    109          1           0       11.921810   -1.845830    0.049317
    110          1           0       11.239717   -0.853968   -1.278539
    111          1           0       11.644818    1.314517   -0.025342
    112          1           0       12.389332    0.174669    1.136958
    113          1           0       13.240987    0.740997   -1.535444
    114          1           0       14.874054   -0.655066    0.591100
    115          1           0       14.122567   -1.702200   -0.739028
    116          1           0       15.297847   -0.484544   -0.968298
    117          1           0       13.449014    2.637791   -0.342416
    118          1           0       14.522227    1.879296    0.777467
    119          1           0       16.546621    1.680126   -1.218136
    120          1           0       15.058508    2.105149   -2.071247
    121          1           0       15.182489    4.255349   -0.912641
    122          1           0       16.116134    3.571049    0.367875
    123          1           0       18.026160    3.178450   -1.001074
    124          1           0       16.493966    5.035361   -3.092658
    125          1           0       18.256791    4.405992   -3.455738
    126          1           0       16.889817    3.051471   -3.272644
    127          1           0       17.877776    5.148284    0.203536
    128          1           0       19.015135    5.627639   -1.134712
    129          1           0       17.324798    6.334558   -1.126725
    130          1           0       -4.848165   -7.987082    0.010580
    131          1           0       -6.212334   -6.760785    0.740218
    132          1           0       -4.585113   -6.962503    1.390298
    133          8           0       -7.950284    6.829632   -0.397846
    134          1           0       -9.005424    6.447555   -1.917512
 ---------------------------------------------------------------------

 SCF Done:  E(RCAM-B3LYP) =  -3043.40887822     A.U. after   16 cycles

 Excitation energies and oscillator strengths:

 Excited State   1:      Singlet-A      2.0051 eV  618.34 nm  f=0.1809  <S**2>=0.000
     243 -> 246       -0.27727
     244 -> 245        0.64237
 This state for optimization and/or second-order correction.
 Total Energy, E(TD-HF/TD-KS) =  -3043.33519195
 Copying the excited state density for this state as the 1-particle RhoCI density.

 The electronic state is 1-A.
 Alpha  occ. eigenvalues --  -46.81148 -19.23781 -19.22714 -19.18014 -19.17364
 Alpha  occ. eigenvalues --  -19.16653 -19.16309 -19.16186 -14.39283 -14.36988
 Alpha  occ. eigenvalues --  -14.36422 -14.36135 -10.35754 -10.34461 -10.32185
 Alpha  occ. eigenvalues --  -10.30290 -10.29554 -10.29106 -10.28178 -10.27759
 Alpha  occ. eigenvalues --  -10.27585 -10.26829 -10.26461 -10.25868 -10.25666
 Alpha  occ. eigenvalues --  -10.25606 -10.25508 -10.25495 -10.25325 -10.25221
 Alpha  occ. eigenvalues --  -10.24769 -10.24481 -10.24453 -10.24423 -10.24408
 Alpha  occ. eigenvalues --  -10.24270 -10.23809 -10.23702 -10.23697 -10.23672
 Alpha  occ. eigenvalues --  -10.23186 -10.23137 -10.22944 -10.22693 -10.22658
 Alpha  occ. eigenvalues --  -10.22561 -10.22539 -10.22525 -10.22499 -10.22452
 Alpha  occ. eigenvalues --  -10.22439 -10.22291 -10.21806 -10.21706 -10.21696
 Alpha  occ. eigenvalues --  -10.21521 -10.21494 -10.21404 -10.21277 -10.21253
 Alpha  occ. eigenvalues --  -10.21125 -10.20862 -10.20507 -10.20270 -10.19826
 Alpha  occ. eigenvalues --  -10.19464  -3.09752  -1.84689  -1.84193  -1.84186
 Alpha  occ. eigenvalues --   -1.12802  -1.12410  -1.07768  -1.06538  -1.05899
 Alpha  occ. eigenvalues --   -1.02563  -1.01942  -1.01474  -1.01197  -0.99164
 Alpha  occ. eigenvalues --   -0.96842  -0.89645  -0.86649  -0.86254  -0.85798
 Alpha  occ. eigenvalues --   -0.85571  -0.84871  -0.84177  -0.83955  -0.83606
 Alpha  occ. eigenvalues --   -0.83088  -0.82844  -0.82221  -0.81081  -0.80164
 Alpha  occ. eigenvalues --   -0.78836  -0.78255  -0.77506  -0.76639  -0.76416
 Alpha  occ. eigenvalues --   -0.75467  -0.75291  -0.74126  -0.73363  -0.72504
 Alpha  occ. eigenvalues --   -0.71556  -0.70896  -0.70382  -0.70376  -0.70198
 Alpha  occ. eigenvalues --   -0.69398  -0.69264  -0.67298  -0.66235  -0.66126
 Alpha  occ. eigenvalues --   -0.65655  -0.65105  -0.64743  -0.62756  -0.62547
 Alpha  occ. eigenvalues --   -0.62103  -0.61449  -0.60296  -0.59691  -0.59381
 Alpha  occ. eigenvalues --   -0.59000  -0.58716  -0.57865  -0.57279  -0.57175
 Alpha  occ. eigenvalues --   -0.56845  -0.56581  -0.56251  -0.55597  -0.54994
 Alpha  occ. eigenvalues --   -0.54615  -0.53955  -0.53629  -0.52622  -0.52438
 Alpha  occ. eigenvalues --   -0.51825  -0.51805  -0.51327  -0.51117  -0.50856
 Alpha  occ. eigenvalues --   -0.50703  -0.49773  -0.49620  -0.49277  -0.49160
 Alpha  occ. eigenvalues --   -0.48858  -0.48653  -0.48525  -0.48286  -0.47974
 Alpha  occ. eigenvalues --   -0.47655  -0.47433  -0.47372  -0.47313  -0.46733
 Alpha  occ. eigenvalues --   -0.46531  -0.46493  -0.46193  -0.46063  -0.45833
 Alpha  occ. eigenvalues --   -0.45701  -0.45657  -0.45370  -0.45154  -0.44865
 Alpha  occ. eigenvalues --   -0.44713  -0.44400  -0.44293  -0.44078  -0.43904
 Alpha  occ. eigenvalues --   -0.43883  -0.43752  -0.43659  -0.43163  -0.43045
 Alpha  occ. eigenvalues --   -0.42666  -0.42538  -0.42292  -0.41914  -0.41769
 Alpha  occ. eigenvalues --   -0.41304  -0.41183  -0.40813  -0.40774  -0.40675
 Alpha  occ. eigenvalues --   -0.40470  -0.40274  -0.39934  -0.39870  -0.39752
 Alpha  occ. eigenvalues --   -0.39659  -0.39278  -0.39183  -0.38997  -0.38856
 Alpha  occ. eigenvalues --   -0.38729  -0.38704  -0.38621  -0.38398  -0.38194
 Alpha  occ. eigenvalues --   -0.38086  -0.38023  -0.37783  -0.37659  -0.37554
 Alpha  occ. eigenvalues --   -0.37270  -0.36994  -0.36337  -0.36009  -0.35859
 Alpha  occ. eigenvalues --   -0.35548  -0.35484  -0.35283  -0.34816  -0.34764
 Alpha  occ. eigenvalues --   -0.34593  -0.34112  -0.33877  -0.33398  -0.33149
 Alpha  occ. eigenvalues --   -0.32710  -0.32422  -0.32298  -0.31736  -0.31695
 Alpha  occ. eigenvalues --   -0.31149  -0.30852  -0.30222  -0.30018  -0.29792
 Alpha  occ. eigenvalues --   -0.28876  -0.28329  -0.28300  -0.27326  -0.27142
 Alpha  occ. eigenvalues --   -0.26982  -0.26663  -0.23108  -0.21837
 Alpha virt. eigenvalues --   -0.08937  -0.06912  -0.02008  -0.00334   0.00658
 Alpha virt. eigenvalues --    0.01159   0.02260   0.02561   0.02830   0.04125
 Alpha virt. eigenvalues --    0.05155   0.06225   0.07770   0.07911   0.08950

 Mulliken charges:
               1
     1  Mg   0.827148
     2  C   -0.012200
     3  C   -0.184990
     4  C   -0.129380
     5  C   -0.146403
     6  N   -0.640837
     7  C    0.368198
     8  C   -0.176338
     9  C   -0.174714
    10  C    0.348579
    11  C   -0.272799
    12  C   -0.150339
    13  C   -0.298072
    14  C    0.637638
    15  O   -0.504213
    16  O   -0.453460
    17  N   -0.700724
    18  C    0.316414
    19  C    0.028952
    20  C   -0.043514
    21  C    0.271502
    22  C   -0.375830
    23  C    0.232916
    24  O   -0.415099
    25  N   -0.712975
    26  C    0.323532
    27  C   -0.035512
    28  C    0.020631
    29  C    0.305452
    30  C    0.232130
    31  C   -0.229288
    32  C   -0.310530
    33  N   -0.740310
    34  C    0.308315
    35  C   -0.007848
    36  C    0.004026
    37  C    0.356926
    38  C   -0.333990
    39  C    0.361995
    40  O   -0.442262
    41  C   -0.311529
    42  C    0.637533
    43  O   -0.519301
    44  O   -0.451316
    45  C   -0.086824
    46  C   -0.018489
    47  C   -0.111930
    48  C    0.128193
    49  C   -0.371472
    50  C   -0.228720
    51  C   -0.183426
    52  C   -0.155917
    53  C   -0.046416
    54  C   -0.306958
    55  C   -0.143086
    56  C   -0.200630
    57  C   -0.167240
    58  C   -0.045289
    59  C   -0.316991
    60  C   -0.196202
    61  C   -0.193183
    62  C   -0.167246
    63  C   -0.060388
    64  C   -0.291042
    65  C   -0.279974
    66  H    0.073561
    67  H    0.121967
    68  H    0.082332
    69  H    0.109580
    70  H    0.109666
    71  H    0.123007
    72  H    0.115880
    73  H    0.116654
    74  H    0.122808
    75  H    0.123158
    76  H    0.135358
    77  H    0.129382
    78  H    0.120768
    79  H    0.161672
    80  H    0.133053
    81  H    0.089082
    82  H    0.091170
    83  H    0.122434
    84  H    0.088687
    85  H    0.126180
    86  H    0.110934
    87  H    0.081534
    88  H    0.158131
    89  H    0.142229
    90  H    0.162503
    91  H    0.095193
    92  H    0.116285
    93  H    0.090768
    94  H    0.133661
    95  H    0.116821
    96  H    0.126173
    97  H    0.099696
    98  H    0.097411
    99  H    0.104781
   100  H    0.088671
   101  H    0.063305
   102  H    0.102619
   103  H    0.098979
   104  H    0.066668
   105  H    0.123134
   106  H    0.066982
   107  H    0.102414
   108  H    0.060907
   109  H    0.095303
   110  H    0.083409
   111  H    0.067590
   112  H    0.099911
   113  H    0.089326
   114  H    0.097935
   115  H    0.105947
   116  H    0.115815
   117  H    0.086974
   118  H    0.095104
   119  H    0.077487
   120  H    0.107146
   121  H    0.067750
   122  H    0.097185
   123  H    0.070722
   124  H    0.090692
   125  H    0.106593
   126  H    0.082944
   127  H    0.108010
   128  H    0.076764
   129  H    0.086202
   130  H    0.127210
   131  H    0.145010
   132  H    0.124632
   133  O   -0.431583
   134  H    0.054842
 Sum of Mulliken charges =   0.00000

 Dipole moment (field-independent basis, Debye):
    X=              3.8639    Y=             -4.9849    Z=             -1.0038  Tot=              6.3865
 Quadrupole moment (field-independent basis, Debye-Ang):
   XX=           -385.8335   YY=           -438.4974   ZZ=           -398.4704
   XY=              8.0464   XZ=             25.4424   YZ=            -30.9682

 Normal termination of Gaussian 09 at Sat Oct  5 08:29:15 2019.
