 Gaussian 09, Revision D.01,
 Gaussian 09:  ES64L-G09RevD.01 24-Apr-2013

 ----------------------------------------------------------------------
 # td=(NStates=1) iop(3/107=0140000000,3/108=0140000000) iop(3/107=0140
 000000,3/108=0140000000) CAM-B3LYP/6-31G(d,p)
 ----------------------------------------------------------------------

 --
 TD
 --
 Symbolic Z-matrix:
 Charge =  0 Multiplicity = 1

                         Standard orientation:
 ---------------------------------------------------------------------
 Center     Atomic      Atomic             Coordinates (Angstroms)
 Number     Number       Type             X           Y           Z
 ---------------------------------------------------------------------
      1         12           0       -5.633638    1.230300    0.193331
      2          6           0       -4.979930   -2.093507   -0.362173
      3          6           0       -3.308994    1.228840    2.775987
      4          6           0       -6.244056    4.596802    0.575211
      5          6           0       -7.996471    1.189063   -2.395253
      6          7           0       -4.316922   -0.294711    1.180822
      7          6           0       -4.213370   -1.611159    0.681263
      8          6           0       -3.131309   -2.353403    1.415858
      9          6           0       -2.879632   -1.365846    2.656039
     10          6           0       -3.519664   -0.089231    2.227238
     11          6           0       -3.687392   -1.718396    4.029530
     12          6           0       -1.926946   -2.619290    0.570414
     13          6           0       -1.011164   -3.655166    1.373622
     14          6           0        0.243300   -3.986498    0.574089
     15          8           0        0.485527   -3.639814   -0.576514
     16          8           0        1.082701   -4.853476    1.369436
     17          7           0       -5.024381    2.572369    1.441506
     18          6           0       -4.020755    2.429835    2.534630
     19          6           0       -3.747782    3.721826    3.205683
     20          6           0       -4.550069    4.696870    2.514529
     21          6           0       -5.281866    3.979707    1.514323
     22          6           0       -2.747483    3.939118    4.298690
     23          6           0       -4.639082    6.122786    2.979775
     24          8           0       -3.970837    6.602865    3.838409
     25          7           0       -6.873186    2.589812   -0.705064
     26          6           0       -6.941412    3.974367   -0.403743
     27          6           0       -7.892125    4.624169   -1.245541
     28          6           0       -8.504254    3.666841   -2.053930
     29          6           0       -7.781161    2.450473   -1.675806
     30          6           0       -8.270788    6.066863   -1.095658
     31          6           0       -9.403393    3.807152   -3.193314
     32          6           0       -8.857814    4.000965   -4.631926
     33          7           0       -6.319348   -0.204210   -1.243605
     34          6           0       -7.322847   -0.028669   -2.086830
     35          6           0       -7.529764   -1.383996   -2.800553
     36          6           0       -6.679335   -2.236582   -2.161658
     37          6           0       -5.984824   -1.410001   -1.159310
     38          6           0       -8.460949   -1.702542   -3.866376
     39          6           0       -6.139502   -3.559145   -2.066814
     40          8           0       -6.416141   -4.597685   -2.663238
     41          6           0       -5.023585   -3.526566   -0.956879
     42          6           0       -5.368632   -4.602208    0.069333
     43          8           0       -5.729840   -4.360104    1.180199
     44          8           0       -5.108233   -5.814859   -0.315670
     45          6           0       -5.352837   -6.868182    0.501331
     46          6           0        2.313235   -5.287049    0.722644
     47          6           0        3.452163   -4.193921    1.030607
     48          6           0        4.051366   -3.434510    0.155590
     49          6           0        3.724705   -3.247350   -1.408524
     50          6           0        5.065302   -2.425745    0.707767
     51          6           0        6.558492   -2.795403    0.219382
     52          6           0        7.659193   -1.758336    0.768226
     53          6           0        8.988751   -1.888247    0.057270
     54          6           0        9.636688   -3.341770    0.490789
     55          6           0        9.988411   -0.773970    0.521622
     56          6           0       11.309052   -0.829796   -0.234543
     57          6           0       12.179388    0.384393    0.130350
     58          6           0       13.519362    0.530885   -0.644916
     59          6           0       14.411621   -0.705445   -0.510275
     60          6           0       14.171482    1.919281   -0.203613
     61          6           0       15.463494    2.188460   -1.143162
     62          6           0       16.116655    3.430360   -0.713519
     63          6           0       17.362838    3.857157   -1.467075
     64          6           0       17.203378    3.935181   -2.916271
     65          6           0       17.825298    5.292433   -0.864476
     66          1           0       -2.698304    1.278583    3.587218
     67          1           0       -6.365085    5.648934    0.563235
     68          1           0       -8.657485    1.031453   -3.271321
     69          1           0       -3.576795   -3.410953    1.785859
     70          1           0       -1.788240   -1.227402    2.975167
     71          1           0       -3.245305   -2.793821    4.499910
     72          1           0       -3.385560   -1.003659    4.703298
     73          1           0       -4.741301   -1.994417    3.963942
     74          1           0       -2.268871   -3.162037   -0.281567
     75          1           0       -1.357722   -1.762531    0.360948
     76          1           0       -0.677745   -3.046082    2.379749
     77          1           0       -1.839230   -4.521156    1.625094
     78          1           0       -1.814908    3.700725    3.849624
     79          1           0       -2.798104    5.039046    4.439001
     80          1           0       -3.041778    3.407674    5.250869
     81          1           0       -5.214097    6.835918    2.268719
     82          1           0       -9.959781    2.968335   -3.110789
     83          1           0      -10.118864    4.720497   -2.927809
     84          1           0       -9.591711    4.088145   -5.173689
     85          1           0       -8.171414    4.806811   -4.704493
     86          1           0       -8.304216    3.053572   -4.855287
     87          1           0       -8.529713   -0.867599   -4.903851
     88          1           0       -8.138526   -2.514510   -4.259710
     89          1           0       -9.477866   -1.777574   -3.499363
     90          1           0       -4.187589   -3.919743   -1.467230
     91          1           0        2.648307   -6.171808    1.353088
     92          1           0        2.184040   -5.210308   -0.329630
     93          1           0        3.518723   -4.164709    2.184027
     94          1           0        2.820537   -3.826341   -1.603093
     95          1           0        4.155631   -2.228995   -1.579005
     96          1           0        4.419761   -3.856975   -1.965964
     97          1           0        4.837306   -1.423998    0.444910
     98          1           0        4.978010   -2.443018    1.873668
     99          1           0        6.763521   -3.803324    0.579190
    100          1           0        6.558180   -2.862576   -0.833123
    101          1           0        7.263779   -0.796366    0.419596
    102          1           0        7.638526   -2.018527    1.816955
    103          1           0        8.663462   -1.986951   -1.024267
    104          1           0        9.062043   -4.126783    0.197341
    105          1           0       10.658068   -3.373683    0.274528
    106          1           0        9.692128   -3.333401    1.599813
    107          1           0        9.574665    0.329435    0.418578
    108          1           0       10.112689   -0.625195    1.614943
    109          1           0       11.826739   -1.671766    0.187510
    110          1           0       11.122607   -0.708250   -1.292910
    111          1           0       11.661475    1.498100   -0.012674
    112          1           0       12.417922    0.360931    1.249481
    113          1           0       13.174697    0.816347   -1.574801
    114          1           0       14.553520   -1.083410    0.675995
    115          1           0       13.972640   -1.512547   -1.068725
    116          1           0       15.423243   -0.470310   -0.997686
    117          1           0       13.612394    2.941357   -0.224433
    118          1           0       14.490107    1.712617    0.775128
    119          1           0       16.119228    1.180434   -1.186607
    120          1           0       14.975175    2.488527   -2.286366
    121          1           0       15.352203    4.143916   -0.953624
    122          1           0       16.233174    3.467324    0.403299
    123          1           0       18.028891    3.104769   -1.290158
    124          1           0       16.493948    4.699034   -3.130717
    125          1           0       18.094693    3.928308   -3.327317
    126          1           0       16.786221    2.973344   -3.342753
    127          1           0       17.868945    5.083760    0.371527
    128          1           0       18.831183    5.674417   -1.270605
    129          1           0       16.859218    5.916948   -0.973195
    130          1           0       -5.086556   -7.801043    0.010378
    131          1           0       -6.440192   -6.811740    0.859465
    132          1           0       -4.655571   -6.730042    1.281210
    133          8           0       -7.855379    6.797455   -0.271778
    134          1           0       -8.946855    6.411445   -1.880743
 ---------------------------------------------------------------------

 SCF Done:  E(RCAM-B3LYP) =  -3043.45274386     A.U. after   16 cycles

 Excitation energies and oscillator strengths:

 Excited State   1:      Singlet-A      1.9008 eV  652.29 nm  f=0.2233  <S**2>=0.000
     243 -> 246        0.21386
     244 -> 245        0.66212
 This state for optimization and/or second-order correction.
 Total Energy, E(TD-HF/TD-KS) =  -3043.38289225
 Copying the excited state density for this state as the 1-particle RhoCI density.

 The electronic state is 1-A.
 Alpha  occ. eigenvalues --  -46.82082 -19.22499 -19.21607 -19.19075 -19.17902
 Alpha  occ. eigenvalues --  -19.17728 -19.16977 -19.16393 -14.38698 -14.36957
 Alpha  occ. eigenvalues --  -14.36929 -14.36872 -10.36334 -10.34554 -10.31415
 Alpha  occ. eigenvalues --  -10.31021 -10.30513 -10.27574 -10.27526 -10.27444
 Alpha  occ. eigenvalues --  -10.27129 -10.27048 -10.26929 -10.26695 -10.26690
 Alpha  occ. eigenvalues --  -10.26677 -10.26017 -10.25693 -10.25583 -10.25215
 Alpha  occ. eigenvalues --  -10.25089 -10.25012 -10.24778 -10.24609 -10.24587
 Alpha  occ. eigenvalues --  -10.24133 -10.23392 -10.23392 -10.23299 -10.23205
 Alpha  occ. eigenvalues --  -10.22831 -10.22821 -10.22674 -10.22628 -10.22613
 Alpha  occ. eigenvalues --  -10.22545 -10.22517 -10.22417 -10.22358 -10.22354
 Alpha  occ. eigenvalues --  -10.21892 -10.21750 -10.21635 -10.21588 -10.21248
 Alpha  occ. eigenvalues --  -10.21234 -10.21174 -10.21055 -10.20906 -10.20707
 Alpha  occ. eigenvalues --  -10.20562 -10.20508 -10.20068 -10.19659 -10.19144
 Alpha  occ. eigenvalues --  -10.18146  -3.10566  -1.85497  -1.85034  -1.84983
 Alpha  occ. eigenvalues --   -1.16990  -1.10920  -1.09925  -1.08910  -1.06404
 Alpha  occ. eigenvalues --   -1.06138  -1.04237  -1.03266  -0.99482  -0.99317
 Alpha  occ. eigenvalues --   -0.95069  -0.88163  -0.85568  -0.85440  -0.85253
 Alpha  occ. eigenvalues --   -0.84892  -0.84591  -0.83879  -0.83608  -0.82605
 Alpha  occ. eigenvalues --   -0.82488  -0.82051  -0.80811  -0.79940  -0.79357
 Alpha  occ. eigenvalues --   -0.79061  -0.78196  -0.77675  -0.77027  -0.76073
 Alpha  occ. eigenvalues --   -0.75202  -0.74504  -0.73605  -0.73187  -0.72268
 Alpha  occ. eigenvalues --   -0.71147  -0.70696  -0.70304  -0.69809  -0.69256
 Alpha  occ. eigenvalues --   -0.68684  -0.68171  -0.67263  -0.66891  -0.66139
 Alpha  occ. eigenvalues --   -0.65440  -0.64551  -0.64002  -0.61858  -0.61437
 Alpha  occ. eigenvalues --   -0.61123  -0.61030  -0.59832  -0.59547  -0.58802
 Alpha  occ. eigenvalues --   -0.58241  -0.58151  -0.58095  -0.57494  -0.56438
 Alpha  occ. eigenvalues --   -0.56330  -0.55758  -0.55261  -0.55056  -0.54793
 Alpha  occ. eigenvalues --   -0.54346  -0.53537  -0.53087  -0.52110  -0.52056
 Alpha  occ. eigenvalues --   -0.51945  -0.51810  -0.51439  -0.50789  -0.50698
 Alpha  occ. eigenvalues --   -0.50032  -0.49970  -0.49701  -0.49243  -0.49171
 Alpha  occ. eigenvalues --   -0.48919  -0.48821  -0.48593  -0.48101  -0.48032
 Alpha  occ. eigenvalues --   -0.47685  -0.47498  -0.47369  -0.47118  -0.47063
 Alpha  occ. eigenvalues --   -0.46911  -0.46421  -0.46319  -0.45975  -0.45923
 Alpha  occ. eigenvalues --   -0.45672  -0.45494  -0.45428  -0.45213  -0.45209
 Alpha  occ. eigenvalues --   -0.44676  -0.44599  -0.44156  -0.43908  -0.43820
 Alpha  occ. eigenvalues --   -0.43376  -0.43294  -0.43149  -0.42918  -0.42569
 Alpha  occ. eigenvalues --   -0.42357  -0.42340  -0.42130  -0.41846  -0.41748
 Alpha  occ. eigenvalues --   -0.41576  -0.41480  -0.41286  -0.41105  -0.40940
 Alpha  occ. eigenvalues --   -0.40789  -0.40710  -0.40496  -0.40333  -0.40071
 Alpha  occ. eigenvalues --   -0.39672  -0.39585  -0.39345  -0.39241  -0.39113
 Alpha  occ. eigenvalues --   -0.38934  -0.38705  -0.38530  -0.38378  -0.38109
 Alpha  occ. eigenvalues --   -0.37911  -0.37475  -0.37254  -0.37206  -0.36862
 Alpha  occ. eigenvalues --   -0.36783  -0.36453  -0.36402  -0.36229  -0.35975
 Alpha  occ. eigenvalues --   -0.35172  -0.34933  -0.34920  -0.34462  -0.34437
 Alpha  occ. eigenvalues --   -0.33918  -0.33865  -0.33593  -0.33323  -0.33223
 Alpha  occ. eigenvalues --   -0.32848  -0.32152  -0.32032  -0.31884  -0.31586
 Alpha  occ. eigenvalues --   -0.30733  -0.30444  -0.30178  -0.29803  -0.29534
 Alpha  occ. eigenvalues --   -0.29172  -0.28563  -0.28234  -0.27923  -0.27723
 Alpha  occ. eigenvalues --   -0.27223  -0.27203  -0.23145  -0.20387
 Alpha virt. eigenvalues --   -0.08354  -0.06289  -0.01885  -0.00492   0.00686
 Alpha virt. eigenvalues --    0.01168   0.03809   0.03947   0.04567   0.04776
 Alpha virt. eigenvalues --    0.05472   0.05649   0.07326   0.07809   0.09520

 Mulliken charges:
               1
     1  Mg   0.846663
     2  C    0.109084
     3  C   -0.184560
     4  C   -0.187573
     5  C   -0.169794
     6  N   -0.614688
     7  C    0.289596
     8  C   -0.157706
     9  C   -0.175033
    10  C    0.357964
    11  C   -0.304403
    12  C   -0.152239
    13  C   -0.257027
    14  C    0.613400
    15  O   -0.447621
    16  O   -0.486607
    17  N   -0.712098
    18  C    0.274351
    19  C    0.026588
    20  C   -0.025638
    21  C    0.273855
    22  C   -0.393905
    23  C    0.256288
    24  O   -0.386944
    25  N   -0.689037
    26  C    0.308301
    27  C   -0.051990
    28  C    0.033972
    29  C    0.289447
    30  C    0.269118
    31  C   -0.253409
    32  C   -0.284480
    33  N   -0.673837
    34  C    0.258040
    35  C   -0.021745
    36  C    0.104386
    37  C    0.260396
    38  C   -0.360748
    39  C    0.328165
    40  O   -0.466704
    41  C   -0.336050
    42  C    0.596214
    43  O   -0.471510
    44  O   -0.389824
    45  C   -0.083745
    46  C    0.005929
    47  C   -0.156840
    48  C    0.130793
    49  C   -0.366297
    50  C   -0.240003
    51  C   -0.206681
    52  C   -0.158358
    53  C   -0.051601
    54  C   -0.331594
    55  C   -0.180017
    56  C   -0.158830
    57  C   -0.181737
    58  C   -0.046079
    59  C   -0.307291
    60  C   -0.184373
    61  C   -0.165761
    62  C   -0.151861
    63  C   -0.057497
    64  C   -0.293013
    65  C   -0.295502
    66  H    0.070011
    67  H    0.123866
    68  H    0.094379
    69  H    0.112635
    70  H    0.100100
    71  H    0.068753
    72  H    0.129207
    73  H    0.145947
    74  H    0.125075
    75  H    0.127534
    76  H    0.121345
    77  H    0.123377
    78  H    0.132934
    79  H    0.165997
    80  H    0.123483
    81  H    0.071880
    82  H    0.121687
    83  H    0.087113
    84  H    0.127262
    85  H    0.120571
    86  H    0.101800
    87  H    0.068894
    88  H    0.153837
    89  H    0.144378
    90  H    0.160138
    91  H    0.119565
    92  H    0.115018
    93  H    0.081432
    94  H    0.146270
    95  H    0.123563
    96  H    0.120813
    97  H    0.101916
    98  H    0.081419
    99  H    0.101489
   100  H    0.091265
   101  H    0.090001
   102  H    0.099276
   103  H    0.080696
   104  H    0.112037
   105  H    0.104288
   106  H    0.092522
   107  H    0.065333
   108  H    0.094997
   109  H    0.110934
   110  H    0.101615
   111  H    0.053681
   112  H    0.070034
   113  H    0.099905
   114  H    0.077460
   115  H    0.121778
   116  H    0.097222
   117  H    0.084702
   118  H    0.099960
   119  H    0.069180
   120  H    0.053283
   121  H    0.085496
   122  H    0.082543
   123  H    0.089366
   124  H    0.098338
   125  H    0.109104
   126  H    0.088999
   127  H    0.068789
   128  H    0.101448
   129  H    0.099391
   130  H    0.127100
   131  H    0.122218
   132  H    0.115909
   133  O   -0.392154
   134  H    0.059296
 Sum of Mulliken charges =   0.00000

 Dipole moment (field-independent basis, Debye):
    X=              0.9172    Y=             -3.7309    Z=             -1.8583  Tot=              4.2678
 Quadrupole moment (field-independent basis, Debye-Ang):
   XX=           -372.6521   YY=           -432.1731   ZZ=           -394.0045
   XY=             -2.0950   XZ=             22.9132   YZ=            -34.6095

 Normal termination of Gaussian 09 at Sat Oct  5 03:13:05 2019.
