 Gaussian 09, Revision D.01,
 Gaussian 09:  ES64L-G09RevD.01 24-Apr-2013

 ----------------------------------------------------------------------
 # td=(NStates=1) iop(3/107=0140000000,3/108=0140000000) iop(3/107=0140
 000000,3/108=0140000000) CAM-B3LYP/6-31G(d,p)
 ----------------------------------------------------------------------

 --
 TD
 --
 Symbolic Z-matrix:
 Charge =  0 Multiplicity = 1

                         Standard orientation:
 ---------------------------------------------------------------------
 Center     Atomic      Atomic             Coordinates (Angstroms)
 Number     Number       Type             X           Y           Z
 ---------------------------------------------------------------------
      1         12           0       -5.567271    1.216789    0.231190
      2          6           0       -5.005152   -2.158245   -0.287832
      3          6           0       -3.473933    1.182998    2.733476
      4          6           0       -6.358317    4.627462    0.655124
      5          6           0       -7.960900    1.183239   -2.434145
      6          7           0       -4.428679   -0.293087    1.097667
      7          6           0       -4.237259   -1.587728    0.674648
      8          6           0       -3.205011   -2.298324    1.535972
      9          6           0       -2.956389   -1.301048    2.620469
     10          6           0       -3.577224   -0.019011    2.136318
     11          6           0       -3.529991   -1.778342    4.064928
     12          6           0       -2.023058   -2.660119    0.672304
     13          6           0       -0.988031   -3.609582    1.415400
     14          6           0        0.301821   -3.781210    0.621925
     15          8           0        0.436728   -3.391756   -0.459256
     16          8           0        1.078889   -4.644251    1.309784
     17          7           0       -5.016245    2.637837    1.454637
     18          6           0       -4.083832    2.450191    2.451045
     19          6           0       -3.785575    3.678193    3.068459
     20          6           0       -4.544216    4.681016    2.475195
     21          6           0       -5.361269    3.999214    1.420845
     22          6           0       -2.736647    3.781649    4.154138
     23          6           0       -4.633403    6.127610    2.811949
     24          8           0       -3.871802    6.693622    3.641322
     25          7           0       -6.779854    2.601541   -0.774833
     26          6           0       -6.989455    3.946491   -0.397605
     27          6           0       -8.055743    4.489473   -1.165203
     28          6           0       -8.573729    3.529516   -1.990925
     29          6           0       -7.706275    2.371572   -1.776342
     30          6           0       -8.432132    6.003055   -1.093947
     31          6           0       -9.507199    3.659615   -3.060053
     32          6           0       -8.931862    3.847395   -4.380575
     33          7           0       -6.286836   -0.136455   -1.131972
     34          6           0       -7.332418   -0.118623   -2.078869
     35          6           0       -7.483493   -1.348089   -2.742323
     36          6           0       -6.719017   -2.242432   -2.025096
     37          6           0       -5.956164   -1.434462   -1.096175
     38          6           0       -8.388640   -1.727973   -3.722714
     39          6           0       -6.189492   -3.578495   -1.979967
     40          8           0       -6.459893   -4.536286   -2.707980
     41          6           0       -5.050483   -3.501873   -0.938315
     42          6           0       -5.246652   -4.584794    0.249132
     43          8           0       -5.613929   -4.467809    1.340634
     44          8           0       -4.907800   -5.814798   -0.385361
     45          6           0       -5.130278   -7.004313    0.587596
     46          6           0        2.343338   -5.023920    0.534476
     47          6           0        3.388567   -4.115172    1.031751
     48          6           0        4.008835   -3.256311    0.189253
     49          6           0        3.682816   -3.134201   -1.361640
     50          6           0        5.248979   -2.409611    0.655174
     51          6           0        6.634853   -2.675059    0.052089
     52          6           0        7.672655   -1.744878    0.627636
     53          6           0        9.075843   -2.015499   -0.090386
     54          6           0        9.675062   -3.423917    0.319185
     55          6           0        9.992626   -0.911940    0.417338
     56          6           0       11.316366   -0.869684   -0.325022
     57          6           0       12.198027    0.323787    0.056117
     58          6           0       13.540008    0.510571   -0.583819
     59          6           0       14.494223   -0.755090   -0.214834
     60          6           0       14.312725    1.726562   -0.201213
     61          6           0       15.472599    2.279752   -1.057953
     62          6           0       15.908489    3.555068   -0.585538
     63          6           0       17.263091    3.968762   -1.244776
     64          6           0       17.188508    4.038570   -2.859089
     65          6           0       17.730676    5.323622   -0.807985
     66          1           0       -2.895735    1.152588    3.608082
     67          1           0       -6.666108    5.713215    0.649893
     68          1           0       -8.847321    1.280422   -3.029492
     69          1           0       -3.653927   -3.248272    1.779176
     70          1           0       -1.956127   -1.407428    2.742438
     71          1           0       -3.184104   -2.794593    4.205615
     72          1           0       -3.208340   -1.058908    4.712426
     73          1           0       -4.672993   -1.712314    3.908124
     74          1           0       -2.388799   -3.267955   -0.206576
     75          1           0       -1.531597   -1.788830    0.388741
     76          1           0       -0.708038   -3.311772    2.466671
     77          1           0       -1.617536   -4.488348    1.536284
     78          1           0       -1.856469    3.426580    3.633177
     79          1           0       -2.884688    4.817173    4.477225
     80          1           0       -3.194750    3.330971    4.946776
     81          1           0       -5.315575    6.693675    2.373458
     82          1           0      -10.142719    2.679379   -3.177154
     83          1           0      -10.143140    4.419430   -2.903683
     84          1           0       -9.499866    3.708894   -5.302062
     85          1           0       -8.160196    4.691608   -4.473526
     86          1           0       -8.371095    2.945605   -4.482842
     87          1           0       -8.276931   -0.945794   -4.415744
     88          1           0       -8.258491   -2.804774   -4.071808
     89          1           0       -9.555768   -1.774304   -3.767628
     90          1           0       -4.051146   -3.881094   -1.308024
     91          1           0        2.402042   -6.030014    0.959142
     92          1           0        2.217229   -4.950867   -0.543032
     93          1           0        3.806615   -4.418562    2.025537
     94          1           0        2.750467   -3.588657   -1.682566
     95          1           0        3.724277   -2.119240   -1.831934
     96          1           0        4.335195   -3.788156   -1.986236
     97          1           0        5.043681   -1.375534    0.237139
     98          1           0        5.169377   -2.535589    1.561540
     99          1           0        7.237321   -3.682063    0.210753
    100          1           0        6.662824   -2.726030   -1.057184
    101          1           0        7.445797   -0.721902    0.326719
    102          1           0        7.877846   -1.871685    1.733732
    103          1           0        8.941870   -1.947075   -1.247143
    104          1           0        8.890837   -4.306049    0.112399
    105          1           0       10.513732   -3.361417   -0.278801
    106          1           0        9.753464   -3.807557    1.308567
    107          1           0        9.567540    0.086263    0.619529
    108          1           0       10.204995   -1.222963    1.478107
    109          1           0       11.928614   -1.722926   -0.372829
    110          1           0       11.085589   -0.717586   -1.546330
    111          1           0       11.585780    1.144768   -0.019106
    112          1           0       12.336940    0.125333    1.198352
    113          1           0       13.443127    0.410489   -1.800956
    114          1           0       14.567249   -0.931254    0.944565
    115          1           0       14.295499   -1.695033   -0.732931
    116          1           0       15.505800   -0.598663   -0.529708
    117          1           0       13.632835    2.530790   -0.205484
    118          1           0       14.464233    1.470143    1.001080
    119          1           0       16.187152    1.498282   -1.047025
    120          1           0       15.087298    2.147634   -2.113915
    121          1           0       15.260079    4.331310   -0.719989
    122          1           0       16.089945    3.631890    0.591761
    123          1           0       17.966053    3.195128   -1.013496
    124          1           0       16.316631    4.560769   -3.170059
    125          1           0       18.091135    4.468098   -3.493283
    126          1           0       16.990512    3.046501   -3.478033
    127          1           0       17.930710    5.531029    0.367117
    128          1           0       18.729704    5.694838   -1.285680
    129          1           0       16.957988    6.165333   -1.059784
    130          1           0       -5.172785   -7.994806   -0.111580
    131          1           0       -6.196203   -6.907464    1.073640
    132          1           0       -4.327917   -6.678944    1.179223
    133          8           0       -7.947598    6.860914   -0.467014
    134          1           0       -9.369051    6.126229   -1.738809
 ---------------------------------------------------------------------

 SCF Done:  E(RCAM-B3LYP) =  -3043.46183740     A.U. after   16 cycles

 Excitation energies and oscillator strengths:

 Excited State   1:      Singlet-A      1.9776 eV  626.95 nm  f=0.2340  <S**2>=0.000
     243 -> 246       -0.23900
     244 -> 245        0.65097
 This state for optimization and/or second-order correction.
 Total Energy, E(TD-HF/TD-KS) =  -3043.38916319
 Copying the excited state density for this state as the 1-particle RhoCI density.

 The electronic state is 1-A.
 Alpha  occ. eigenvalues --  -46.80427 -19.21169 -19.20794 -19.19693 -19.19191
 Alpha  occ. eigenvalues --  -19.17139 -19.16662 -19.16197 -14.38360 -14.36884
 Alpha  occ. eigenvalues --  -14.36682 -14.36422 -10.35050 -10.33869 -10.32244
 Alpha  occ. eigenvalues --  -10.30714 -10.29520 -10.28679 -10.27195 -10.27094
 Alpha  occ. eigenvalues --  -10.27039 -10.26610 -10.26515 -10.26463 -10.25850
 Alpha  occ. eigenvalues --  -10.25741 -10.25278 -10.25137 -10.24634 -10.24579
 Alpha  occ. eigenvalues --  -10.24049 -10.24011 -10.23887 -10.23632 -10.23262
 Alpha  occ. eigenvalues --  -10.23132 -10.23054 -10.23050 -10.23030 -10.23011
 Alpha  occ. eigenvalues --  -10.22866 -10.22794 -10.22510 -10.22414 -10.22328
 Alpha  occ. eigenvalues --  -10.22280 -10.22257 -10.22244 -10.22059 -10.21908
 Alpha  occ. eigenvalues --  -10.21902 -10.21889 -10.21677 -10.21634 -10.21482
 Alpha  occ. eigenvalues --  -10.21293 -10.21227 -10.21213 -10.21079 -10.20983
 Alpha  occ. eigenvalues --  -10.20975 -10.20842 -10.20754 -10.20625 -10.20503
 Alpha  occ. eigenvalues --  -10.20387  -3.09176  -1.84106  -1.83629  -1.83615
 Alpha  occ. eigenvalues --   -1.13730  -1.13669  -1.11662  -1.05538  -1.05302
 Alpha  occ. eigenvalues --   -1.04153  -1.03672  -1.00305  -0.99315  -0.98849
 Alpha  occ. eigenvalues --   -0.97917  -0.88253  -0.87196  -0.86103  -0.85985
 Alpha  occ. eigenvalues --   -0.85606  -0.85305  -0.84677  -0.84418  -0.83367
 Alpha  occ. eigenvalues --   -0.83131  -0.82945  -0.81100  -0.80493  -0.79436
 Alpha  occ. eigenvalues --   -0.79075  -0.78525  -0.77709  -0.76412  -0.75541
 Alpha  occ. eigenvalues --   -0.75400  -0.75074  -0.73851  -0.72316  -0.72061
 Alpha  occ. eigenvalues --   -0.71431  -0.70844  -0.70127  -0.70073  -0.69349
 Alpha  occ. eigenvalues --   -0.69119  -0.68963  -0.67628  -0.66784  -0.66571
 Alpha  occ. eigenvalues --   -0.65945  -0.65197  -0.63985  -0.62867  -0.62585
 Alpha  occ. eigenvalues --   -0.61395  -0.60364  -0.60129  -0.59903  -0.59209
 Alpha  occ. eigenvalues --   -0.58621  -0.58083  -0.58000  -0.57137  -0.56967
 Alpha  occ. eigenvalues --   -0.56712  -0.56282  -0.55622  -0.55358  -0.54570
 Alpha  occ. eigenvalues --   -0.53746  -0.53254  -0.52920  -0.52811  -0.52187
 Alpha  occ. eigenvalues --   -0.52029  -0.51755  -0.51293  -0.50985  -0.50556
 Alpha  occ. eigenvalues --   -0.50257  -0.50101  -0.49829  -0.49667  -0.49593
 Alpha  occ. eigenvalues --   -0.49277  -0.49091  -0.48999  -0.48796  -0.48176
 Alpha  occ. eigenvalues --   -0.47995  -0.47901  -0.47725  -0.47489  -0.47378
 Alpha  occ. eigenvalues --   -0.46540  -0.46500  -0.46337  -0.45878  -0.45758
 Alpha  occ. eigenvalues --   -0.45563  -0.45249  -0.45189  -0.45083  -0.44853
 Alpha  occ. eigenvalues --   -0.44781  -0.44460  -0.44387  -0.44152  -0.43850
 Alpha  occ. eigenvalues --   -0.43666  -0.43495  -0.43401  -0.43266  -0.43106
 Alpha  occ. eigenvalues --   -0.42645  -0.42428  -0.42239  -0.42085  -0.41797
 Alpha  occ. eigenvalues --   -0.41677  -0.41442  -0.41424  -0.41047  -0.40699
 Alpha  occ. eigenvalues --   -0.40578  -0.40236  -0.40128  -0.39952  -0.39786
 Alpha  occ. eigenvalues --   -0.39584  -0.39406  -0.39348  -0.39199  -0.38893
 Alpha  occ. eigenvalues --   -0.38627  -0.38484  -0.38389  -0.38340  -0.38193
 Alpha  occ. eigenvalues --   -0.37792  -0.37735  -0.37725  -0.37412  -0.37403
 Alpha  occ. eigenvalues --   -0.37244  -0.36668  -0.36233  -0.36119  -0.35788
 Alpha  occ. eigenvalues --   -0.35562  -0.35319  -0.34918  -0.34781  -0.34515
 Alpha  occ. eigenvalues --   -0.33930  -0.33790  -0.33570  -0.33414  -0.32929
 Alpha  occ. eigenvalues --   -0.32688  -0.32317  -0.32162  -0.32004  -0.31983
 Alpha  occ. eigenvalues --   -0.31779  -0.30952  -0.30732  -0.30712  -0.29380
 Alpha  occ. eigenvalues --   -0.28953  -0.28654  -0.27708  -0.27615  -0.27571
 Alpha  occ. eigenvalues --   -0.27538  -0.27269  -0.22740  -0.21670
 Alpha virt. eigenvalues --   -0.09073  -0.06132  -0.01229  -0.00788   0.00636
 Alpha virt. eigenvalues --    0.02735   0.03793   0.04280   0.04565   0.04981
 Alpha virt. eigenvalues --    0.05259   0.05486   0.07821   0.08669   0.09131

 Mulliken charges:
               1
     1  Mg   0.811334
     2  C    0.123514
     3  C   -0.215179
     4  C   -0.176813
     5  C   -0.148142
     6  N   -0.661973
     7  C    0.313498
     8  C   -0.153678
     9  C   -0.150208
    10  C    0.379403
    11  C   -0.303841
    12  C   -0.178303
    13  C   -0.285774
    14  C    0.611321
    15  O   -0.428386
    16  O   -0.483802
    17  N   -0.740808
    18  C    0.355636
    19  C   -0.013770
    20  C   -0.045930
    21  C    0.287979
    22  C   -0.358163
    23  C    0.260409
    24  O   -0.436101
    25  N   -0.680950
    26  C    0.294665
    27  C   -0.068151
    28  C    0.047029
    29  C    0.299825
    30  C    0.289200
    31  C   -0.263002
    32  C   -0.303411
    33  N   -0.691968
    34  C    0.229423
    35  C    0.079035
    36  C    0.022950
    37  C    0.251106
    38  C   -0.405298
    39  C    0.379773
    40  O   -0.471475
    41  C   -0.351340
    42  C    0.586591
    43  O   -0.410333
    44  O   -0.496512
    45  C   -0.092749
    46  C   -0.021531
    47  C   -0.113391
    48  C    0.103347
    49  C   -0.386582
    50  C   -0.173168
    51  C   -0.174823
    52  C   -0.160325
    53  C   -0.077567
    54  C   -0.310749
    55  C   -0.161740
    56  C   -0.172823
    57  C   -0.149519
    58  C   -0.057956
    59  C   -0.324654
    60  C   -0.152201
    61  C   -0.171922
    62  C   -0.158294
    63  C   -0.045610
    64  C   -0.324964
    65  C   -0.299506
    66  H    0.078285
    67  H    0.151080
    68  H    0.081958
    69  H    0.113093
    70  H    0.106349
    71  H    0.118617
    72  H    0.121906
    73  H    0.117953
    74  H    0.107582
    75  H    0.119217
    76  H    0.116393
    77  H    0.130311
    78  H    0.133488
    79  H    0.154842
    80  H    0.133029
    81  H    0.092916
    82  H    0.098028
    83  H    0.116089
    84  H    0.113698
    85  H    0.106637
    86  H    0.108037
    87  H    0.124991
    88  H    0.148737
    89  H    0.122740
    90  H    0.164627
    91  H    0.119681
    92  H    0.134731
    93  H    0.091006
    94  H    0.137182
    95  H    0.114695
    96  H    0.116704
    97  H    0.099993
    98  H    0.091660
    99  H    0.066515
   100  H    0.096706
   101  H    0.088805
   102  H    0.090657
   103  H    0.079728
   104  H    0.074912
   105  H    0.120229
   106  H    0.115759
   107  H    0.093510
   108  H    0.089415
   109  H    0.110680
   110  H    0.040523
   111  H    0.096110
   112  H    0.070255
   113  H    0.050475
   114  H    0.086464
   115  H    0.099032
   116  H    0.102032
   117  H    0.089013
   118  H    0.057121
   119  H    0.104030
   120  H    0.097460
   121  H    0.105550
   122  H    0.083781
   123  H    0.101555
   124  H    0.112483
   125  H    0.092088
   126  H    0.079293
   127  H    0.076154
   128  H    0.094791
   129  H    0.090290
   130  H    0.132006
   131  H    0.133860
   132  H    0.146830
   133  O   -0.380265
   134  H    0.053250
 Sum of Mulliken charges =   0.00000

 Dipole moment (field-independent basis, Debye):
    X=              1.8624    Y=             -3.9970    Z=             -0.5173  Tot=              4.4399
 Quadrupole moment (field-independent basis, Debye-Ang):
   XX=           -364.7232   YY=           -430.9670   ZZ=           -396.2858
   XY=             -5.3546   XZ=             14.7598   YZ=            -36.3587

 Normal termination of Gaussian 09 at Fri Oct  4 07:07:49 2019.
