 Gaussian 09, Revision D.01,
 Gaussian 09:  ES64L-G09RevD.01 24-Apr-2013

 ----------------------------------------------------------------------
 # td=(NStates=1) iop(3/107=0140000000,3/108=0140000000) iop(3/107=0140
 000000,3/108=0140000000) CAM-B3LYP/6-31G(d,p)
 ----------------------------------------------------------------------

 --
 TD
 --
 Symbolic Z-matrix:
 Charge =  0 Multiplicity = 1

                         Standard orientation:
 ---------------------------------------------------------------------
 Center     Atomic      Atomic             Coordinates (Angstroms)
 Number     Number       Type             X           Y           Z
 ---------------------------------------------------------------------
      1         12           0       -5.591792    1.059698    0.190847
      2          6           0       -5.070840   -2.170389   -0.318041
      3          6           0       -3.426484    1.164495    2.729049
      4          6           0       -6.122944    4.521792    0.494399
      5          6           0       -8.035343    1.134453   -2.353269
      6          7           0       -4.444804   -0.332034    1.056537
      7          6           0       -4.362117   -1.602248    0.728668
      8          6           0       -3.258627   -2.228340    1.639849
      9          6           0       -2.925924   -1.216090    2.667064
     10          6           0       -3.604230   -0.055146    2.114050
     11          6           0       -3.505707   -1.641184    4.055645
     12          6           0       -1.983436   -2.576427    0.667253
     13          6           0       -0.951533   -3.492179    1.453057
     14          6           0        0.295737   -3.929666    0.637956
     15          8           0        0.404279   -3.500133   -0.559010
     16          8           0        1.204603   -4.529281    1.361595
     17          7           0       -4.936490    2.659634    1.431080
     18          6           0       -4.030620    2.475201    2.399580
     19          6           0       -3.670809    3.723427    3.052993
     20          6           0       -4.461633    4.659171    2.530508
     21          6           0       -5.289983    3.943387    1.472930
     22          6           0       -2.874288    3.778344    4.226274
     23          6           0       -4.601511    6.084921    2.864252
     24          8           0       -4.076751    6.565057    3.846208
     25          7           0       -6.890245    2.510020   -0.728731
     26          6           0       -7.005271    3.893730   -0.404360
     27          6           0       -7.859634    4.595685   -1.256909
     28          6           0       -8.393492    3.683634   -2.053418
     29          6           0       -7.837471    2.378721   -1.770611
     30          6           0       -8.249120    6.093848   -1.190475
     31          6           0       -9.385620    3.785321   -3.080362
     32          6           0       -8.784738    4.092678   -4.603920
     33          7           0       -6.282222   -0.079089   -1.181723
     34          6           0       -7.283488   -0.015858   -2.133180
     35          6           0       -7.482532   -1.342639   -2.761338
     36          6           0       -6.581007   -2.219848   -2.112727
     37          6           0       -5.985786   -1.499703   -1.074502
     38          6           0       -8.437817   -1.656751   -3.797629
     39          6           0       -6.156051   -3.556804   -2.023115
     40          8           0       -6.566891   -4.572888   -2.623306
     41          6           0       -5.062266   -3.551057   -0.890861
     42          6           0       -5.349841   -4.595815    0.264041
     43          8           0       -5.816731   -4.406327    1.312618
     44          8           0       -5.250824   -5.791209   -0.189737
     45          6           0       -5.674939   -6.892152    0.602167
     46          6           0        2.393792   -5.117940    0.602983
     47          6           0        3.493165   -4.329750    0.975767
     48          6           0        4.065772   -3.334583    0.115434
     49          6           0        3.740469   -3.229317   -1.279699
     50          6           0        5.192019   -2.497883    0.643866
     51          6           0        6.571914   -2.643387   -0.104886
     52          6           0        7.638272   -1.737900    0.477775
     53          6           0        9.037001   -1.939936   -0.117851
     54          6           0        9.661964   -3.342080    0.167206
     55          6           0        9.994917   -0.871050    0.266943
     56          6           0       11.411659   -0.853829   -0.450835
     57          6           0       12.173630    0.326118    0.068378
     58          6           0       13.618850    0.425455   -0.679388
     59          6           0       14.457549   -0.705206   -0.426672
     60          6           0       14.224190    1.771739   -0.273495
     61          6           0       15.387823    2.115911   -0.977725
     62          6           0       16.046826    3.376563   -0.436102
     63          6           0       17.389982    3.890421   -1.177042
     64          6           0       17.117665    4.114275   -2.726308
     65          6           0       17.936478    5.173236   -0.566239
     66          1           0       -2.772940    1.323273    3.461640
     67          1           0       -6.518120    5.597113    0.686886
     68          1           0       -8.909369    1.020454   -2.930519
     69          1           0       -3.492221   -3.205385    2.090261
     70          1           0       -1.920847   -1.161823    2.891511
     71          1           0       -2.947661   -2.539364    4.471524
     72          1           0       -3.435119   -0.775591    4.758091
     73          1           0       -4.482872   -2.036325    3.812389
     74          1           0       -2.174612   -3.116026   -0.346144
     75          1           0       -1.509673   -1.694907    0.510766
     76          1           0       -0.395347   -2.903905    2.271116
     77          1           0       -1.589975   -4.296593    1.955286
     78          1           0       -1.815849    3.138030    4.033452
     79          1           0       -2.554212    4.895718    4.442875
     80          1           0       -3.132594    3.152098    5.008431
     81          1           0       -5.319726    6.603728    2.138122
     82          1           0       -9.986507    2.834023   -3.259082
     83          1           0      -10.017747    4.671093   -2.960038
     84          1           0       -9.652789    4.310049   -5.335271
     85          1           0       -8.193028    5.104049   -4.429615
     86          1           0       -8.072661    3.263726   -4.729235
     87          1           0       -8.119656   -1.132128   -4.785041
     88          1           0       -8.604304   -2.797825   -3.859452
     89          1           0       -9.487754   -1.427792   -3.452095
     90          1           0       -4.135589   -3.868568   -1.183368
     91          1           0        2.708151   -6.059796    1.133078
     92          1           0        2.011142   -5.129491   -0.431066
     93          1           0        3.970820   -4.241621    2.051585
     94          1           0        2.756280   -3.514260   -1.497310
     95          1           0        3.757577   -2.227858   -1.527482
     96          1           0        4.518745   -3.764298   -1.831402
     97          1           0        4.987897   -1.503955    0.307547
     98          1           0        5.027788   -2.603079    1.686361
     99          1           0        6.973450   -3.668852   -0.016063
    100          1           0        6.361558   -2.515705   -1.118104
    101          1           0        7.450810   -0.692222    0.321520
    102          1           0        7.828939   -1.807251    1.480971
    103          1           0        9.065664   -1.916349   -1.120323
    104          1           0        9.039012   -4.077142   -0.236748
    105          1           0       10.627194   -3.481587   -0.104451
    106          1           0        9.509624   -3.630291    1.256224
    107          1           0        9.511447    0.155536    0.161718
    108          1           0       10.069557   -1.113280    1.314067
    109          1           0       11.613325   -1.973430   -0.186004
    110          1           0       10.989537   -0.726597   -1.447181
    111          1           0       11.584930    1.108957   -0.136217
    112          1           0       12.255903    0.165998    1.229015
    113          1           0       13.434708    0.385305   -1.815154
    114          1           0       15.126591   -0.982079    0.558951
    115          1           0       13.944245   -1.624626   -0.884990
    116          1           0       15.382735   -0.809371   -1.046270
    117          1           0       13.636459    2.511499   -0.292870
    118          1           0       14.386560    1.610366    0.784259
    119          1           0       16.090255    1.397745   -1.101131
    120          1           0       15.167780    2.079226   -2.179375
    121          1           0       15.300356    4.392381   -0.399247
    122          1           0       16.473186    3.278916    0.761220
    123          1           0       18.252579    3.133629   -1.147528
    124          1           0       16.371452    4.943543   -2.480283
    125          1           0       17.904549    4.563817   -3.495623
    126          1           0       16.833499    3.338044   -3.377571
    127          1           0       18.028112    4.972720    0.689637
    128          1           0       19.040260    5.454496   -0.915215
    129          1           0       17.332090    5.976457   -0.897594
    130          1           0       -5.516457   -7.731221    0.084807
    131          1           0       -6.691665   -6.780179    0.802556
    132          1           0       -5.134617   -7.019815    1.630484
    133          8           0       -7.845578    6.824863   -0.353817
    134          1           0       -9.047310    6.277631   -1.780775
 ---------------------------------------------------------------------

 SCF Done:  E(RCAM-B3LYP) =  -3043.40161192     A.U. after   16 cycles

 Excitation energies and oscillator strengths:

 Excited State   1:      Singlet-A      1.9666 eV  630.44 nm  f=0.2216  <S**2>=0.000
     243 -> 246       -0.24977
     244 -> 245        0.65492
 This state for optimization and/or second-order correction.
 Total Energy, E(TD-HF/TD-KS) =  -3043.32934015
 Copying the excited state density for this state as the 1-particle RhoCI density.

 The electronic state is 1-A.
 Alpha  occ. eigenvalues --  -46.80430 -19.22864 -19.22042 -19.18881 -19.17107
 Alpha  occ. eigenvalues --  -19.16387 -19.16230 -19.16197 -14.38775 -14.36703
 Alpha  occ. eigenvalues --  -14.36053 -14.35828 -10.35313 -10.33848 -10.31135
 Alpha  occ. eigenvalues --  -10.30902 -10.30270 -10.28453 -10.27628 -10.26930
 Alpha  occ. eigenvalues --  -10.26460 -10.26098 -10.26048 -10.25760 -10.25390
 Alpha  occ. eigenvalues --  -10.25389 -10.25262 -10.25050 -10.24660 -10.24588
 Alpha  occ. eigenvalues --  -10.24053 -10.24007 -10.23900 -10.23586 -10.23481
 Alpha  occ. eigenvalues --  -10.23426 -10.23348 -10.23081 -10.23075 -10.23037
 Alpha  occ. eigenvalues --  -10.23031 -10.22992 -10.22821 -10.22651 -10.22574
 Alpha  occ. eigenvalues --  -10.22506 -10.22277 -10.22236 -10.22209 -10.22183
 Alpha  occ. eigenvalues --  -10.22022 -10.21939 -10.21933 -10.21826 -10.21372
 Alpha  occ. eigenvalues --  -10.21367 -10.21249 -10.21145 -10.20889 -10.20407
 Alpha  occ. eigenvalues --  -10.20359 -10.20099 -10.20013 -10.19535 -10.19409
 Alpha  occ. eigenvalues --  -10.17897  -3.09233  -1.84146  -1.83707  -1.83667
 Alpha  occ. eigenvalues --   -1.16593  -1.12777  -1.10344  -1.06884  -1.06102
 Alpha  occ. eigenvalues --   -1.04607  -1.01838  -1.01728  -1.00520  -0.98147
 Alpha  occ. eigenvalues --   -0.97084  -0.89483  -0.87242  -0.86657  -0.86265
 Alpha  occ. eigenvalues --   -0.85753  -0.85089  -0.84443  -0.83722  -0.83303
 Alpha  occ. eigenvalues --   -0.82857  -0.82614  -0.81864  -0.80529  -0.80074
 Alpha  occ. eigenvalues --   -0.79506  -0.78475  -0.77866  -0.77655  -0.76641
 Alpha  occ. eigenvalues --   -0.76303  -0.75006  -0.73558  -0.73428  -0.72990
 Alpha  occ. eigenvalues --   -0.71722  -0.71294  -0.70191  -0.69593  -0.69544
 Alpha  occ. eigenvalues --   -0.68895  -0.68622  -0.67836  -0.66824  -0.66289
 Alpha  occ. eigenvalues --   -0.65507  -0.64773  -0.64364  -0.63139  -0.62448
 Alpha  occ. eigenvalues --   -0.61977  -0.61500  -0.60774  -0.59476  -0.59231
 Alpha  occ. eigenvalues --   -0.59174  -0.58724  -0.58043  -0.57713  -0.56990
 Alpha  occ. eigenvalues --   -0.56367  -0.56083  -0.55612  -0.55314  -0.54544
 Alpha  occ. eigenvalues --   -0.54194  -0.53354  -0.52824  -0.52792  -0.52580
 Alpha  occ. eigenvalues --   -0.52187  -0.52167  -0.51903  -0.51115  -0.50820
 Alpha  occ. eigenvalues --   -0.50706  -0.50504  -0.49880  -0.49739  -0.49565
 Alpha  occ. eigenvalues --   -0.49154  -0.48906  -0.48649  -0.48498  -0.48303
 Alpha  occ. eigenvalues --   -0.48180  -0.47746  -0.47380  -0.47356  -0.47069
 Alpha  occ. eigenvalues --   -0.46774  -0.46607  -0.46426  -0.46199  -0.45969
 Alpha  occ. eigenvalues --   -0.45920  -0.45793  -0.45522  -0.45493  -0.44959
 Alpha  occ. eigenvalues --   -0.44935  -0.44762  -0.44071  -0.43803  -0.43733
 Alpha  occ. eigenvalues --   -0.43420  -0.43306  -0.43064  -0.43022  -0.42593
 Alpha  occ. eigenvalues --   -0.42498  -0.42358  -0.42156  -0.41920  -0.41826
 Alpha  occ. eigenvalues --   -0.41748  -0.41364  -0.41154  -0.40779  -0.40639
 Alpha  occ. eigenvalues --   -0.40381  -0.40364  -0.40090  -0.40028  -0.39958
 Alpha  occ. eigenvalues --   -0.39689  -0.39537  -0.39366  -0.39207  -0.39137
 Alpha  occ. eigenvalues --   -0.38927  -0.38706  -0.38492  -0.38321  -0.38152
 Alpha  occ. eigenvalues --   -0.38058  -0.37847  -0.37600  -0.37389  -0.37364
 Alpha  occ. eigenvalues --   -0.37090  -0.36948  -0.36610  -0.36348  -0.36126
 Alpha  occ. eigenvalues --   -0.35897  -0.35134  -0.34767  -0.34580  -0.34397
 Alpha  occ. eigenvalues --   -0.34304  -0.34093  -0.33396  -0.33372  -0.32923
 Alpha  occ. eigenvalues --   -0.32795  -0.32606  -0.32299  -0.31835  -0.31594
 Alpha  occ. eigenvalues --   -0.30868  -0.30342  -0.29958  -0.29551  -0.29239
 Alpha  occ. eigenvalues --   -0.29042  -0.28354  -0.27739  -0.27508  -0.27342
 Alpha  occ. eigenvalues --   -0.27281  -0.25838  -0.22552  -0.20857
 Alpha virt. eigenvalues --   -0.08170  -0.05900  -0.01941  -0.00612   0.00497
 Alpha virt. eigenvalues --    0.01578   0.03330   0.04160   0.04381   0.05151
 Alpha virt. eigenvalues --    0.05185   0.06085   0.08175   0.08899   0.09260

 Mulliken charges:
               1
     1  Mg   0.835057
     2  C    0.063892
     3  C   -0.149816
     4  C   -0.193521
     5  C   -0.181304
     6  N   -0.680309
     7  C    0.360861
     8  C   -0.189425
     9  C   -0.129123
    10  C    0.372189
    11  C   -0.313841
    12  C   -0.166963
    13  C   -0.271568
    14  C    0.591298
    15  O   -0.508960
    16  O   -0.440576
    17  N   -0.646462
    18  C    0.272540
    19  C    0.093193
    20  C   -0.025537
    21  C    0.267481
    22  C   -0.394386
    23  C    0.246011
    24  O   -0.417172
    25  N   -0.633653
    26  C    0.233728
    27  C   -0.035705
    28  C    0.083481
    29  C    0.285195
    30  C    0.301725
    31  C   -0.302666
    32  C   -0.305987
    33  N   -0.735085
    34  C    0.312593
    35  C    0.022645
    36  C    0.096609
    37  C    0.226794
    38  C   -0.405736
    39  C    0.342723
    40  O   -0.481750
    41  C   -0.321771
    42  C    0.567282
    43  O   -0.447616
    44  O   -0.404254
    45  C   -0.083161
    46  C   -0.018512
    47  C   -0.127319
    48  C    0.117182
    49  C   -0.379434
    50  C   -0.222177
    51  C   -0.185853
    52  C   -0.160898
    53  C   -0.067473
    54  C   -0.334404
    55  C   -0.201556
    56  C   -0.185763
    57  C   -0.147645
    58  C   -0.069127
    59  C   -0.307858
    60  C   -0.126583
    61  C   -0.157236
    62  C   -0.145353
    63  C   -0.070588
    64  C   -0.296570
    65  C   -0.279540
    66  H    0.045090
    67  H    0.128018
    68  H    0.082893
    69  H    0.111089
    70  H    0.116930
    71  H    0.102418
    72  H    0.109658
    73  H    0.134568
    74  H    0.118016
    75  H    0.126210
    76  H    0.122506
    77  H    0.117429
    78  H    0.071209
    79  H    0.150345
    80  H    0.148802
    81  H    0.080916
    82  H    0.109152
    83  H    0.105858
    84  H    0.113293
    85  H    0.092966
    86  H    0.124531
    87  H    0.131500
    88  H    0.145156
    89  H    0.127246
    90  H    0.154327
    91  H    0.126429
    92  H    0.149308
    93  H    0.078856
    94  H    0.144254
    95  H    0.117787
    96  H    0.124787
    97  H    0.107837
    98  H    0.094871
    99  H    0.096863
   100  H    0.109317
   101  H    0.091401
   102  H    0.103638
   103  H    0.085467
   104  H    0.106011
   105  H    0.115277
   106  H    0.084123
   107  H    0.065426
   108  H    0.083548
   109  H    0.093183
   110  H    0.096595
   111  H    0.102857
   112  H    0.085583
   113  H    0.075657
   114  H    0.083521
   115  H    0.098354
   116  H    0.097764
   117  H    0.092932
   118  H    0.089592
   119  H    0.108533
   120  H    0.060344
   121  H    0.057748
   122  H    0.064117
   123  H    0.079630
   124  H    0.088824
   125  H    0.075486
   126  H    0.110460
   127  H    0.067987
   128  H    0.091195
   129  H    0.109803
   130  H    0.133660
   131  H    0.137912
   132  H    0.105649
   133  O   -0.384548
   134  H    0.079596
 Sum of Mulliken charges =   0.00000

 Dipole moment (field-independent basis, Debye):
    X=              2.3664    Y=             -4.6624    Z=             -1.1900  Tot=              5.3623
 Quadrupole moment (field-independent basis, Debye-Ang):
   XX=           -372.2395   YY=           -427.2460   ZZ=           -397.9450
   XY=             -9.9795   XZ=             17.5623   YZ=            -38.2408

 Normal termination of Gaussian 09 at Fri Oct  4 19:13:12 2019.
