 Gaussian 09, Revision D.01,
 Gaussian 09:  ES64L-G09RevD.01 24-Apr-2013

 ----------------------------------------------------------------------
 # td=(NStates=1) iop(3/107=0140000000,3/108=0140000000) iop(3/107=0140
 000000,3/108=0140000000) CAM-B3LYP/6-31G(d,p)
 ----------------------------------------------------------------------

 --
 TD
 --
 Symbolic Z-matrix:
 Charge =  0 Multiplicity = 1

                         Standard orientation:
 ---------------------------------------------------------------------
 Center     Atomic      Atomic             Coordinates (Angstroms)
 Number     Number       Type             X           Y           Z
 ---------------------------------------------------------------------
      1         12           0       -5.688965    1.291979    0.207752
      2          6           0       -5.040097   -2.117658   -0.355554
      3          6           0       -3.378791    1.099032    2.788151
      4          6           0       -6.181813    4.520157    0.560699
      5          6           0       -8.012752    1.255307   -2.358592
      6          7           0       -4.393853   -0.301077    1.098271
      7          6           0       -4.282271   -1.636462    0.589310
      8          6           0       -3.241960   -2.360462    1.490940
      9          6           0       -2.896002   -1.352837    2.622021
     10          6           0       -3.537275   -0.145013    2.134600
     11          6           0       -3.503404   -1.786630    4.011056
     12          6           0       -2.002059   -2.686876    0.567543
     13          6           0       -1.065912   -3.611756    1.384321
     14          6           0        0.286969   -3.881487    0.701006
     15          8           0        0.528946   -3.322985   -0.340372
     16          8           0        1.041328   -4.826464    1.299860
     17          7           0       -4.977782    2.531177    1.508371
     18          6           0       -4.069305    2.284677    2.512310
     19          6           0       -3.829403    3.596209    3.123842
     20          6           0       -4.682721    4.618654    2.668630
     21          6           0       -5.223602    3.916999    1.481880
     22          6           0       -2.821545    3.687990    4.316694
     23          6           0       -4.763976    6.072846    3.023541
     24          8           0       -4.072552    6.444264    4.009106
     25          7           0       -6.974320    2.604019   -0.720417
     26          6           0       -6.921526    3.981777   -0.452364
     27          6           0       -7.982948    4.626025   -1.168702
     28          6           0       -8.522307    3.616726   -2.075331
     29          6           0       -7.804142    2.444056   -1.729851
     30          6           0       -8.372545    6.064228   -1.179765
     31          6           0       -9.547246    3.778361   -3.192385
     32          6           0       -8.858980    4.038452   -4.528709
     33          7           0       -6.303612   -0.130822   -1.030811
     34          6           0       -7.398076   -0.012509   -2.059572
     35          6           0       -7.392884   -1.248303   -2.759981
     36          6           0       -6.575118   -2.146969   -2.124115
     37          6           0       -5.946769   -1.382465   -1.053118
     38          6           0       -8.478098   -1.566147   -3.869691
     39          6           0       -6.117080   -3.532806   -2.022992
     40          8           0       -6.425874   -4.585238   -2.640533
     41          6           0       -4.932636   -3.559238   -0.984602
     42          6           0       -5.166675   -4.635248    0.023537
     43          8           0       -5.583338   -4.365689    1.141825
     44          8           0       -5.029412   -5.878197   -0.428879
     45          6           0       -5.284066   -7.009719    0.493920
     46          6           0        2.263726   -5.110161    0.547263
     47          6           0        3.418062   -4.169590    0.934902
     48          6           0        4.055650   -3.270430    0.169552
     49          6           0        3.773924   -2.973011   -1.234987
     50          6           0        5.160147   -2.523042    0.820020
     51          6           0        6.536782   -2.587315   -0.054129
     52          6           0        7.544231   -1.789276    0.698096
     53          6           0        8.985827   -1.949209   -0.049368
     54          6           0        9.570148   -3.353242    0.046224
     55          6           0        9.946480   -0.932182    0.441778
     56          6           0       11.328392   -0.788485   -0.229325
     57          6           0       12.261122    0.308124    0.248517
     58          6           0       13.606522    0.507864   -0.478318
     59          6           0       14.500575   -0.662068   -0.336222
     60          6           0       14.270109    1.924236   -0.119923
     61          6           0       15.505508    2.189266   -1.091995
     62          6           0       16.126611    3.434982   -0.612527
     63          6           0       17.353870    3.857797   -1.414275
     64          6           0       17.108389    4.041843   -2.922995
     65          6           0       17.916170    5.187716   -0.790806
     66          1           0       -2.438023    1.226689    3.367351
     67          1           0       -6.284157    5.447073    0.844486
     68          1           0       -8.790459    0.961716   -3.156122
     69          1           0       -3.634088   -3.362173    1.637836
     70          1           0       -1.786913   -1.250299    2.724511
     71          1           0       -2.877188   -2.668184    4.448266
     72          1           0       -3.361727   -0.933831    4.783348
     73          1           0       -4.450594   -2.183251    3.863569
     74          1           0       -2.608001   -3.345316   -0.384801
     75          1           0       -1.461334   -1.745596    0.115571
     76          1           0       -0.715128   -3.306411    2.520686
     77          1           0       -1.424968   -4.688294    1.537399
     78          1           0       -1.750763    3.201908    4.049366
     79          1           0       -2.619239    4.865057    4.647390
     80          1           0       -3.237851    3.066445    5.129511
     81          1           0       -5.150902    6.803429    2.365558
     82          1           0      -10.101554    2.794547   -3.065106
     83          1           0      -10.200764    4.561809   -2.912029
     84          1           0       -9.555978    4.064298   -5.332634
     85          1           0       -8.132322    4.952755   -4.465513
     86          1           0       -8.127793    3.140473   -4.656117
     87          1           0       -7.984420   -1.230732   -5.185329
     88          1           0       -8.695899   -2.786062   -3.897926
     89          1           0       -9.457825   -1.111194   -3.784151
     90          1           0       -4.069477   -3.585093   -1.651492
     91          1           0        2.464673   -6.054679    0.833063
     92          1           0        1.849806   -4.995447   -0.472167
     93          1           0        3.709441   -4.319512    1.993459
     94          1           0        2.662055   -3.577110   -1.534237
     95          1           0        3.705151   -1.888417   -1.342253
     96          1           0        4.599541   -3.489240   -1.800473
     97          1           0        4.692024   -1.396031    0.775009
     98          1           0        5.180976   -2.784314    1.861278
     99          1           0        6.727286   -3.715361   -0.198809
    100          1           0        6.416712   -2.326253   -1.207876
    101          1           0        7.474704   -0.679230    0.680178
    102          1           0        7.509790   -2.397390    1.853088
    103          1           0        8.757268   -1.588360   -1.171684
    104          1           0        8.896916   -4.021301   -0.406711
    105          1           0       10.499770   -3.592274   -0.542179
    106          1           0        9.668651   -3.725839    1.220159
    107          1           0        9.486587    0.145434    0.621055
    108          1           0       10.101345   -1.286989    1.753616
    109          1           0       11.885149   -1.758360   -0.107330
    110          1           0       11.013214   -0.581503   -1.367629
    111          1           0       11.805444    1.163412    0.412916
    112          1           0       12.453280    0.090206    1.233032
    113          1           0       13.384777    0.518440   -1.679307
    114          1           0       14.730328   -0.515139    0.668370
    115          1           0       14.312976   -1.655512   -0.569136
    116          1           0       15.415126   -0.283400   -1.119007
    117          1           0       13.540026    2.714729   -0.113754
    118          1           0       14.620699    1.879865    0.816173
    119          1           0       16.256896    1.402612   -1.227575
    120          1           0       15.169386    2.413529   -2.094903
    121          1           0       15.431786    4.424731   -0.801794
    122          1           0       16.484171    3.557053    0.516455
    123          1           0       18.074881    3.066755   -1.319598
    124          1           0       16.548071    4.964439   -3.196374
    125          1           0       17.905655    4.467962   -3.447160
    126          1           0       16.841825    3.062496   -3.421569
    127          1           0       18.442194    5.011174    0.276872
    128          1           0       18.712512    5.615681   -1.544884
    129          1           0       17.078272    5.951465   -0.760483
    130          1           0       -5.040956   -8.064251   -0.029674
    131          1           0       -6.446671   -6.956172    0.544108
    132          1           0       -4.755082   -6.964591    1.343893
    133          8           0       -7.871973    6.881463   -0.428354
    134          1           0       -9.343147    6.436506   -1.752883
 ---------------------------------------------------------------------

 SCF Done:  E(RCAM-B3LYP) =  -3043.37417686     A.U. after   16 cycles

 Excitation energies and oscillator strengths:

 Excited State   1:      Singlet-A      1.9888 eV  623.42 nm  f=0.2061  <S**2>=0.000
     243 -> 246        0.22389
     244 -> 245        0.66229
 This state for optimization and/or second-order correction.
 Total Energy, E(TD-HF/TD-KS) =  -3043.30109045
 Copying the excited state density for this state as the 1-particle RhoCI density.

 The electronic state is 1-A.
 Alpha  occ. eigenvalues --  -46.80256 -19.22932 -19.22043 -19.17716 -19.17031
 Alpha  occ. eigenvalues --  -19.16759 -19.16664 -19.16653 -14.38443 -14.36903
 Alpha  occ. eigenvalues --  -14.36493 -14.36393 -10.35417 -10.34307 -10.31702
 Alpha  occ. eigenvalues --  -10.31566 -10.31090 -10.29093 -10.27507 -10.27475
 Alpha  occ. eigenvalues --  -10.27091 -10.26812 -10.26665 -10.26467 -10.26383
 Alpha  occ. eigenvalues --  -10.26259 -10.25894 -10.25801 -10.25496 -10.25478
 Alpha  occ. eigenvalues --  -10.25434 -10.25400 -10.25399 -10.25314 -10.24718
 Alpha  occ. eigenvalues --  -10.24499 -10.24448 -10.23971 -10.23802 -10.23793
 Alpha  occ. eigenvalues --  -10.23588 -10.23576 -10.23556 -10.23462 -10.23385
 Alpha  occ. eigenvalues --  -10.23218 -10.23119 -10.23047 -10.22859 -10.22694
 Alpha  occ. eigenvalues --  -10.22617 -10.22433 -10.22330 -10.22330 -10.22286
 Alpha  occ. eigenvalues --  -10.22252 -10.22086 -10.21772 -10.21615 -10.21254
 Alpha  occ. eigenvalues --  -10.21143 -10.20816 -10.20646 -10.20076 -10.19987
 Alpha  occ. eigenvalues --  -10.18371  -3.09095  -1.84015  -1.83575  -1.83517
 Alpha  occ. eigenvalues --   -1.13515  -1.13159  -1.06742  -1.05260  -1.04858
 Alpha  occ. eigenvalues --   -1.04405  -1.04360  -1.00464  -0.99512  -0.98825
 Alpha  occ. eigenvalues --   -0.97856  -0.88489  -0.86105  -0.85410  -0.85291
 Alpha  occ. eigenvalues --   -0.84563  -0.84310  -0.84118  -0.83727  -0.83179
 Alpha  occ. eigenvalues --   -0.83018  -0.81950  -0.80796  -0.79868  -0.79323
 Alpha  occ. eigenvalues --   -0.78689  -0.77973  -0.77689  -0.77317  -0.76416
 Alpha  occ. eigenvalues --   -0.75330  -0.73967  -0.73345  -0.73092  -0.71146
 Alpha  occ. eigenvalues --   -0.71031  -0.70982  -0.70717  -0.69681  -0.69452
 Alpha  occ. eigenvalues --   -0.68886  -0.68234  -0.67280  -0.66797  -0.66186
 Alpha  occ. eigenvalues --   -0.65515  -0.64506  -0.63838  -0.62804  -0.62467
 Alpha  occ. eigenvalues --   -0.61140  -0.61046  -0.60071  -0.59134  -0.58796
 Alpha  occ. eigenvalues --   -0.57734  -0.57570  -0.57547  -0.57454  -0.56183
 Alpha  occ. eigenvalues --   -0.55867  -0.55615  -0.55486  -0.54972  -0.54788
 Alpha  occ. eigenvalues --   -0.53746  -0.53180  -0.52276  -0.52050  -0.51794
 Alpha  occ. eigenvalues --   -0.51483  -0.51093  -0.50786  -0.50633  -0.50314
 Alpha  occ. eigenvalues --   -0.50215  -0.49839  -0.49482  -0.48930  -0.48837
 Alpha  occ. eigenvalues --   -0.48650  -0.48457  -0.48020  -0.47924  -0.47718
 Alpha  occ. eigenvalues --   -0.47440  -0.47086  -0.46893  -0.46814  -0.46629
 Alpha  occ. eigenvalues --   -0.46409  -0.46106  -0.46024  -0.45894  -0.45606
 Alpha  occ. eigenvalues --   -0.45506  -0.45285  -0.45142  -0.44995  -0.44688
 Alpha  occ. eigenvalues --   -0.44309  -0.44266  -0.43674  -0.43621  -0.43415
 Alpha  occ. eigenvalues --   -0.43220  -0.43010  -0.42615  -0.42604  -0.42407
 Alpha  occ. eigenvalues --   -0.42132  -0.42058  -0.41737  -0.41445  -0.41390
 Alpha  occ. eigenvalues --   -0.41232  -0.40917  -0.40594  -0.40496  -0.40305
 Alpha  occ. eigenvalues --   -0.40210  -0.40007  -0.39755  -0.39568  -0.39459
 Alpha  occ. eigenvalues --   -0.39261  -0.39011  -0.38975  -0.38900  -0.38666
 Alpha  occ. eigenvalues --   -0.38494  -0.38316  -0.38252  -0.37960  -0.37879
 Alpha  occ. eigenvalues --   -0.37711  -0.37588  -0.37532  -0.37402  -0.37151
 Alpha  occ. eigenvalues --   -0.37012  -0.36887  -0.36297  -0.35970  -0.35491
 Alpha  occ. eigenvalues --   -0.35471  -0.34997  -0.34686  -0.34450  -0.34370
 Alpha  occ. eigenvalues --   -0.34314  -0.34070  -0.33561  -0.33273  -0.33033
 Alpha  occ. eigenvalues --   -0.33001  -0.31826  -0.31661  -0.31588  -0.31090
 Alpha  occ. eigenvalues --   -0.30936  -0.30790  -0.30495  -0.30217  -0.29777
 Alpha  occ. eigenvalues --   -0.28721  -0.28475  -0.27938  -0.27800  -0.27452
 Alpha  occ. eigenvalues --   -0.27287  -0.26667  -0.23377  -0.21431
 Alpha virt. eigenvalues --   -0.08787  -0.06560  -0.02464  -0.01489   0.00469
 Alpha virt. eigenvalues --    0.02925   0.04034   0.04271   0.04414   0.04557
 Alpha virt. eigenvalues --    0.04799   0.05207   0.06785   0.07918   0.09001

 Mulliken charges:
               1
     1  Mg   0.829112
     2  C    0.104788
     3  C   -0.191705
     4  C   -0.139076
     5  C   -0.177726
     6  N   -0.622027
     7  C    0.278278
     8  C   -0.147876
     9  C   -0.144485
    10  C    0.365758
    11  C   -0.299634
    12  C   -0.162102
    13  C   -0.257575
    14  C    0.602618
    15  O   -0.466075
    16  O   -0.475129
    17  N   -0.727138
    18  C    0.359912
    19  C   -0.003307
    20  C   -0.002951
    21  C    0.245657
    22  C   -0.377573
    23  C    0.241785
    24  O   -0.416965
    25  N   -0.695076
    26  C    0.305162
    27  C   -0.039578
    28  C    0.001499
    29  C    0.369831
    30  C    0.228994
    31  C   -0.220474
    32  C   -0.302163
    33  N   -0.739252
    34  C    0.206961
    35  C   -0.003492
    36  C    0.077179
    37  C    0.346005
    38  C   -0.344191
    39  C    0.337009
    40  O   -0.482250
    41  C   -0.325356
    42  C    0.643595
    43  O   -0.482514
    44  O   -0.446989
    45  C   -0.084233
    46  C    0.009047
    47  C   -0.158605
    48  C    0.167424
    49  C   -0.346636
    50  C   -0.218648
    51  C   -0.179039
    52  C   -0.135105
    53  C   -0.045059
    54  C   -0.299658
    55  C   -0.133188
    56  C   -0.161194
    57  C   -0.166254
    58  C   -0.067409
    59  C   -0.275484
    60  C   -0.181571
    61  C   -0.186163
    62  C   -0.137056
    63  C   -0.051471
    64  C   -0.319816
    65  C   -0.307731
    66  H    0.091409
    67  H    0.079385
    68  H    0.101596
    69  H    0.127922
    70  H    0.110389
    71  H    0.096335
    72  H    0.108338
    73  H    0.145249
    74  H    0.069591
    75  H    0.124626
    76  H    0.112299
    77  H    0.130064
    78  H    0.092869
    79  H    0.144915
    80  H    0.133218
    81  H    0.124607
    82  H    0.106760
    83  H    0.117379
    84  H    0.122411
    85  H    0.112196
    86  H    0.103623
    87  H    0.057719
    88  H    0.130278
    89  H    0.135334
    90  H    0.179071
    91  H    0.114261
    92  H    0.120577
    93  H    0.074571
    94  H    0.104761
    95  H    0.120577
    96  H    0.116673
    97  H    0.076042
    98  H    0.105689
    99  H    0.103023
   100  H    0.089841
   101  H    0.106825
   102  H    0.062868
   103  H    0.065701
   104  H    0.106853
   105  H    0.105247
   106  H    0.083196
   107  H    0.069170
   108  H    0.006216
   109  H    0.095274
   110  H    0.066941
   111  H    0.087095
   112  H    0.091029
   113  H    0.043321
   114  H    0.103724
   115  H    0.115986
   116  H    0.059590
   117  H    0.105678
   118  H    0.107257
   119  H    0.101724
   120  H    0.113375
   121  H    0.057495
   122  H    0.071596
   123  H    0.088737
   124  H    0.091624
   125  H    0.105765
   126  H    0.099595
   127  H    0.088529
   128  H    0.083080
   129  H    0.101498
   130  H    0.119725
   131  H    0.139956
   132  H    0.147461
   133  O   -0.410216
   134  H    0.060866
 Sum of Mulliken charges =   0.00000

 Dipole moment (field-independent basis, Debye):
    X=              2.3440    Y=             -4.2356    Z=             -1.0153  Tot=              4.9463
 Quadrupole moment (field-independent basis, Debye-Ang):
   XX=           -375.2399   YY=           -422.4241   ZZ=           -402.0923
   XY=              4.2060   XZ=             14.5843   YZ=            -36.3314

 Normal termination of Gaussian 09 at Sat Oct  5 12:13:01 2019.
