 Gaussian 09, Revision D.01,
 Gaussian 09:  ES64L-G09RevD.01 24-Apr-2013

 ----------------------------------------------------------------------
 # td=(NStates=1) iop(3/107=0140000000,3/108=0140000000) iop(3/107=0140
 000000,3/108=0140000000) CAM-B3LYP/6-31G(d,p)
 ----------------------------------------------------------------------

 --
 TD
 --
 Symbolic Z-matrix:
 Charge =  0 Multiplicity = 1

                         Standard orientation:
 ---------------------------------------------------------------------
 Center     Atomic      Atomic             Coordinates (Angstroms)
 Number     Number       Type             X           Y           Z
 ---------------------------------------------------------------------
      1         12           0       -5.745029    1.136552    0.283103
      2          6           0       -4.958501   -2.090940   -0.383562
      3          6           0       -3.530259    1.199314    2.848875
      4          6           0       -6.174041    4.602150    0.575072
      5          6           0       -7.943152    1.151041   -2.346052
      6          7           0       -4.496207   -0.326709    1.176686
      7          6           0       -4.344867   -1.621110    0.735936
      8          6           0       -3.260166   -2.338132    1.520462
      9          6           0       -2.915824   -1.362301    2.707983
     10          6           0       -3.639498   -0.030433    2.223712
     11          6           0       -3.299228   -1.767648    4.120752
     12          6           0       -1.981603   -2.761580    0.669801
     13          6           0       -0.918552   -3.542932    1.471653
     14          6           0        0.300043   -3.839739    0.659070
     15          8           0        0.476733   -3.481282   -0.438116
     16          8           0        1.137284   -4.695940    1.329066
     17          7           0       -4.938301    2.635897    1.488508
     18          6           0       -4.054526    2.423108    2.567839
     19          6           0       -3.797593    3.655419    3.255235
     20          6           0       -4.552170    4.631694    2.573091
     21          6           0       -5.234195    3.919173    1.431909
     22          6           0       -2.885913    3.667777    4.410866
     23          6           0       -4.762204    6.033449    3.011531
     24          8           0       -4.131853    6.521869    3.878956
     25          7           0       -6.904585    2.637711   -0.596988
     26          6           0       -6.838245    3.992995   -0.476527
     27          6           0       -7.871746    4.630154   -1.404496
     28          6           0       -8.423056    3.679065   -2.123322
     29          6           0       -7.793412    2.386231   -1.683414
     30          6           0       -8.258923    6.036300   -1.232084
     31          6           0       -9.375094    3.822092   -3.236475
     32          6           0       -8.759313    3.749608   -4.694020
     33          7           0       -6.388045   -0.229141   -1.007861
     34          6           0       -7.273509    0.061365   -2.146592
     35          6           0       -7.357761   -1.292284   -2.882697
     36          6           0       -6.568678   -2.140358   -2.140948
     37          6           0       -5.899569   -1.453687   -1.109273
     38          6           0       -8.194639   -1.678676   -3.966108
     39          6           0       -6.041270   -3.496555   -2.135688
     40          8           0       -6.386641   -4.530891   -2.790272
     41          6           0       -4.899652   -3.581226   -0.985343
     42          6           0       -5.200903   -4.658220    0.120681
     43          8           0       -5.524001   -4.464281    1.256879
     44          8           0       -4.977705   -5.845833   -0.461502
     45          6           0       -5.308786   -6.954693    0.379035
     46          6           0        2.328367   -5.113626    0.705680
     47          6           0        3.479850   -4.196072    1.014665
     48          6           0        4.005311   -3.331960    0.299239
     49          6           0        3.559248   -3.044229   -1.220466
     50          6           0        5.141624   -2.454620    0.716391
     51          6           0        6.494461   -2.710178    0.144340
     52          6           0        7.640225   -1.828321    0.639861
     53          6           0        9.029768   -1.962027   -0.044632
     54          6           0        9.585237   -3.281406    0.107209
     55          6           0        9.814411   -0.753923    0.433081
     56          6           0       11.230614   -0.778335   -0.285271
     57          6           0       12.078123    0.440821    0.121961
     58          6           0       13.427966    0.567539   -0.555929
     59          6           0       14.306850   -0.599775   -0.467115
     60          6           0       14.152124    1.810927   -0.106190
     61          6           0       15.373406    2.171715   -1.061334
     62          6           0       16.020797    3.508204   -0.593930
     63          6           0       17.258795    3.800657   -1.319818
     64          6           0       17.032235    3.898537   -2.839169
     65          6           0       17.973807    5.114961   -0.907763
     66          1           0       -3.000838    1.181855    3.868401
     67          1           0       -6.502271    5.629298    0.833455
     68          1           0       -8.538705    1.239748   -3.313027
     69          1           0       -3.710827   -3.239835    1.797725
     70          1           0       -1.860317   -1.083175    2.808816
     71          1           0       -2.992638   -2.610681    4.353762
     72          1           0       -3.007795   -0.912698    4.865760
     73          1           0       -4.313678   -1.749578    4.259639
     74          1           0       -2.260949   -3.259553   -0.288908
     75          1           0       -1.726378   -1.756165    0.080961
     76          1           0       -0.647480   -2.968379    2.306649
     77          1           0       -1.334694   -4.517980    1.837664
     78          1           0       -1.979087    3.478050    4.008136
     79          1           0       -2.784220    4.799664    4.719071
     80          1           0       -3.179868    2.899992    5.114001
     81          1           0       -5.409491    6.786211    2.575325
     82          1           0      -10.099747    2.875886   -3.162420
     83          1           0       -9.759776    4.736769   -3.113863
     84          1           0       -9.606705    3.692375   -5.315681
     85          1           0       -8.194374    4.563212   -4.830519
     86          1           0       -8.134805    2.854231   -4.977724
     87          1           0       -7.962816   -1.139809   -4.980667
     88          1           0       -8.143040   -2.787729   -4.105064
     89          1           0       -9.076579   -1.283151   -3.659328
     90          1           0       -4.094651   -3.782992   -1.634193
     91          1           0        2.705615   -6.034460    1.187089
     92          1           0        2.067394   -5.308096   -0.317777
     93          1           0        3.798350   -4.116110    2.106069
     94          1           0        2.468270   -3.126504   -1.263489
     95          1           0        3.775353   -1.878893   -1.345440
     96          1           0        3.924394   -3.492526   -2.054128
     97          1           0        4.959628   -1.311583    0.522906
     98          1           0        5.076875   -2.612303    1.896705
     99          1           0        6.585043   -3.738717    0.572658
    100          1           0        6.392709   -2.784691   -1.051539
    101          1           0        7.558485   -0.684438    0.640356
    102          1           0        7.735894   -2.107230    1.573733
    103          1           0        8.989265   -1.696942   -1.108306
    104          1           0        8.847368   -3.941721   -0.133767
    105          1           0       10.446629   -3.218660   -0.434928
    106          1           0        9.850349   -3.485427    1.224155
    107          1           0        9.074777    0.201832    0.239490
    108          1           0        9.896291   -0.952823    1.485909
    109          1           0       11.739254   -1.630859   -0.051077
    110          1           0       11.016939   -0.534330   -1.389406
    111          1           0       11.529958    1.316309    0.184142
    112          1           0       12.220024    0.359412    1.263936
    113          1           0       13.144443    0.728516   -1.578428
    114          1           0       14.775888   -0.903479    0.390385
    115          1           0       13.708676   -1.436922   -0.794961
    116          1           0       15.122333   -0.555726   -1.211541
    117          1           0       13.423874    2.675179   -0.188334
    118          1           0       14.500822    1.674285    0.886985
    119          1           0       16.116733    1.448720   -1.106870
    120          1           0       15.072666    2.345033   -2.080179
    121          1           0       15.309431    4.327642   -0.846555
    122          1           0       16.269878    3.654364    0.458675
    123          1           0       17.775629    2.874915   -1.122040
    124          1           0       16.609719    5.095504   -3.124712
    125          1           0       18.057446    3.908705   -3.319922
    126          1           0       16.513887    3.046422   -3.487985
    127          1           0       18.503087    4.917481    0.170640
    128          1           0       18.932351    5.227754   -1.573147
    129          1           0       17.283247    6.006816   -1.110626
    130          1           0       -5.061321   -7.834712    0.062619
    131          1           0       -6.387937   -7.124425    0.444258
    132          1           0       -4.820110   -6.743665    1.372354
    133          8           0       -7.767633    6.874473   -0.519439
    134          1           0       -9.265544    6.377069   -1.606389
 ---------------------------------------------------------------------

 SCF Done:  E(RCAM-B3LYP) =  -3043.48195738     A.U. after   15 cycles

 Excitation energies and oscillator strengths:

 Excited State   1:      Singlet-A      1.9954 eV  621.36 nm  f=0.2135  <S**2>=0.000
     243 -> 246       -0.23582
     244 -> 245        0.66049
 This state for optimization and/or second-order correction.
 Total Energy, E(TD-HF/TD-KS) =  -3043.40862916
 Copying the excited state density for this state as the 1-particle RhoCI density.

 The electronic state is 1-A.
 Alpha  occ. eigenvalues --  -46.81040 -19.23470 -19.21747 -19.18596 -19.18031
 Alpha  occ. eigenvalues --  -19.17222 -19.17037 -19.15824 -14.38776 -14.37611
 Alpha  occ. eigenvalues --  -14.36382 -14.36312 -10.36188 -10.35147 -10.31821
 Alpha  occ. eigenvalues --  -10.30573 -10.28968 -10.27647 -10.27426 -10.27309
 Alpha  occ. eigenvalues --  -10.26685 -10.26631 -10.26449 -10.26260 -10.26204
 Alpha  occ. eigenvalues --  -10.25855 -10.25565 -10.25549 -10.25165 -10.24554
 Alpha  occ. eigenvalues --  -10.24377 -10.24268 -10.24267 -10.24148 -10.23947
 Alpha  occ. eigenvalues --  -10.23722 -10.23600 -10.23300 -10.23285 -10.23019
 Alpha  occ. eigenvalues --  -10.23000 -10.22899 -10.22726 -10.22670 -10.22657
 Alpha  occ. eigenvalues --  -10.22323 -10.22233 -10.22100 -10.21852 -10.21714
 Alpha  occ. eigenvalues --  -10.21457 -10.21039 -10.20995 -10.20973 -10.20541
 Alpha  occ. eigenvalues --  -10.20375 -10.20134 -10.20029 -10.19932 -10.19920
 Alpha  occ. eigenvalues --  -10.19876 -10.19648 -10.19606 -10.19470 -10.18660
 Alpha  occ. eigenvalues --  -10.18631  -3.09625  -1.84572  -1.84096  -1.84024
 Alpha  occ. eigenvalues --   -1.14987  -1.14772  -1.08309  -1.07792  -1.06965
 Alpha  occ. eigenvalues --   -1.06813  -1.03907  -0.99799  -0.99052  -0.98436
 Alpha  occ. eigenvalues --   -0.97645  -0.88158  -0.86820  -0.86285  -0.86070
 Alpha  occ. eigenvalues --   -0.85427  -0.85208  -0.84919  -0.84550  -0.84092
 Alpha  occ. eigenvalues --   -0.83877  -0.82606  -0.81944  -0.80378  -0.79783
 Alpha  occ. eigenvalues --   -0.79306  -0.78566  -0.78191  -0.77945  -0.76641
 Alpha  occ. eigenvalues --   -0.75688  -0.75162  -0.74553  -0.73218  -0.72761
 Alpha  occ. eigenvalues --   -0.72005  -0.71002  -0.70692  -0.70278  -0.69523
 Alpha  occ. eigenvalues --   -0.69074  -0.68418  -0.68003  -0.67241  -0.66223
 Alpha  occ. eigenvalues --   -0.65451  -0.64812  -0.63917  -0.62633  -0.62178
 Alpha  occ. eigenvalues --   -0.61875  -0.61244  -0.60520  -0.59340  -0.59288
 Alpha  occ. eigenvalues --   -0.58761  -0.57925  -0.57492  -0.57270  -0.57107
 Alpha  occ. eigenvalues --   -0.56525  -0.55932  -0.55590  -0.55323  -0.54829
 Alpha  occ. eigenvalues --   -0.54285  -0.54057  -0.53148  -0.52682  -0.52613
 Alpha  occ. eigenvalues --   -0.52243  -0.52081  -0.51913  -0.51307  -0.51251
 Alpha  occ. eigenvalues --   -0.50705  -0.50556  -0.50043  -0.49923  -0.49440
 Alpha  occ. eigenvalues --   -0.49070  -0.48840  -0.48714  -0.48474  -0.48337
 Alpha  occ. eigenvalues --   -0.48132  -0.47992  -0.47871  -0.47463  -0.47079
 Alpha  occ. eigenvalues --   -0.47056  -0.46588  -0.46454  -0.46249  -0.46106
 Alpha  occ. eigenvalues --   -0.45853  -0.45391  -0.45321  -0.45137  -0.45062
 Alpha  occ. eigenvalues --   -0.44908  -0.44599  -0.44286  -0.44055  -0.43879
 Alpha  occ. eigenvalues --   -0.43680  -0.43622  -0.43323  -0.43302  -0.42919
 Alpha  occ. eigenvalues --   -0.42782  -0.42653  -0.42449  -0.42370  -0.42127
 Alpha  occ. eigenvalues --   -0.41839  -0.41688  -0.41455  -0.41184  -0.41069
 Alpha  occ. eigenvalues --   -0.40919  -0.40562  -0.40495  -0.40418  -0.40248
 Alpha  occ. eigenvalues --   -0.39912  -0.39776  -0.39630  -0.39020  -0.38673
 Alpha  occ. eigenvalues --   -0.38582  -0.38424  -0.38195  -0.38156  -0.37898
 Alpha  occ. eigenvalues --   -0.37879  -0.37481  -0.37292  -0.37121  -0.36930
 Alpha  occ. eigenvalues --   -0.36711  -0.36395  -0.36264  -0.35935  -0.35756
 Alpha  occ. eigenvalues --   -0.35452  -0.35339  -0.34783  -0.34660  -0.34309
 Alpha  occ. eigenvalues --   -0.34145  -0.33713  -0.33556  -0.33411  -0.33337
 Alpha  occ. eigenvalues --   -0.33093  -0.32508  -0.32331  -0.32181  -0.32089
 Alpha  occ. eigenvalues --   -0.31823  -0.31542  -0.31305  -0.30328  -0.29798
 Alpha  occ. eigenvalues --   -0.29074  -0.29020  -0.28052  -0.27731  -0.27536
 Alpha  occ. eigenvalues --   -0.27421  -0.26505  -0.23352  -0.20796
 Alpha virt. eigenvalues --   -0.08093  -0.06198  -0.01682   0.00112   0.00883
 Alpha virt. eigenvalues --    0.03005   0.03700   0.04079   0.04424   0.04757
 Alpha virt. eigenvalues --    0.05851   0.06452   0.07986   0.08410   0.09483

 Mulliken charges:
               1
     1  Mg   0.817150
     2  C    0.052112
     3  C   -0.209704
     4  C   -0.168808
     5  C   -0.182210
     6  N   -0.642050
     7  C    0.304035
     8  C   -0.152245
     9  C   -0.143213
    10  C    0.318241
    11  C   -0.293214
    12  C   -0.186988
    13  C   -0.263671
    14  C    0.603668
    15  O   -0.422580
    16  O   -0.472221
    17  N   -0.702423
    18  C    0.314916
    19  C    0.068027
    20  C   -0.091483
    21  C    0.330163
    22  C   -0.389709
    23  C    0.234607
    24  O   -0.394115
    25  N   -0.647792
    26  C    0.276405
    27  C   -0.023965
    28  C    0.054007
    29  C    0.246235
    30  C    0.232131
    31  C   -0.239989
    32  C   -0.315293
    33  N   -0.777798
    34  C    0.295946
    35  C    0.025302
    36  C    0.060001
    37  C    0.348550
    38  C   -0.398751
    39  C    0.319673
    40  O   -0.484597
    41  C   -0.296133
    42  C    0.638150
    43  O   -0.457546
    44  O   -0.427170
    45  C   -0.084945
    46  C    0.013246
    47  C   -0.152587
    48  C    0.176005
    49  C   -0.393843
    50  C   -0.230388
    51  C   -0.166998
    52  C   -0.149661
    53  C   -0.063117
    54  C   -0.288588
    55  C   -0.180304
    56  C   -0.183697
    57  C   -0.179972
    58  C   -0.041197
    59  C   -0.320081
    60  C   -0.164971
    61  C   -0.196896
    62  C   -0.147967
    63  C   -0.044702
    64  C   -0.292564
    65  C   -0.303409
    66  H    0.074377
    67  H    0.141596
    68  H    0.091929
    69  H    0.129096
    70  H    0.112284
    71  H    0.119463
    72  H    0.088737
    73  H    0.129260
    74  H    0.112876
    75  H    0.103555
    76  H    0.146825
    77  H    0.140429
    78  H    0.144271
    79  H    0.148762
    80  H    0.125204
    81  H    0.076862
    82  H    0.097274
    83  H    0.114137
    84  H    0.122973
    85  H    0.130098
    86  H    0.105397
    87  H    0.118048
    88  H    0.158014
    89  H    0.142552
    90  H    0.167374
    91  H    0.114361
    92  H    0.120740
    93  H    0.071786
    94  H    0.148922
    95  H    0.080479
    96  H    0.124186
    97  H    0.084475
    98  H    0.061670
    99  H    0.093327
   100  H    0.080579
   101  H    0.067452
   102  H    0.101264
   103  H    0.078836
   104  H    0.117841
   105  H    0.107517
   106  H    0.071165
   107  H    0.074046
   108  H    0.092346
   109  H    0.115542
   110  H    0.084344
   111  H    0.094963
   112  H    0.059069
   113  H    0.081787
   114  H    0.110935
   115  H    0.093630
   116  H    0.097675
   117  H    0.078692
   118  H    0.094816
   119  H    0.095354
   120  H    0.101483
   121  H    0.074440
   122  H    0.082677
   123  H    0.088068
   124  H    0.055968
   125  H    0.095497
   126  H    0.091745
   127  H    0.084378
   128  H    0.093697
   129  H    0.109609
   130  H    0.129743
   131  H    0.124942
   132  H    0.121316
   133  O   -0.410924
   134  H    0.059153
 Sum of Mulliken charges =   0.00000

 Dipole moment (field-independent basis, Debye):
    X=              0.4417    Y=             -5.3351    Z=             -1.3046  Tot=              5.5100
 Quadrupole moment (field-independent basis, Debye-Ang):
   XX=           -364.8966   YY=           -432.0946   ZZ=           -391.7373
   XY=              3.2161   XZ=             24.8749   YZ=            -36.9103

 Normal termination of Gaussian 09 at Fri Oct  4 04:48:42 2019.
