 Gaussian 09, Revision D.01,
 Gaussian 09:  ES64L-G09RevD.01 24-Apr-2013

 ----------------------------------------------------------------------
 # td=(NStates=1) iop(3/107=0140000000,3/108=0140000000) iop(3/107=0140
 000000,3/108=0140000000) CAM-B3LYP/6-31G(d,p)
 ----------------------------------------------------------------------

 --
 TD
 --
 Symbolic Z-matrix:
 Charge =  0 Multiplicity = 1

                         Standard orientation:
 ---------------------------------------------------------------------
 Center     Atomic      Atomic             Coordinates (Angstroms)
 Number     Number       Type             X           Y           Z
 ---------------------------------------------------------------------
      1         12           0       -5.673312    1.183321    0.221511
      2          6           0       -5.030959   -2.199265   -0.368126
      3          6           0       -3.414028    1.289488    2.627237
      4          6           0       -6.324062    4.467993    0.658073
      5          6           0       -8.038576    1.092530   -2.365290
      6          7           0       -4.420610   -0.242225    1.034000
      7          6           0       -4.281335   -1.698580    0.766655
      8          6           0       -3.225101   -2.364142    1.588024
      9          6           0       -2.916909   -1.276897    2.606544
     10          6           0       -3.556230   -0.009837    2.125495
     11          6           0       -3.469436   -1.735279    3.962707
     12          6           0       -2.077464   -2.610755    0.643135
     13          6           0       -0.991250   -3.443419    1.310818
     14          6           0        0.195478   -3.881568    0.615125
     15          8           0        0.451141   -3.465480   -0.507065
     16          8           0        1.038226   -4.665017    1.278056
     17          7           0       -4.977434    2.653693    1.414635
     18          6           0       -4.036571    2.513871    2.430999
     19          6           0       -3.669918    3.766709    3.051093
     20          6           0       -4.511478    4.697120    2.458608
     21          6           0       -5.344134    4.025622    1.425471
     22          6           0       -2.786581    4.028244    4.116276
     23          6           0       -4.719931    6.112856    2.760719
     24          8           0       -4.130162    6.705681    3.668593
     25          7           0       -6.919337    2.576131   -0.755899
     26          6           0       -7.070452    3.871662   -0.344057
     27          6           0       -8.123505    4.515614   -1.125309
     28          6           0       -8.537012    3.507621   -2.015582
     29          6           0       -7.920010    2.323213   -1.662957
     30          6           0       -8.420011    5.918687   -1.195018
     31          6           0       -9.523602    3.620871   -3.177640
     32          6           0       -8.731266    3.882778   -4.469104
     33          7           0       -6.441241   -0.096324   -1.118308
     34          6           0       -7.375965   -0.095724   -2.051169
     35          6           0       -7.575573   -1.426690   -2.668636
     36          6           0       -6.648117   -2.110760   -2.081714
     37          6           0       -5.932992   -1.433419   -1.104289
     38          6           0       -8.632935   -1.810284   -3.716489
     39          6           0       -6.186506   -3.582325   -1.977869
     40          8           0       -6.489157   -4.400847   -2.789550
     41          6           0       -5.059544   -3.578962   -0.858726
     42          6           0       -5.377936   -4.678551    0.162441
     43          8           0       -5.650880   -4.451918    1.335080
     44          8           0       -5.071669   -5.968578   -0.307189
     45          6           0       -5.274613   -7.008593    0.533262
     46          6           0        2.382328   -4.980744    0.783400
     47          6           0        3.388423   -4.039323    1.092816
     48          6           0        4.013924   -3.258762    0.236820
     49          6           0        3.790036   -3.150220   -1.226944
     50          6           0        5.175789   -2.305156    0.798967
     51          6           0        6.546008   -2.593453    0.040329
     52          6           0        7.612967   -1.722430    0.628153
     53          6           0        9.028452   -1.889052   -0.042217
     54          6           0        9.530486   -3.347921    0.151625
     55          6           0       10.061007   -0.764127    0.390534
     56          6           0       11.453081   -0.799371   -0.256566
     57          6           0       12.338046    0.386589    0.186989
     58          6           0       13.652142    0.448043   -0.561448
     59          6           0       14.610098   -0.717730   -0.261325
     60          6           0       14.345790    1.810084   -0.183906
     61          6           0       15.589571    1.989588   -0.970949
     62          6           0       16.091259    3.454372   -0.710848
     63          6           0       17.481962    3.714388   -1.397523
     64          6           0       17.498966    3.734279   -2.948181
     65          6           0       17.937163    5.161699   -0.838028
     66          1           0       -2.847322    1.407661    3.574960
     67          1           0       -6.855599    5.631913    0.572878
     68          1           0       -8.732221    1.203352   -3.016894
     69          1           0       -3.488524   -3.252675    2.154704
     70          1           0       -1.828550   -1.053499    2.690051
     71          1           0       -2.950839   -2.699627    4.296112
     72          1           0       -3.131020   -1.171893    4.745566
     73          1           0       -4.478345   -2.056039    4.175243
     74          1           0       -2.630759   -3.189367   -0.177627
     75          1           0       -1.725094   -1.590753    0.221899
     76          1           0       -0.599935   -2.925970    2.268969
     77          1           0       -1.374180   -4.243951    1.765747
     78          1           0       -1.844119    3.868245    3.778775
     79          1           0       -2.937648    5.036600    4.738327
     80          1           0       -2.906706    3.425300    5.165269
     81          1           0       -5.382171    6.740701    2.121934
     82          1           0      -10.078835    2.779834   -3.166511
     83          1           0      -10.230449    4.433813   -2.897216
     84          1           0       -9.347727    3.686400   -5.409324
     85          1           0       -8.205673    4.870661   -4.573629
     86          1           0       -7.903781    3.038847   -4.640520
     87          1           0       -8.470524   -1.258967   -4.628347
     88          1           0       -8.891040   -2.936973   -3.876881
     89          1           0       -9.506936   -1.396121   -3.293267
     90          1           0       -4.230806   -3.834015   -1.405254
     91          1           0        2.636886   -5.833334    1.347722
     92          1           0        2.276975   -5.060969   -0.307144
     93          1           0        3.658172   -3.952117    2.187479
     94          1           0        2.618317   -3.194925   -1.405790
     95          1           0        4.255979   -2.199907   -1.592936
     96          1           0        4.303249   -4.091939   -1.871533
     97          1           0        4.783971   -1.335792    0.418134
     98          1           0        5.356627   -2.421207    1.842660
     99          1           0        6.889886   -3.648325    0.158244
    100          1           0        6.302783   -2.445211   -1.157953
    101          1           0        7.449785   -0.568592    0.375550
    102          1           0        7.764368   -1.820630    1.779972
    103          1           0        9.222584   -1.711210   -1.091459
    104          1           0        8.910789   -4.032217   -0.388234
    105          1           0       10.706504   -3.276641   -0.300412
    106          1           0        9.488378   -3.735235    1.279620
    107          1           0        9.527327    0.078732    0.345491
    108          1           0       10.252386   -0.609436    1.432847
    109          1           0       11.959857   -1.711425    0.059097
    110          1           0       11.232662   -0.690676   -1.371401
    111          1           0       11.598264    1.110395    0.186710
    112          1           0       12.351792    0.319673    1.190750
    113          1           0       13.474148    0.555878   -1.596097
    114          1           0       14.893432   -0.768456    0.944262
    115          1           0       13.962023   -1.672789   -0.321156
    116          1           0       15.336159   -0.571825   -1.037350
    117          1           0       13.692415    2.678969   -0.598861
    118          1           0       14.488904    1.785011    0.810294
    119          1           0       16.491207    1.438134   -0.594278
    120          1           0       15.519072    1.906010   -1.958081
    121          1           0       15.439943    4.130161   -1.052448
    122          1           0       16.128855    3.761957    0.326565
    123          1           0       18.322026    2.970885   -0.819110
    124          1           0       16.659467    4.596713   -3.229464
    125          1           0       18.416536    3.932449   -3.416165
    126          1           0       17.023932    2.834382   -3.360419
    127          1           0       18.005663    5.113782    0.319243
    128          1           0       18.999334    5.258965   -1.249222
    129          1           0       17.379845    6.171175   -1.055464
    130          1           0       -5.499122   -7.882434   -0.125204
    131          1           0       -6.390221   -6.829657    1.089586
    132          1           0       -4.481210   -7.111480    1.335183
    133          8           0       -7.874120    6.792429   -0.560092
    134          1           0       -9.261924    6.287244   -1.770402
 ---------------------------------------------------------------------

 SCF Done:  E(RCAM-B3LYP) =  -3043.44292626     A.U. after   16 cycles

 Excitation energies and oscillator strengths:

 Excited State   1:      Singlet-A      2.0642 eV  600.63 nm  f=0.1185  <S**2>=0.000
     243 -> 246       -0.32281
     244 -> 245        0.62152
 This state for optimization and/or second-order correction.
 Total Energy, E(TD-HF/TD-KS) =  -3043.36706649
 Copying the excited state density for this state as the 1-particle RhoCI density.

 The electronic state is 1-A.
 Alpha  occ. eigenvalues --  -46.80491 -19.23308 -19.21608 -19.19125 -19.18677
 Alpha  occ. eigenvalues --  -19.16849 -19.16120 -19.15796 -14.39498 -14.36440
 Alpha  occ. eigenvalues --  -14.36421 -14.35599 -10.37029 -10.34377 -10.32441
 Alpha  occ. eigenvalues --  -10.29683 -10.29492 -10.28953 -10.28878 -10.27992
 Alpha  occ. eigenvalues --  -10.26801 -10.26536 -10.25939 -10.25811 -10.25737
 Alpha  occ. eigenvalues --  -10.25600 -10.25227 -10.25003 -10.24837 -10.24784
 Alpha  occ. eigenvalues --  -10.24514 -10.24344 -10.24343 -10.24140 -10.23913
 Alpha  occ. eigenvalues --  -10.23634 -10.23563 -10.23542 -10.23300 -10.23236
 Alpha  occ. eigenvalues --  -10.23218 -10.23214 -10.23095 -10.23065 -10.23043
 Alpha  occ. eigenvalues --  -10.22703 -10.22693 -10.22479 -10.22450 -10.22188
 Alpha  occ. eigenvalues --  -10.22099 -10.21968 -10.21916 -10.21903 -10.21866
 Alpha  occ. eigenvalues --  -10.21742 -10.21662 -10.21175 -10.20835 -10.20755
 Alpha  occ. eigenvalues --  -10.20549 -10.19775 -10.19295 -10.19163 -10.19147
 Alpha  occ. eigenvalues --  -10.18501  -3.09159  -1.84090  -1.83634  -1.83577
 Alpha  occ. eigenvalues --   -1.14277  -1.13073  -1.09547  -1.07495  -1.06454
 Alpha  occ. eigenvalues --   -1.05033  -1.03503  -1.00594  -0.98930  -0.98034
 Alpha  occ. eigenvalues --   -0.97055  -0.89969  -0.87447  -0.86231  -0.85780
 Alpha  occ. eigenvalues --   -0.85587  -0.84158  -0.84152  -0.83886  -0.83323
 Alpha  occ. eigenvalues --   -0.82863  -0.82498  -0.82306  -0.80867  -0.80216
 Alpha  occ. eigenvalues --   -0.79145  -0.78436  -0.77591  -0.77324  -0.76652
 Alpha  occ. eigenvalues --   -0.75480  -0.74883  -0.74722  -0.73237  -0.72425
 Alpha  occ. eigenvalues --   -0.70754  -0.70482  -0.70426  -0.70230  -0.69594
 Alpha  occ. eigenvalues --   -0.69057  -0.68985  -0.67928  -0.66685  -0.66376
 Alpha  occ. eigenvalues --   -0.65974  -0.64891  -0.64061  -0.62703  -0.62279
 Alpha  occ. eigenvalues --   -0.61886  -0.60959  -0.60481  -0.59899  -0.59371
 Alpha  occ. eigenvalues --   -0.59033  -0.58182  -0.58057  -0.57533  -0.57414
 Alpha  occ. eigenvalues --   -0.56401  -0.56116  -0.55867  -0.55247  -0.54949
 Alpha  occ. eigenvalues --   -0.54662  -0.53953  -0.53233  -0.52636  -0.52479
 Alpha  occ. eigenvalues --   -0.52380  -0.51922  -0.51712  -0.51233  -0.51060
 Alpha  occ. eigenvalues --   -0.50795  -0.50088  -0.49815  -0.49337  -0.49087
 Alpha  occ. eigenvalues --   -0.48864  -0.48666  -0.48521  -0.48345  -0.48094
 Alpha  occ. eigenvalues --   -0.47814  -0.47595  -0.47473  -0.46949  -0.46713
 Alpha  occ. eigenvalues --   -0.46500  -0.46263  -0.46200  -0.45945  -0.45715
 Alpha  occ. eigenvalues --   -0.45535  -0.45186  -0.45056  -0.44724  -0.44666
 Alpha  occ. eigenvalues --   -0.44519  -0.44417  -0.44224  -0.43926  -0.43703
 Alpha  occ. eigenvalues --   -0.43336  -0.43118  -0.42978  -0.42845  -0.42743
 Alpha  occ. eigenvalues --   -0.42616  -0.42382  -0.42263  -0.42065  -0.41915
 Alpha  occ. eigenvalues --   -0.41815  -0.41717  -0.41240  -0.41105  -0.40890
 Alpha  occ. eigenvalues --   -0.40744  -0.40624  -0.40538  -0.40384  -0.40163
 Alpha  occ. eigenvalues --   -0.40013  -0.39838  -0.39558  -0.39098  -0.39041
 Alpha  occ. eigenvalues --   -0.38790  -0.38734  -0.38371  -0.38198  -0.38152
 Alpha  occ. eigenvalues --   -0.37738  -0.37377  -0.37235  -0.37133  -0.36872
 Alpha  occ. eigenvalues --   -0.36650  -0.36581  -0.36464  -0.36131  -0.35867
 Alpha  occ. eigenvalues --   -0.35542  -0.35451  -0.35251  -0.35128  -0.34690
 Alpha  occ. eigenvalues --   -0.34017  -0.33925  -0.33494  -0.33472  -0.33363
 Alpha  occ. eigenvalues --   -0.33018  -0.32727  -0.32429  -0.32196  -0.31922
 Alpha  occ. eigenvalues --   -0.31373  -0.31130  -0.30125  -0.29656  -0.28877
 Alpha  occ. eigenvalues --   -0.28806  -0.27977  -0.27816  -0.27636  -0.27424
 Alpha  occ. eigenvalues --   -0.27247  -0.26576  -0.22758  -0.21387
 Alpha virt. eigenvalues --   -0.07810  -0.06774  -0.01784  -0.00499   0.00356
 Alpha virt. eigenvalues --    0.01202   0.02761   0.03581   0.04278   0.04655
 Alpha virt. eigenvalues --    0.05118   0.06212   0.08263   0.09274   0.09510

 Mulliken charges:
               1
     1  Mg   0.811675
     2  C    0.048227
     3  C   -0.214355
     4  C   -0.195364
     5  C   -0.119001
     6  N   -0.621831
     7  C    0.281848
     8  C   -0.134638
     9  C   -0.149016
    10  C    0.366195
    11  C   -0.330184
    12  C   -0.154196
    13  C   -0.256346
    14  C    0.593760
    15  O   -0.486406
    16  O   -0.477653
    17  N   -0.702484
    18  C    0.305434
    19  C    0.098622
    20  C   -0.009777
    21  C    0.292525
    22  C   -0.415116
    23  C    0.229806
    24  O   -0.426032
    25  N   -0.670212
    26  C    0.306888
    27  C   -0.048238
    28  C    0.017612
    29  C    0.265699
    30  C    0.241028
    31  C   -0.227468
    32  C   -0.312739
    33  N   -0.723360
    34  C    0.279117
    35  C    0.016418
    36  C   -0.010180
    37  C    0.310277
    38  C   -0.371648
    39  C    0.364441
    40  O   -0.407677
    41  C   -0.329156
    42  C    0.610008
    43  O   -0.450267
    44  O   -0.429889
    45  C   -0.078191
    46  C    0.019352
    47  C   -0.130937
    48  C    0.153583
    49  C   -0.386456
    50  C   -0.223804
    51  C   -0.167660
    52  C   -0.163134
    53  C   -0.050170
    54  C   -0.296085
    55  C   -0.200251
    56  C   -0.190512
    57  C   -0.176884
    58  C   -0.066113
    59  C   -0.295712
    60  C   -0.147006
    61  C   -0.180719
    62  C   -0.176759
    63  C   -0.045476
    64  C   -0.300037
    65  C   -0.309890
    66  H    0.069410
    67  H    0.149909
    68  H    0.042335
    69  H    0.133327
    70  H    0.114888
    71  H    0.091468
    72  H    0.121233
    73  H    0.141122
    74  H    0.102168
    75  H    0.124050
    76  H    0.128682
    77  H    0.138094
    78  H    0.139706
    79  H    0.162357
    80  H    0.101191
    81  H    0.096450
    82  H    0.122666
    83  H    0.108792
    84  H    0.102831
    85  H    0.124955
    86  H    0.098811
    87  H    0.135349
    88  H    0.140081
    89  H    0.131278
    90  H    0.185329
    91  H    0.117918
    92  H    0.122095
    93  H    0.071870
    94  H    0.154888
    95  H    0.109682
    96  H    0.097076
    97  H    0.110501
    98  H    0.100107
    99  H    0.101904
   100  H    0.078485
   101  H    0.073696
   102  H    0.093213
   103  H    0.092858
   104  H    0.110309
   105  H    0.069907
   106  H    0.076934
   107  H    0.092490
   108  H    0.073546
   109  H    0.103408
   110  H    0.078042
   111  H    0.091394
   112  H    0.091793
   113  H    0.086372
   114  H    0.078930
   115  H    0.094465
   116  H    0.119982
   117  H    0.074767
   118  H    0.096870
   119  H    0.091019
   120  H    0.098104
   121  H    0.096753
   122  H    0.087898
   123  H    0.053903
   124  H    0.077920
   125  H    0.120025
   126  H    0.104988
   127  H    0.088695
   128  H    0.087577
   129  H    0.091553
   130  H    0.130106
   131  H    0.088508
   132  H    0.117075
   133  O   -0.424389
   134  H    0.066795
 Sum of Mulliken charges =   0.00000

 Dipole moment (field-independent basis, Debye):
    X=              1.3035    Y=             -5.6425    Z=             -0.1198  Tot=              5.7924
 Quadrupole moment (field-independent basis, Debye-Ang):
   XX=           -377.4413   YY=           -443.2182   ZZ=           -390.0424
   XY=             19.8574   XZ=             18.3544   YZ=            -33.9383

 Normal termination of Gaussian 09 at Fri Oct  4 12:40:06 2019.
