 Gaussian 09, Revision D.01,
 Gaussian 09:  ES64L-G09RevD.01 24-Apr-2013

 ----------------------------------------------------------------------
 # td=(NStates=1) iop(3/107=0140000000,3/108=0140000000) iop(3/107=0140
 000000,3/108=0140000000) CAM-B3LYP/6-31G(d,p)
 ----------------------------------------------------------------------

 --
 TD
 --
 Symbolic Z-matrix:
 Charge =  0 Multiplicity = 1

                         Standard orientation:
 ---------------------------------------------------------------------
 Center     Atomic      Atomic             Coordinates (Angstroms)
 Number     Number       Type             X           Y           Z
 ---------------------------------------------------------------------
      1         12           0       -5.675512    1.229365    0.175137
      2          6           0       -5.066773   -2.191846   -0.439361
      3          6           0       -3.268555    1.193686    2.678397
      4          6           0       -6.154475    4.535630    0.686178
      5          6           0       -8.051282    1.270822   -2.428134
      6          7           0       -4.405331   -0.320926    1.091345
      7          6           0       -4.373258   -1.615370    0.653522
      8          6           0       -3.199835   -2.313150    1.414042
      9          6           0       -2.998889   -1.290414    2.500786
     10          6           0       -3.669790   -0.076048    2.024400
     11          6           0       -3.488985   -1.729649    3.951470
     12          6           0       -2.054811   -2.690718    0.552127
     13          6           0       -0.977533   -3.600990    1.300784
     14          6           0        0.220375   -3.793860    0.590079
     15          8           0        0.566704   -3.271638   -0.446003
     16          8           0        0.995935   -4.689988    1.329489
     17          7           0       -4.819254    2.653971    1.357463
     18          6           0       -3.900874    2.417270    2.360278
     19          6           0       -3.603290    3.644107    3.080995
     20          6           0       -4.486913    4.577185    2.626929
     21          6           0       -5.241427    3.926379    1.509463
     22          6           0       -2.559919    3.762045    4.268470
     23          6           0       -4.595601    6.028704    2.880840
     24          8           0       -3.908581    6.501651    3.809413
     25          7           0       -6.845109    2.698692   -0.665989
     26          6           0       -6.877107    3.945039   -0.390167
     27          6           0       -7.949539    4.604643   -1.195086
     28          6           0       -8.468461    3.649352   -2.035930
     29          6           0       -7.813422    2.409006   -1.732960
     30          6           0       -8.405148    6.030352   -1.114447
     31          6           0       -9.487844    3.852506   -3.059307
     32          6           0       -8.851333    3.932247   -4.439833
     33          7           0       -6.472300   -0.117997   -1.119308
     34          6           0       -7.451360   -0.034469   -2.048540
     35          6           0       -7.647504   -1.333138   -2.659556
     36          6           0       -6.702959   -2.170538   -2.009106
     37          6           0       -6.077418   -1.446808   -1.045721
     38          6           0       -8.698569   -1.745420   -3.673799
     39          6           0       -6.295080   -3.504009   -2.037352
     40          8           0       -6.614541   -4.479764   -2.639503
     41          6           0       -5.004078   -3.592904   -0.910662
     42          6           0       -5.357682   -4.701272    0.038205
     43          8           0       -5.881211   -4.553811    1.161960
     44          8           0       -4.873266   -5.865069   -0.378296
     45          6           0       -5.308648   -6.931093    0.502995
     46          6           0        2.326170   -5.012999    0.721010
     47          6           0        3.434221   -4.138767    1.059813
     48          6           0        4.058107   -3.298470    0.231799
     49          6           0        3.779362   -3.070345   -1.250279
     50          6           0        5.265628   -2.483473    0.840539
     51          6           0        6.522324   -2.599220    0.107359
     52          6           0        7.630704   -1.791447    0.685271
     53          6           0        9.025423   -1.876892   -0.004916
     54          6           0        9.549227   -3.287727   -0.016717
     55          6           0        9.973959   -0.780740    0.409065
     56          6           0       11.324990   -0.788972   -0.300439
     57          6           0       12.258824    0.290212    0.159035
     58          6           0       13.580959    0.410924   -0.601816
     59          6           0       14.508149   -0.819956   -0.494389
     60          6           0       14.282292    1.679912   -0.286889
     61          6           0       15.529210    2.034742   -0.967098
     62          6           0       16.060530    3.464898   -0.737102
     63          6           0       17.348818    3.887825   -1.290815
     64          6           0       17.254112    4.031843   -2.929332
     65          6           0       17.885521    5.177039   -0.682747
     66          1           0       -2.786066    1.066346    3.583705
     67          1           0       -6.152807    5.822464    0.827467
     68          1           0       -8.796365    1.311897   -3.246055
     69          1           0       -3.837229   -3.065628    1.959550
     70          1           0       -1.940120   -0.829534    2.648291
     71          1           0       -3.023003   -2.858573    4.252175
     72          1           0       -3.072281   -1.134305    4.904469
     73          1           0       -4.576492   -1.910066    4.058003
     74          1           0       -2.222752   -3.243396   -0.137342
     75          1           0       -1.549518   -1.931274    0.155633
     76          1           0       -0.588454   -3.004443    2.290597
     77          1           0       -1.338165   -4.596391    1.804473
     78          1           0       -1.617238    3.573317    4.140541
     79          1           0       -2.704284    4.886257    4.602375
     80          1           0       -3.021392    3.127618    4.935176
     81          1           0       -5.149541    6.677452    2.241393
     82          1           0      -10.253109    2.915803   -2.957444
     83          1           0      -10.210432    4.671450   -2.814990
     84          1           0       -9.513586    4.244814   -5.198816
     85          1           0       -7.778411    4.644945   -4.462659
     86          1           0       -8.512874    2.885012   -4.894454
     87          1           0       -8.315879   -1.100643   -4.517721
     88          1           0       -8.880994   -2.748658   -3.867969
     89          1           0       -9.786689   -1.166535   -3.266598
     90          1           0       -3.981062   -3.672509   -1.547915
     91          1           0        2.460422   -5.997590    1.147869
     92          1           0        2.155213   -5.013302   -0.361429
     93          1           0        3.430327   -4.182471    2.290504
     94          1           0        2.925715   -3.429603   -1.584200
     95          1           0        4.021891   -2.004134   -1.427243
     96          1           0        4.512561   -3.636960   -1.761884
     97          1           0        4.913689   -1.530030    0.753959
     98          1           0        5.051976   -2.774135    1.887622
     99          1           0        6.885003   -3.674385    0.291935
    100          1           0        6.499834   -2.529741   -0.968571
    101          1           0        7.383699   -0.822172    0.684268
    102          1           0        7.870646   -1.893965    1.664155
    103          1           0        8.752765   -1.539300   -1.125045
    104          1           0        8.837977   -4.080495   -0.196083
    105          1           0       10.512303   -3.588476   -0.486923
    106          1           0        9.865828   -3.530556    1.018884
    107          1           0        9.342364    0.156701    0.165868
    108          1           0       10.187963   -0.912083    1.534140
    109          1           0       11.598647   -1.732648   -0.033191
    110          1           0       11.252867   -0.929343   -1.329147
    111          1           0       11.562017    1.200423    0.126151
    112          1           0       12.509004    0.150286    1.316580
    113          1           0       13.231506    0.607773   -1.668096
    114          1           0       14.723028   -0.730667    0.680995
    115          1           0       13.890952   -1.870279   -0.857556
    116          1           0       15.559469   -0.851991   -1.004832
    117          1           0       13.459464    2.470859   -0.543538
    118          1           0       14.497925    1.568495    0.832583
    119          1           0       16.230574    1.377621   -0.897597
    120          1           0       15.404726    2.018387   -2.089756
    121          1           0       15.308788    4.180766   -1.101372
    122          1           0       16.027925    3.514450    0.275451
    123          1           0       18.119523    3.081442   -1.265967
    124          1           0       16.375995    4.777828   -3.143182
    125          1           0       18.138807    4.407844   -3.307852
    126          1           0       16.984076    3.191230   -3.290252
    127          1           0       18.039738    4.808880    0.371070
    128          1           0       18.791151    5.321541   -0.845249
    129          1           0       17.111140    5.893678   -0.831041
    130          1           0       -4.962614   -8.020528    0.278102
    131          1           0       -6.386678   -7.061225    0.767544
    132          1           0       -4.882702   -6.740877    1.515070
    133          8           0       -7.770076    6.878897   -0.369719
    134          1           0       -9.189655    6.198580   -1.767681
 ---------------------------------------------------------------------

 SCF Done:  E(RCAM-B3LYP) =  -3043.33706404     A.U. after   15 cycles

 Excitation energies and oscillator strengths:

 Excited State   1:      Singlet-A      2.1398 eV  579.42 nm  f=0.1593  <S**2>=0.000
     243 -> 246        0.28840
     244 -> 245        0.62835
 This state for optimization and/or second-order correction.
 Total Energy, E(TD-HF/TD-KS) =  -3043.25842836
 Copying the excited state density for this state as the 1-particle RhoCI density.

 The electronic state is 1-A.
 Alpha  occ. eigenvalues --  -46.81977 -19.23964 -19.20456 -19.17430 -19.17318
 Alpha  occ. eigenvalues --  -19.17160 -19.17138 -19.16532 -14.38839 -14.37311
 Alpha  occ. eigenvalues --  -14.36733 -14.36645 -10.35325 -10.34020 -10.30964
 Alpha  occ. eigenvalues --  -10.30890 -10.30663 -10.27913 -10.27202 -10.27189
 Alpha  occ. eigenvalues --  -10.27154 -10.26952 -10.26522 -10.26430 -10.26270
 Alpha  occ. eigenvalues --  -10.25979 -10.25767 -10.25734 -10.25316 -10.25301
 Alpha  occ. eigenvalues --  -10.25211 -10.25077 -10.24814 -10.24811 -10.24592
 Alpha  occ. eigenvalues --  -10.24560 -10.24261 -10.24255 -10.24225 -10.23797
 Alpha  occ. eigenvalues --  -10.23629 -10.23617 -10.23601 -10.23340 -10.23238
 Alpha  occ. eigenvalues --  -10.23051 -10.22316 -10.22013 -10.21885 -10.21686
 Alpha  occ. eigenvalues --  -10.21672 -10.21322 -10.21227 -10.21075 -10.21036
 Alpha  occ. eigenvalues --  -10.20780 -10.20775 -10.20695 -10.20191 -10.20084
 Alpha  occ. eigenvalues --  -10.19011 -10.19009 -10.18953 -10.18763 -10.18414
 Alpha  occ. eigenvalues --  -10.18362  -3.10482  -1.85433  -1.84950  -1.84878
 Alpha  occ. eigenvalues --   -1.14274  -1.11147  -1.08294  -1.05570  -1.04420
 Alpha  occ. eigenvalues --   -1.03510  -1.03132  -1.02886  -1.00706  -0.99888
 Alpha  occ. eigenvalues --   -0.99398  -0.89146  -0.87266  -0.86903  -0.86609
 Alpha  occ. eigenvalues --   -0.86128  -0.84981  -0.84160  -0.83716  -0.83230
 Alpha  occ. eigenvalues --   -0.82862  -0.82288  -0.82209  -0.81207  -0.79841
 Alpha  occ. eigenvalues --   -0.78927  -0.78685  -0.78264  -0.77162  -0.76791
 Alpha  occ. eigenvalues --   -0.76003  -0.75028  -0.74219  -0.72864  -0.72684
 Alpha  occ. eigenvalues --   -0.72215  -0.72197  -0.70836  -0.70275  -0.69750
 Alpha  occ. eigenvalues --   -0.69525  -0.68996  -0.67925  -0.67490  -0.67447
 Alpha  occ. eigenvalues --   -0.66626  -0.65858  -0.64846  -0.63558  -0.63188
 Alpha  occ. eigenvalues --   -0.61661  -0.61537  -0.61126  -0.59374  -0.58723
 Alpha  occ. eigenvalues --   -0.58384  -0.58047  -0.57728  -0.57225  -0.56676
 Alpha  occ. eigenvalues --   -0.56510  -0.55934  -0.55148  -0.55066  -0.54311
 Alpha  occ. eigenvalues --   -0.54077  -0.53415  -0.53011  -0.52795  -0.52304
 Alpha  occ. eigenvalues --   -0.51830  -0.51469  -0.51405  -0.51072  -0.50921
 Alpha  occ. eigenvalues --   -0.50887  -0.50477  -0.50174  -0.49486  -0.49413
 Alpha  occ. eigenvalues --   -0.49074  -0.48980  -0.48763  -0.48533  -0.48115
 Alpha  occ. eigenvalues --   -0.48067  -0.47813  -0.47521  -0.47375  -0.47097
 Alpha  occ. eigenvalues --   -0.46900  -0.46749  -0.46219  -0.45918  -0.45763
 Alpha  occ. eigenvalues --   -0.45578  -0.45363  -0.45264  -0.45055  -0.44902
 Alpha  occ. eigenvalues --   -0.44595  -0.44479  -0.44437  -0.44011  -0.43921
 Alpha  occ. eigenvalues --   -0.43665  -0.43542  -0.43242  -0.43096  -0.42844
 Alpha  occ. eigenvalues --   -0.42696  -0.42479  -0.42465  -0.42103  -0.42027
 Alpha  occ. eigenvalues --   -0.41648  -0.41375  -0.41290  -0.40943  -0.40810
 Alpha  occ. eigenvalues --   -0.40613  -0.40564  -0.40201  -0.40035  -0.39773
 Alpha  occ. eigenvalues --   -0.39684  -0.39553  -0.39270  -0.39220  -0.39174
 Alpha  occ. eigenvalues --   -0.39145  -0.38876  -0.38820  -0.38745  -0.38454
 Alpha  occ. eigenvalues --   -0.38187  -0.37796  -0.37692  -0.37309  -0.36901
 Alpha  occ. eigenvalues --   -0.36779  -0.36754  -0.36700  -0.36411  -0.35651
 Alpha  occ. eigenvalues --   -0.35406  -0.35156  -0.34729  -0.34513  -0.34194
 Alpha  occ. eigenvalues --   -0.34175  -0.33844  -0.33429  -0.33227  -0.33074
 Alpha  occ. eigenvalues --   -0.32591  -0.31872  -0.31777  -0.31678  -0.31403
 Alpha  occ. eigenvalues --   -0.31247  -0.30923  -0.30660  -0.30553  -0.30070
 Alpha  occ. eigenvalues --   -0.28918  -0.28472  -0.28155  -0.27773  -0.27416
 Alpha  occ. eigenvalues --   -0.27233  -0.27046  -0.22818  -0.21531
 Alpha virt. eigenvalues --   -0.08052  -0.06670  -0.02132  -0.01350   0.00701
 Alpha virt. eigenvalues --    0.02682   0.03254   0.03497   0.03932   0.04089
 Alpha virt. eigenvalues --    0.04783   0.05721   0.07359   0.08227   0.08766

 Mulliken charges:
               1
     1  Mg   0.827461
     2  C    0.083952
     3  C   -0.172370
     4  C   -0.212804
     5  C   -0.162288
     6  N   -0.585037
     7  C    0.211784
     8  C   -0.161491
     9  C   -0.176236
    10  C    0.386129
    11  C   -0.316948
    12  C   -0.121238
    13  C   -0.292493
    14  C    0.635711
    15  O   -0.480470
    16  O   -0.511536
    17  N   -0.712824
    18  C    0.311813
    19  C    0.016282
    20  C   -0.030257
    21  C    0.349311
    22  C   -0.370865
    23  C    0.250313
    24  O   -0.424775
    25  N   -0.699329
    26  C    0.347163
    27  C   -0.058566
    28  C    0.076293
    29  C    0.293781
    30  C    0.261335
    31  C   -0.266827
    32  C   -0.294277
    33  N   -0.726357
    34  C    0.266778
    35  C   -0.011688
    36  C    0.059344
    37  C    0.307026
    38  C   -0.341833
    39  C    0.310884
    40  O   -0.442314
    41  C   -0.354734
    42  C    0.651435
    43  O   -0.505073
    44  O   -0.418137
    45  C   -0.105679
    46  C    0.007315
    47  C   -0.121517
    48  C    0.089799
    49  C   -0.349066
    50  C   -0.218756
    51  C   -0.174052
    52  C   -0.162382
    53  C   -0.052529
    54  C   -0.330643
    55  C   -0.179224
    56  C   -0.166970
    57  C   -0.154355
    58  C   -0.058120
    59  C   -0.287019
    60  C   -0.149164
    61  C   -0.173161
    62  C   -0.146045
    63  C   -0.094610
    64  C   -0.311509
    65  C   -0.271853
    66  H    0.087739
    67  H    0.124276
    68  H    0.103308
    69  H    0.138563
    70  H    0.102198
    71  H    0.083455
    72  H    0.103491
    73  H    0.134579
    74  H    0.117354
    75  H    0.129528
    76  H    0.127849
    77  H    0.139171
    78  H    0.133523
    79  H    0.156922
    80  H    0.134092
    81  H    0.107655
    82  H    0.097501
    83  H    0.119849
    84  H    0.127774
    85  H    0.094177
    86  H    0.102160
    87  H    0.129486
    88  H    0.153573
    89  H    0.082796
    90  H    0.150709
    91  H    0.111618
    92  H    0.109953
    93  H    0.067821
    94  H    0.142050
    95  H    0.113514
    96  H    0.124798
    97  H    0.109574
    98  H    0.104626
    99  H    0.089350
   100  H    0.105321
   101  H    0.091383
   102  H    0.097664
   103  H    0.049355
   104  H    0.108145
   105  H    0.102945
   106  H    0.091838
   107  H    0.077222
   108  H    0.075608
   109  H    0.107015
   110  H    0.096081
   111  H    0.088290
   112  H    0.064996
   113  H    0.073551
   114  H    0.082167
   115  H    0.077018
   116  H    0.107344
   117  H    0.077963
   118  H    0.067863
   119  H    0.097296
   120  H    0.073291
   121  H    0.081346
   122  H    0.093060
   123  H    0.072719
   124  H    0.070044
   125  H    0.103341
   126  H    0.113906
   127  H    0.084503
   128  H    0.105201
   129  H    0.108479
   130  H    0.114746
   131  H    0.141063
   132  H    0.127086
   133  O   -0.458332
   134  H    0.088962
 Sum of Mulliken charges =   0.00000

 Dipole moment (field-independent basis, Debye):
    X=              0.5777    Y=             -3.1066    Z=             -1.2945  Tot=              3.4147
 Quadrupole moment (field-independent basis, Debye-Ang):
   XX=           -357.7407   YY=           -441.0886   ZZ=           -392.9475
   XY=             -6.8781   XZ=             23.1413   YZ=            -33.4664

 Normal termination of Gaussian 09 at Tue Oct  8 01:23:02 2019.
