 Gaussian 09, Revision D.01,
 Gaussian 09:  ES64L-G09RevD.01 24-Apr-2013

 ----------------------------------------------------------------------
 # td=(NStates=1) iop(3/107=0140000000,3/108=0140000000) iop(3/107=0140
 000000,3/108=0140000000) CAM-B3LYP/6-31G(d,p)
 ----------------------------------------------------------------------

 --
 TD
 --
 Symbolic Z-matrix:
 Charge =  0 Multiplicity = 1

                         Standard orientation:
 ---------------------------------------------------------------------
 Center     Atomic      Atomic             Coordinates (Angstroms)
 Number     Number       Type             X           Y           Z
 ---------------------------------------------------------------------
      1         12           0       -5.699592    1.276432    0.186961
      2          6           0       -5.074948   -2.151561   -0.319368
      3          6           0       -3.494374    1.128038    2.720961
      4          6           0       -6.159925    4.491302    0.602667
      5          6           0       -7.906906    1.223876   -2.341640
      6          7           0       -4.348142   -0.343469    0.942669
      7          6           0       -4.239563   -1.656497    0.621301
      8          6           0       -3.212421   -2.353830    1.395344
      9          6           0       -3.011249   -1.299177    2.530627
     10          6           0       -3.671128   -0.071739    2.204815
     11          6           0       -3.349580   -1.875727    3.881189
     12          6           0       -1.935472   -2.749420    0.630250
     13          6           0       -1.046042   -3.560585    1.418007
     14          6           0        0.189656   -3.928622    0.742370
     15          8           0        0.394245   -3.669712   -0.503736
     16          8           0        1.032066   -4.698657    1.474392
     17          7           0       -4.803508    2.607493    1.444970
     18          6           0       -3.964506    2.385301    2.448562
     19          6           0       -3.699148    3.630422    3.135079
     20          6           0       -4.490456    4.582582    2.559161
     21          6           0       -5.233172    3.975774    1.387703
     22          6           0       -2.840227    3.768267    4.415507
     23          6           0       -4.672884    6.046723    2.928518
     24          8           0       -4.221637    6.549365    4.048670
     25          7           0       -6.852942    2.649826   -0.732384
     26          6           0       -6.841721    3.976604   -0.466058
     27          6           0       -7.864104    4.689606   -1.258895
     28          6           0       -8.354272    3.752659   -2.126460
     29          6           0       -7.751546    2.485246   -1.776046
     30          6           0       -8.285781    6.127290   -1.151362
     31          6           0       -9.318118    3.909877   -3.256558
     32          6           0       -8.541193    3.908979   -4.572906
     33          7           0       -6.456810   -0.151809   -1.046210
     34          6           0       -7.380876   -0.035002   -2.018019
     35          6           0       -7.556407   -1.314461   -2.724741
     36          6           0       -6.687386   -2.200423   -2.101466
     37          6           0       -5.954528   -1.453370   -1.021730
     38          6           0       -8.487860   -1.602056   -3.865310
     39          6           0       -6.200291   -3.574278   -2.057800
     40          8           0       -6.490361   -4.538960   -2.752002
     41          6           0       -4.981618   -3.557521   -0.966778
     42          6           0       -5.343423   -4.676566   -0.007651
     43          8           0       -5.740666   -4.494264    1.186891
     44          8           0       -5.085976   -5.773915   -0.472889
     45          6           0       -5.292775   -6.978398    0.379127
     46          6           0        2.315137   -5.053168    0.872995
     47          6           0        3.320651   -4.007130    1.139111
     48          6           0        4.025117   -3.227167    0.233883
     49          6           0        3.669029   -3.160567   -1.208038
     50          6           0        5.205966   -2.285261    0.748341
     51          6           0        6.550900   -2.751360    0.231876
     52          6           0        7.537906   -1.776109    0.722237
     53          6           0        8.989032   -1.968209    0.009479
     54          6           0        9.541901   -3.350886    0.213450
     55          6           0        9.957947   -0.804217    0.384929
     56          6           0       11.359968   -0.899587   -0.277907
     57          6           0       12.239921    0.264285    0.126334
     58          6           0       13.529572    0.465700   -0.694795
     59          6           0       14.545508   -0.681393   -0.618274
     60          6           0       14.166766    1.718897   -0.228257
     61          6           0       15.432059    2.204806   -1.063190
     62          6           0       16.092328    3.463473   -0.610986
     63          6           0       17.346849    3.861680   -1.422740
     64          6           0       17.172692    3.951162   -2.884022
     65          6           0       17.846049    5.159858   -0.775381
     66          1           0       -2.770416    1.376756    3.565705
     67          1           0       -6.305374    5.622707    0.558347
     68          1           0       -8.940811    0.958776   -2.987915
     69          1           0       -3.776971   -3.348084    1.805416
     70          1           0       -2.002043   -1.037006    2.890876
     71          1           0       -2.897640   -2.865757    3.992485
     72          1           0       -2.814405   -1.262609    4.891342
     73          1           0       -4.449321   -2.022532    3.969928
     74          1           0       -2.095010   -3.172587   -0.226081
     75          1           0       -1.440339   -1.763371    0.661066
     76          1           0       -0.762777   -2.733995    2.303918
     77          1           0       -1.373456   -4.533817    2.027110
     78          1           0       -1.794232    3.850890    4.574185
     79          1           0       -3.260046    4.717988    5.288004
     80          1           0       -2.865239    2.871564    4.934694
     81          1           0       -5.304187    6.537414    2.112906
     82          1           0      -10.078253    3.100031   -3.157183
     83          1           0      -10.053935    4.805524   -3.215555
     84          1           0       -9.202786    3.902232   -5.376067
     85          1           0       -8.032981    4.834250   -4.608252
     86          1           0       -7.962223    2.843171   -4.754449
     87          1           0       -8.305706   -1.074661   -4.823052
     88          1           0       -8.697987   -2.679831   -4.172707
     89          1           0       -9.611334   -1.295589   -3.471477
     90          1           0       -4.038177   -3.997838   -1.455020
     91          1           0        2.728851   -6.053256    1.274585
     92          1           0        2.336408   -5.105054   -0.191780
     93          1           0        3.646461   -3.761146    2.244683
     94          1           0        2.646600   -3.379460   -1.655882
     95          1           0        3.785555   -2.084376   -1.369543
     96          1           0        4.274595   -3.778767   -1.898559
     97          1           0        4.919004   -1.311095    0.349160
     98          1           0        5.257203   -2.208198    1.915890
     99          1           0        6.590316   -3.668077    0.369155
    100          1           0        6.400753   -2.669067   -0.937737
    101          1           0        7.442683   -0.725429    0.760629
    102          1           0        7.797476   -2.149549    1.702741
    103          1           0        8.749152   -1.768157   -1.056297
    104          1           0        8.832308   -4.158764   -0.092369
    105          1           0       10.356500   -3.326356   -0.356604
    106          1           0       10.022005   -3.482154    1.241440
    107          1           0        9.490580    0.064734    0.234851
    108          1           0       10.055160   -0.888527    1.629115
    109          1           0       11.717544   -1.942621   -0.309657
    110          1           0       11.239828   -0.647113   -1.469011
    111          1           0       11.679055    1.091309    0.095358
    112          1           0       12.643635    0.515862    1.158251
    113          1           0       13.109615    0.801178   -1.701499
    114          1           0       14.764299   -0.644582    0.425279
    115          1           0       14.084844   -1.498662   -0.963075
    116          1           0       15.511590   -0.434760   -1.029899
    117          1           0       13.534684    2.476594   -0.263056
    118          1           0       14.427592    1.596469    0.943510
    119          1           0       16.246559    1.323360   -1.065310
    120          1           0       15.150504    2.117491   -2.237607
    121          1           0       15.316510    4.308062   -0.618353
    122          1           0       16.341366    3.285690    0.481445
    123          1           0       18.176557    3.219087   -1.270343
    124          1           0       16.260718    4.478254   -3.196803
    125          1           0       18.075447    4.473646   -3.134215
    126          1           0       16.861134    3.001723   -3.331799
    127          1           0       18.031317    5.029587    0.376586
    128          1           0       18.815702    5.763625   -1.098470
    129          1           0       17.104027    6.063306   -0.863220
    130          1           0       -5.125414   -7.982470   -0.012068
    131          1           0       -6.388620   -6.962012    0.471720
    132          1           0       -4.637849   -6.873439    1.327797
    133          8           0       -7.887000    6.883858   -0.221259
    134          1           0       -8.963403    6.537564   -1.999289
 ---------------------------------------------------------------------

 SCF Done:  E(RCAM-B3LYP) =  -3043.36483741     A.U. after   16 cycles

 Excitation energies and oscillator strengths:

 Excited State   1:      Singlet-A      2.0260 eV  611.97 nm  f=0.2206  <S**2>=0.000
     243 -> 246        0.23373
     244 -> 245        0.65809
 This state for optimization and/or second-order correction.
 Total Energy, E(TD-HF/TD-KS) =  -3043.29038380
 Copying the excited state density for this state as the 1-particle RhoCI density.

 The electronic state is 1-A.
 Alpha  occ. eigenvalues --  -46.81295 -19.24574 -19.23192 -19.18205 -19.17395
 Alpha  occ. eigenvalues --  -19.17376 -19.16626 -19.14707 -14.38158 -14.37208
 Alpha  occ. eigenvalues --  -14.36686 -14.36376 -10.35524 -10.34282 -10.32381
 Alpha  occ. eigenvalues --  -10.31805 -10.31449 -10.29804 -10.28048 -10.26981
 Alpha  occ. eigenvalues --  -10.26773 -10.26507 -10.26431 -10.26385 -10.26318
 Alpha  occ. eigenvalues --  -10.26020 -10.26019 -10.25923 -10.25668 -10.25454
 Alpha  occ. eigenvalues --  -10.25113 -10.25022 -10.24830 -10.24659 -10.24608
 Alpha  occ. eigenvalues --  -10.24281 -10.23799 -10.23766 -10.23733 -10.23696
 Alpha  occ. eigenvalues --  -10.23661 -10.23013 -10.22956 -10.22921 -10.22893
 Alpha  occ. eigenvalues --  -10.22835 -10.22606 -10.22592 -10.22490 -10.22289
 Alpha  occ. eigenvalues --  -10.22169 -10.21986 -10.21835 -10.21660 -10.21533
 Alpha  occ. eigenvalues --  -10.21514 -10.21406 -10.21097 -10.21080 -10.20377
 Alpha  occ. eigenvalues --  -10.20367 -10.20346 -10.20049 -10.19808 -10.19537
 Alpha  occ. eigenvalues --  -10.18690  -3.09860  -1.84803  -1.84344  -1.84251
 Alpha  occ. eigenvalues --   -1.18000  -1.12247  -1.06667  -1.05230  -1.01685
 Alpha  occ. eigenvalues --   -1.01657  -1.01206  -1.00449  -0.99609  -0.99226
 Alpha  occ. eigenvalues --   -0.98238  -0.88924  -0.87379  -0.86289  -0.86175
 Alpha  occ. eigenvalues --   -0.85806  -0.85147  -0.84494  -0.84373  -0.83711
 Alpha  occ. eigenvalues --   -0.82832  -0.82495  -0.82118  -0.81276  -0.80763
 Alpha  occ. eigenvalues --   -0.79609  -0.78711  -0.78459  -0.78014  -0.76957
 Alpha  occ. eigenvalues --   -0.75946  -0.74704  -0.74370  -0.73646  -0.72198
 Alpha  occ. eigenvalues --   -0.72158  -0.71460  -0.70921  -0.70361  -0.69988
 Alpha  occ. eigenvalues --   -0.69658  -0.68978  -0.68009  -0.66882  -0.66699
 Alpha  occ. eigenvalues --   -0.66515  -0.64704  -0.64560  -0.63280  -0.62959
 Alpha  occ. eigenvalues --   -0.61930  -0.61235  -0.60983  -0.59289  -0.59122
 Alpha  occ. eigenvalues --   -0.58643  -0.58413  -0.58080  -0.57628  -0.57368
 Alpha  occ. eigenvalues --   -0.55899  -0.55735  -0.55081  -0.54967  -0.54719
 Alpha  occ. eigenvalues --   -0.54047  -0.53704  -0.53316  -0.53097  -0.52859
 Alpha  occ. eigenvalues --   -0.52110  -0.51619  -0.51472  -0.51421  -0.51203
 Alpha  occ. eigenvalues --   -0.50968  -0.49931  -0.49812  -0.49590  -0.49514
 Alpha  occ. eigenvalues --   -0.49243  -0.49041  -0.48641  -0.48428  -0.48236
 Alpha  occ. eigenvalues --   -0.47794  -0.47594  -0.47355  -0.47126  -0.47058
 Alpha  occ. eigenvalues --   -0.46588  -0.46419  -0.46186  -0.45936  -0.45613
 Alpha  occ. eigenvalues --   -0.45164  -0.44947  -0.44778  -0.44692  -0.44608
 Alpha  occ. eigenvalues --   -0.44522  -0.44286  -0.44218  -0.44019  -0.43492
 Alpha  occ. eigenvalues --   -0.43293  -0.43202  -0.43005  -0.42848  -0.42729
 Alpha  occ. eigenvalues --   -0.42196  -0.41781  -0.41641  -0.41539  -0.41395
 Alpha  occ. eigenvalues --   -0.41353  -0.41226  -0.40956  -0.40931  -0.40781
 Alpha  occ. eigenvalues --   -0.40668  -0.40527  -0.39996  -0.39828  -0.39697
 Alpha  occ. eigenvalues --   -0.39373  -0.39291  -0.38843  -0.38685  -0.38569
 Alpha  occ. eigenvalues --   -0.38449  -0.38393  -0.38336  -0.38122  -0.38059
 Alpha  occ. eigenvalues --   -0.37936  -0.37624  -0.37271  -0.37130  -0.36808
 Alpha  occ. eigenvalues --   -0.36564  -0.36405  -0.36006  -0.35814  -0.35764
 Alpha  occ. eigenvalues --   -0.35639  -0.35341  -0.35097  -0.34443  -0.34423
 Alpha  occ. eigenvalues --   -0.34165  -0.33659  -0.33528  -0.33278  -0.32902
 Alpha  occ. eigenvalues --   -0.32747  -0.32568  -0.32187  -0.31862  -0.31376
 Alpha  occ. eigenvalues --   -0.31340  -0.30292  -0.30222  -0.29784  -0.29156
 Alpha  occ. eigenvalues --   -0.28943  -0.28756  -0.28350  -0.27893  -0.27449
 Alpha  occ. eigenvalues --   -0.27191  -0.26554  -0.23660  -0.21274
 Alpha virt. eigenvalues --   -0.08335  -0.06769  -0.02132  -0.01952  -0.00101
 Alpha virt. eigenvalues --    0.01329   0.03447   0.03576   0.04040   0.04370
 Alpha virt. eigenvalues --    0.04982   0.05582   0.07516   0.08089   0.08573

 Mulliken charges:
               1
     1  Mg   0.830996
     2  C    0.136109
     3  C   -0.160194
     4  C   -0.172786
     5  C   -0.186698
     6  N   -0.651156
     7  C    0.344848
     8  C   -0.169055
     9  C   -0.197100
    10  C    0.386884
    11  C   -0.304378
    12  C   -0.127378
    13  C   -0.261755
    14  C    0.629967
    15  O   -0.507003
    16  O   -0.464291
    17  N   -0.737597
    18  C    0.330871
    19  C    0.052784
    20  C   -0.033919
    21  C    0.305932
    22  C   -0.384425
    23  C    0.250157
    24  O   -0.447721
    25  N   -0.684951
    26  C    0.269850
    27  C   -0.020107
    28  C    0.056498
    29  C    0.299086
    30  C    0.242313
    31  C   -0.264920
    32  C   -0.301694
    33  N   -0.738688
    34  C    0.294768
    35  C    0.034405
    36  C    0.047710
    37  C    0.263696
    38  C   -0.393017
    39  C    0.360602
    40  O   -0.458011
    41  C   -0.365230
    42  C    0.599488
    43  O   -0.539672
    44  O   -0.371829
    45  C   -0.096322
    46  C   -0.000973
    47  C   -0.131142
    48  C    0.101734
    49  C   -0.385706
    50  C   -0.229140
    51  C   -0.129590
    52  C   -0.177454
    53  C   -0.077092
    54  C   -0.311021
    55  C   -0.160048
    56  C   -0.180855
    57  C   -0.152534
    58  C   -0.071973
    59  C   -0.293513
    60  C   -0.164361
    61  C   -0.178759
    62  C   -0.152034
    63  C   -0.044938
    64  C   -0.300055
    65  C   -0.314149
    66  H    0.068983
    67  H    0.134083
    68  H    0.074124
    69  H    0.130484
    70  H    0.115456
    71  H    0.118281
    72  H    0.068219
    73  H    0.125502
    74  H    0.123137
    75  H    0.128851
    76  H    0.111128
    77  H    0.127430
    78  H    0.137712
    79  H    0.123415
    80  H    0.118817
    81  H    0.105768
    82  H    0.112945
    83  H    0.100166
    84  H    0.118107
    85  H    0.125575
    86  H    0.101836
    87  H    0.137194
    88  H    0.147809
    89  H    0.100946
    90  H    0.157900
    91  H    0.118385
    92  H    0.138107
    93  H    0.062383
    94  H    0.151619
    95  H    0.110678
    96  H    0.114541
    97  H    0.104610
    98  H    0.086476
    99  H    0.107025
   100  H    0.072018
   101  H    0.095998
   102  H    0.098404
   103  H    0.077876
   104  H    0.101870
   105  H    0.116237
   106  H    0.092604
   107  H    0.101092
   108  H    0.051827
   109  H    0.102363
   110  H    0.066917
   111  H    0.100538
   112  H    0.069539
   113  H    0.067913
   114  H    0.104663
   115  H    0.106643
   116  H    0.106904
   117  H    0.098750
   118  H    0.055772
   119  H    0.067277
   120  H    0.066000
   121  H    0.083654
   122  H    0.090780
   123  H    0.102658
   124  H    0.096152
   125  H    0.107771
   126  H    0.104134
   127  H    0.088974
   128  H    0.079982
   129  H    0.086084
   130  H    0.141335
   131  H    0.151942
   132  H    0.138575
   133  O   -0.428945
   134  H    0.084544
 Sum of Mulliken charges =   0.00000

 Dipole moment (field-independent basis, Debye):
    X=              1.6885    Y=             -5.5721    Z=             -2.4365  Tot=              6.3115
 Quadrupole moment (field-independent basis, Debye-Ang):
   XX=           -379.4871   YY=           -423.6517   ZZ=           -402.0320
   XY=             12.4233   XZ=             33.6593   YZ=            -39.9951

 Normal termination of Gaussian 09 at Fri Oct  4 11:05:47 2019.
