 Gaussian 09, Revision D.01,
 Gaussian 09:  ES64L-G09RevD.01 24-Apr-2013

 ----------------------------------------------------------------------
 # td=(NStates=1) iop(3/107=0140000000,3/108=0140000000) iop(3/107=0140
 000000,3/108=0140000000) CAM-B3LYP/6-31G(d,p)
 ----------------------------------------------------------------------

 --
 TD
 --
 Symbolic Z-matrix:
 Charge =  0 Multiplicity = 1

                         Standard orientation:
 ---------------------------------------------------------------------
 Center     Atomic      Atomic             Coordinates (Angstroms)
 Number     Number       Type             X           Y           Z
 ---------------------------------------------------------------------
      1         12           0       -5.551822    1.257185    0.110791
      2          6           0       -4.932064   -2.056054   -0.374412
      3          6           0       -3.379766    1.083447    2.812447
      4          6           0       -6.305750    4.506986    0.709353
      5          6           0       -7.890999    1.258438   -2.389301
      6          7           0       -4.257181   -0.252012    1.071110
      7          6           0       -4.160444   -1.625007    0.638860
      8          6           0       -3.191676   -2.414913    1.543108
      9          6           0       -2.855768   -1.397771    2.600313
     10          6           0       -3.476483    0.005473    2.185425
     11          6           0       -3.451267   -1.651696    4.015803
     12          6           0       -1.947462   -2.795229    0.630990
     13          6           0       -0.920790   -3.517717    1.399948
     14          6           0        0.283303   -3.986487    0.763336
     15          8           0        0.459306   -3.506764   -0.434240
     16          8           0        1.019496   -4.857675    1.419698
     17          7           0       -4.954693    2.588050    1.505728
     18          6           0       -3.986633    2.435082    2.537519
     19          6           0       -3.800951    3.584008    3.226895
     20          6           0       -4.574211    4.557263    2.590495
     21          6           0       -5.358345    3.950988    1.556019
     22          6           0       -2.981932    3.753926    4.406112
     23          6           0       -4.671777    5.925924    2.982482
     24          8           0       -4.124295    6.530032    3.947899
     25          7           0       -6.763953    2.639419   -0.807572
     26          6           0       -6.907331    3.930604   -0.385762
     27          6           0       -7.902903    4.527916   -1.205234
     28          6           0       -8.372695    3.674692   -2.146482
     29          6           0       -7.642430    2.470358   -1.825248
     30          6           0       -8.384747    5.972102   -1.046149
     31          6           0       -9.480765    3.756863   -3.141053
     32          6           0       -8.751257    4.190809   -4.533365
     33          7           0       -6.284891   -0.115624   -1.217885
     34          6           0       -7.267779   -0.010602   -2.182115
     35          6           0       -7.478346   -1.288735   -2.780539
     36          6           0       -6.488181   -2.084252   -2.180546
     37          6           0       -5.834480   -1.327875   -1.168381
     38          6           0       -8.427060   -1.643972   -3.879993
     39          6           0       -6.097261   -3.500744   -2.126520
     40          8           0       -6.479000   -4.458112   -2.787720
     41          6           0       -5.051894   -3.510079   -0.946993
     42          6           0       -5.246213   -4.720099   -0.045499
     43          8           0       -5.608735   -4.604609    1.143106
     44          8           0       -5.027855   -5.870165   -0.557950
     45          6           0       -5.276892   -7.025591    0.366820
     46          6           0        2.386406   -5.232911    0.730505
     47          6           0        3.446324   -4.284604    1.160333
     48          6           0        3.998443   -3.401004    0.298333
     49          6           0        3.676712   -3.030593   -1.068501
     50          6           0        5.087816   -2.433060    0.813124
     51          6           0        6.441790   -2.563215    0.034430
     52          6           0        7.625892   -1.819806    0.678266
     53          6           0        8.992388   -2.041880   -0.100021
     54          6           0        9.494260   -3.450684    0.210717
     55          6           0        9.993777   -0.892062    0.481446
     56          6           0       11.263987   -0.774685   -0.338776
     57          6           0       12.126164    0.471361    0.076001
     58          6           0       13.516244    0.678900   -0.636258
     59          6           0       14.387829   -0.650160   -0.555294
     60          6           0       14.143037    1.917177   -0.258696
     61          6           0       15.414128    2.235541   -1.029561
     62          6           0       15.968595    3.595327   -0.649049
     63          6           0       17.229368    3.970993   -1.321347
     64          6           0       17.108544    3.974265   -2.799770
     65          6           0       17.775245    5.205771   -0.906605
     66          1           0       -2.913918    1.084688    3.746672
     67          1           0       -6.658912    5.510434    0.976172
     68          1           0       -8.745249    1.338569   -3.109696
     69          1           0       -3.604897   -3.359095    2.074691
     70          1           0       -1.865068   -1.469873    2.821806
     71          1           0       -3.027818   -2.546594    4.445601
     72          1           0       -3.211245   -0.946415    4.909057
     73          1           0       -4.501485   -1.865894    4.154103
     74          1           0       -2.256796   -3.310664   -0.107068
     75          1           0       -1.570088   -1.907548    0.165128
     76          1           0       -0.598222   -2.917215    2.353690
     77          1           0       -1.456098   -4.403405    1.751535
     78          1           0       -1.859321    3.327113    4.380006
     79          1           0       -2.919050    4.673855    4.790021
     80          1           0       -3.396520    3.177627    5.275104
     81          1           0       -5.395180    6.531062    2.314257
     82          1           0      -10.209966    2.961099   -3.372015
     83          1           0      -10.157649    4.720730   -2.923553
     84          1           0       -9.372596    4.533001   -5.318502
     85          1           0       -7.954093    5.096567   -4.212367
     86          1           0       -8.494953    3.391475   -4.982523
     87          1           0       -8.189292   -0.999272   -4.706200
     88          1           0       -8.315508   -2.514307   -4.207854
     89          1           0       -9.433932   -1.661530   -3.696066
     90          1           0       -4.051535   -3.682774   -1.663853
     91          1           0        2.507725   -6.422083    1.044488
     92          1           0        2.253353   -5.133515   -0.428712
     93          1           0        3.850010   -4.265816    2.056825
     94          1           0        2.618717   -3.433841   -1.145418
     95          1           0        3.773949   -2.011618   -1.544449
     96          1           0        4.390717   -3.590008   -1.721279
     97          1           0        4.640627   -1.373391    0.451064
     98          1           0        5.418250   -2.551284    1.971158
     99          1           0        6.604687   -3.630705   -0.059605
    100          1           0        6.359244   -2.457354   -1.098898
    101          1           0        7.285551   -0.704040    0.986008
    102          1           0        7.855363   -2.446025    1.726373
    103          1           0        8.834906   -1.787133   -1.129696
    104          1           0        8.730855   -4.193142   -0.104635
    105          1           0       10.319967   -3.567518   -0.226901
    106          1           0        9.947547   -3.651459    1.208474
    107          1           0        9.523521   -0.076072    0.400330
    108          1           0       10.192099   -0.834123    1.633194
    109          1           0       11.885495   -1.706634   -0.130751
    110          1           0       11.058515   -0.676792   -1.371903
    111          1           0       11.317537    1.460753   -0.300036
    112          1           0       12.333179    0.493797    1.266201
    113          1           0       13.114313    0.793786   -1.623882
    114          1           0       14.601624   -0.686912    0.434115
    115          1           0       14.004646   -1.738092   -0.618685
    116          1           0       15.187987   -0.679469   -1.168994
    117          1           0       13.350219    2.618828   -0.315209
    118          1           0       14.574463    1.878568    0.733646
    119          1           0       16.345090    1.632648   -0.668632
    120          1           0       15.296452    1.937009   -2.046904
    121          1           0       15.353535    4.552851   -0.666792
    122          1           0       16.089426    3.546060    0.320429
    123          1           0       17.961926    3.061814   -1.042106
    124          1           0       16.489666    4.762895   -3.305363
    125          1           0       18.150440    4.189211   -3.245797
    126          1           0       16.814612    3.092623   -3.322240
    127          1           0       17.865052    5.180532    0.112585
    128          1           0       18.662768    5.434139   -1.460366
    129          1           0       16.836870    5.959796   -0.743923
    130          1           0       -4.895825   -7.861767   -0.243677
    131          1           0       -6.322034   -7.203672    0.763436
    132          1           0       -4.861059   -7.000476    1.233138
    133          8           0       -7.960347    6.759811   -0.281548
    134          1           0       -9.126436    6.264454   -1.813539
 ---------------------------------------------------------------------

 SCF Done:  E(RCAM-B3LYP) =  -3043.34958403     A.U. after   16 cycles

 Excitation energies and oscillator strengths:

 Excited State   1:      Singlet-A      2.0597 eV  601.96 nm  f=0.2547  <S**2>=0.000
     243 -> 245       -0.29513
     243 -> 246       -0.21102
     244 -> 245        0.58654
     244 -> 246       -0.12624
 This state for optimization and/or second-order correction.
 Total Energy, E(TD-HF/TD-KS) =  -3043.27389288
 Copying the excited state density for this state as the 1-particle RhoCI density.

 The electronic state is 1-A.
 Alpha  occ. eigenvalues --  -46.81104 -19.23854 -19.23361 -19.18507 -19.17012
 Alpha  occ. eigenvalues --  -19.15886 -19.15382 -19.15363 -14.37769 -14.36980
 Alpha  occ. eigenvalues --  -14.36597 -14.36142 -10.34787 -10.34481 -10.31341
 Alpha  occ. eigenvalues --  -10.31139 -10.30670 -10.29384 -10.27389 -10.27278
 Alpha  occ. eigenvalues --  -10.26490 -10.26432 -10.26299 -10.26234 -10.26113
 Alpha  occ. eigenvalues --  -10.25941 -10.25900 -10.25539 -10.25352 -10.25111
 Alpha  occ. eigenvalues --  -10.24965 -10.24847 -10.24166 -10.24131 -10.23964
 Alpha  occ. eigenvalues --  -10.23922 -10.23902 -10.23865 -10.23470 -10.23250
 Alpha  occ. eigenvalues --  -10.23227 -10.23090 -10.22999 -10.22724 -10.22502
 Alpha  occ. eigenvalues --  -10.22414 -10.21868 -10.21811 -10.21464 -10.21395
 Alpha  occ. eigenvalues --  -10.21378 -10.21210 -10.21105 -10.21061 -10.20929
 Alpha  occ. eigenvalues --  -10.20914 -10.20882 -10.20605 -10.20168 -10.19855
 Alpha  occ. eigenvalues --  -10.19665 -10.19610 -10.19413 -10.19297 -10.19249
 Alpha  occ. eigenvalues --  -10.19196  -3.09611  -1.84561  -1.84103  -1.83992
 Alpha  occ. eigenvalues --   -1.15073  -1.11655  -1.10276  -1.06297  -1.02998
 Alpha  occ. eigenvalues --   -1.02243  -1.01628  -1.00754  -1.00440  -0.97933
 Alpha  occ. eigenvalues --   -0.96550  -0.88176  -0.87134  -0.86671  -0.86054
 Alpha  occ. eigenvalues --   -0.85776  -0.85065  -0.84683  -0.84131  -0.83854
 Alpha  occ. eigenvalues --   -0.83693  -0.82970  -0.81378  -0.80570  -0.80071
 Alpha  occ. eigenvalues --   -0.79060  -0.78698  -0.78433  -0.77775  -0.77094
 Alpha  occ. eigenvalues --   -0.76284  -0.75829  -0.74433  -0.73831  -0.73060
 Alpha  occ. eigenvalues --   -0.72229  -0.71645  -0.71326  -0.70936  -0.70504
 Alpha  occ. eigenvalues --   -0.69793  -0.68951  -0.67644  -0.67267  -0.66611
 Alpha  occ. eigenvalues --   -0.65977  -0.65150  -0.64819  -0.63100  -0.62337
 Alpha  occ. eigenvalues --   -0.61351  -0.61100  -0.60463  -0.59804  -0.59495
 Alpha  occ. eigenvalues --   -0.58953  -0.58610  -0.58347  -0.57384  -0.57005
 Alpha  occ. eigenvalues --   -0.56379  -0.55934  -0.55721  -0.55575  -0.54821
 Alpha  occ. eigenvalues --   -0.53621  -0.53438  -0.53160  -0.52758  -0.52044
 Alpha  occ. eigenvalues --   -0.51776  -0.51586  -0.51027  -0.50631  -0.50409
 Alpha  occ. eigenvalues --   -0.50147  -0.49939  -0.49743  -0.49623  -0.49318
 Alpha  occ. eigenvalues --   -0.49168  -0.49043  -0.48798  -0.48556  -0.48283
 Alpha  occ. eigenvalues --   -0.47888  -0.47669  -0.47531  -0.47149  -0.46982
 Alpha  occ. eigenvalues --   -0.46705  -0.46503  -0.46241  -0.46090  -0.45792
 Alpha  occ. eigenvalues --   -0.45618  -0.45398  -0.45110  -0.44934  -0.44716
 Alpha  occ. eigenvalues --   -0.44605  -0.44531  -0.44276  -0.44246  -0.43641
 Alpha  occ. eigenvalues --   -0.43435  -0.43320  -0.43289  -0.43019  -0.42774
 Alpha  occ. eigenvalues --   -0.42467  -0.42315  -0.42087  -0.42005  -0.41770
 Alpha  occ. eigenvalues --   -0.41676  -0.41367  -0.41259  -0.40960  -0.40798
 Alpha  occ. eigenvalues --   -0.40721  -0.40411  -0.40354  -0.40256  -0.39954
 Alpha  occ. eigenvalues --   -0.39836  -0.39637  -0.39526  -0.39405  -0.39166
 Alpha  occ. eigenvalues --   -0.39041  -0.38730  -0.38490  -0.38245  -0.38095
 Alpha  occ. eigenvalues --   -0.37978  -0.37800  -0.37467  -0.37208  -0.37078
 Alpha  occ. eigenvalues --   -0.36710  -0.36402  -0.36161  -0.35884  -0.35630
 Alpha  occ. eigenvalues --   -0.35359  -0.35252  -0.34963  -0.34880  -0.34653
 Alpha  occ. eigenvalues --   -0.33750  -0.33718  -0.33413  -0.33020  -0.33005
 Alpha  occ. eigenvalues --   -0.32667  -0.32482  -0.32248  -0.31836  -0.31627
 Alpha  occ. eigenvalues --   -0.30842  -0.30549  -0.30413  -0.29445  -0.29219
 Alpha  occ. eigenvalues --   -0.28535  -0.28494  -0.28072  -0.27692  -0.27412
 Alpha  occ. eigenvalues --   -0.27112  -0.26523  -0.22911  -0.22420
 Alpha virt. eigenvalues --   -0.09650  -0.06030  -0.00651  -0.00537   0.01527
 Alpha virt. eigenvalues --    0.01659   0.03280   0.03440   0.04136   0.04625
 Alpha virt. eigenvalues --    0.05610   0.06365   0.07963   0.08978   0.09283

 Mulliken charges:
               1
     1  Mg   0.816136
     2  C    0.127467
     3  C   -0.188516
     4  C   -0.172972
     5  C   -0.180287
     6  N   -0.665798
     7  C    0.270471
     8  C   -0.154951
     9  C   -0.117421
    10  C    0.420206
    11  C   -0.345757
    12  C   -0.143571
    13  C   -0.259220
    14  C    0.617519
    15  O   -0.525887
    16  O   -0.461600
    17  N   -0.726625
    18  C    0.266020
    19  C    0.110638
    20  C   -0.022166
    21  C    0.316707
    22  C   -0.393537
    23  C    0.216118
    24  O   -0.452073
    25  N   -0.714024
    26  C    0.343208
    27  C   -0.087727
    28  C    0.103254
    29  C    0.304664
    30  C    0.271858
    31  C   -0.287388
    32  C   -0.304954
    33  N   -0.758075
    34  C    0.272478
    35  C    0.024351
    36  C   -0.033890
    37  C    0.355497
    38  C   -0.360945
    39  C    0.372961
    40  O   -0.462671
    41  C   -0.336808
    42  C    0.627681
    43  O   -0.519751
    44  O   -0.409833
    45  C   -0.095461
    46  C   -0.041632
    47  C   -0.079082
    48  C    0.149427
    49  C   -0.395349
    50  C   -0.218084
    51  C   -0.183886
    52  C   -0.154107
    53  C   -0.065813
    54  C   -0.302421
    55  C   -0.162881
    56  C   -0.169275
    57  C   -0.167808
    58  C   -0.062328
    59  C   -0.329326
    60  C   -0.140242
    61  C   -0.192455
    62  C   -0.156996
    63  C   -0.027850
    64  C   -0.299754
    65  C   -0.288504
    66  H    0.076548
    67  H    0.143928
    68  H    0.080794
    69  H    0.132920
    70  H    0.102450
    71  H    0.101095
    72  H    0.098202
    73  H    0.129493
    74  H    0.114716
    75  H    0.123650
    76  H    0.120416
    77  H    0.126353
    78  H    0.101595
    79  H    0.160141
    80  H    0.121520
    81  H    0.062963
    82  H    0.128729
    83  H    0.105398
    84  H    0.109439
    85  H    0.099434
    86  H    0.129280
    87  H    0.123968
    88  H    0.149028
    89  H    0.130794
    90  H    0.145382
    91  H    0.112043
    92  H    0.143809
    93  H    0.077167
    94  H    0.151494
    95  H    0.128029
    96  H    0.117866
    97  H    0.093750
    98  H    0.078831
    99  H    0.098582
   100  H    0.080215
   101  H    0.076911
   102  H    0.067708
   103  H    0.092394
   104  H    0.100041
   105  H    0.114223
   106  H    0.099556
   107  H    0.100746
   108  H    0.073148
   109  H    0.085137
   110  H    0.098155
   111  H    0.029498
   112  H    0.064487
   113  H    0.087977
   114  H    0.113834
   115  H    0.087125
   116  H    0.114366
   117  H    0.102336
   118  H    0.086819
   119  H    0.081987
   120  H    0.095626
   121  H    0.066219
   122  H    0.099372
   123  H    0.053315
   124  H    0.095434
   125  H    0.076105
   126  H    0.102106
   127  H    0.105491
   128  H    0.106315
   129  H    0.069691
   130  H    0.126956
   131  H    0.134343
   132  H    0.151184
   133  O   -0.385092
   134  H    0.059502
 Sum of Mulliken charges =   0.00000

 Dipole moment (field-independent basis, Debye):
    X=              1.8752    Y=             -5.3208    Z=             -2.5643  Tot=              6.1970
 Quadrupole moment (field-independent basis, Debye-Ang):
   XX=           -346.8821   YY=           -431.7857   ZZ=           -393.1360
   XY=             -6.0583   XZ=             34.2498   YZ=            -40.3745

 Normal termination of Gaussian 09 at Fri Oct  4 08:34:09 2019.
