 Gaussian 09, Revision D.01,
 Gaussian 09:  ES64L-G09RevD.01 24-Apr-2013

 ----------------------------------------------------------------------
 # td=(NStates=1) iop(3/107=0140000000,3/108=0140000000) iop(3/107=0140
 000000,3/108=0140000000) CAM-B3LYP/6-31G(d,p)
 ----------------------------------------------------------------------

 --
 TD
 --
 Symbolic Z-matrix:
 Charge =  0 Multiplicity = 1

                         Standard orientation:
 ---------------------------------------------------------------------
 Center     Atomic      Atomic             Coordinates (Angstroms)
 Number     Number       Type             X           Y           Z
 ---------------------------------------------------------------------
      1         12           0       -5.682259    1.236294    0.203793
      2          6           0       -4.982980   -2.122612   -0.367403
      3          6           0       -3.460398    1.255132    2.864108
      4          6           0       -6.350193    4.541173    0.754995
      5          6           0       -7.958434    1.100677   -2.421937
      6          7           0       -4.233212   -0.217800    1.015714
      7          6           0       -4.219969   -1.528205    0.757560
      8          6           0       -3.234637   -2.285431    1.438909
      9          6           0       -2.856176   -1.343765    2.565653
     10          6           0       -3.530497   -0.052706    2.083965
     11          6           0       -3.516988   -1.834843    3.877783
     12          6           0       -1.983591   -2.672929    0.592002
     13          6           0       -1.008533   -3.579931    1.318476
     14          6           0        0.328049   -3.832986    0.654745
     15          8           0        0.701963   -3.372526   -0.413987
     16          8           0        1.015893   -4.738848    1.367921
     17          7           0       -5.023574    2.658164    1.534192
     18          6           0       -3.975396    2.493763    2.506252
     19          6           0       -3.743009    3.772383    3.178862
     20          6           0       -4.514202    4.666654    2.623492
     21          6           0       -5.302120    3.930320    1.540370
     22          6           0       -2.634552    3.893998    4.158763
     23          6           0       -4.519730    6.131767    2.840932
     24          8           0       -3.768558    6.637138    3.622713
     25          7           0       -6.983264    2.621475   -0.718947
     26          6           0       -7.030243    3.916888   -0.326815
     27          6           0       -8.074068    4.540070   -1.153383
     28          6           0       -8.641900    3.538436   -1.967707
     29          6           0       -7.824135    2.372378   -1.699695
     30          6           0       -8.438738    5.956999   -1.155048
     31          6           0       -9.523353    3.764923   -3.104412
     32          6           0       -8.908664    4.003307   -4.513087
     33          7           0       -6.378539   -0.097166   -1.169777
     34          6           0       -7.334326   -0.131276   -2.007495
     35          6           0       -7.554092   -1.379753   -2.736945
     36          6           0       -6.608948   -2.235873   -2.056252
     37          6           0       -5.811040   -1.366611   -1.142320
     38          6           0       -8.623711   -1.829516   -3.755304
     39          6           0       -6.250475   -3.635461   -1.867020
     40          8           0       -6.665697   -4.569904   -2.440283
     41          6           0       -5.003558   -3.549868   -0.874499
     42          6           0       -5.229047   -4.629472    0.144997
     43          8           0       -5.679550   -4.557311    1.234370
     44          8           0       -4.960407   -5.771373   -0.462767
     45          6           0       -5.188240   -6.998558    0.306580
     46          6           0        2.344657   -5.149508    0.755752
     47          6           0        3.445949   -4.180595    1.059599
     48          6           0        4.088920   -3.372879    0.226885
     49          6           0        3.686904   -3.134354   -1.238374
     50          6           0        5.187653   -2.513974    0.781078
     51          6           0        6.651375   -2.693890    0.143453
     52          6           0        7.622418   -1.650699    0.602879
     53          6           0        8.972555   -1.995862   -0.100423
     54          6           0        9.599514   -3.330381    0.114355
     55          6           0       10.012009   -0.834155    0.347095
     56          6           0       11.451578   -0.844454   -0.259003
     57          6           0       12.224204    0.372635    0.160132
     58          6           0       13.512978    0.457066   -0.561291
     59          6           0       14.513451   -0.768635   -0.347727
     60          6           0       14.256666    1.730481   -0.134452
     61          6           0       15.548983    2.153147   -0.932288
     62          6           0       15.895609    3.552749   -0.745434
     63          6           0       17.313310    3.861980   -1.466491
     64          6           0       17.060818    4.074131   -2.949925
     65          6           0       17.911827    5.264050   -0.893407
     66          1           0       -2.456076    1.284158    3.498756
     67          1           0       -6.667114    5.659427    0.932997
     68          1           0       -8.863249    1.036075   -3.111930
     69          1           0       -3.645896   -3.205954    1.914750
     70          1           0       -1.767628   -1.261675    2.667739
     71          1           0       -3.348466   -2.742366    4.348649
     72          1           0       -3.412339   -1.072286    4.644664
     73          1           0       -4.551381   -1.800645    3.744099
     74          1           0       -2.105824   -2.978773   -0.479447
     75          1           0       -1.413122   -1.746306    0.245825
     76          1           0       -0.709587   -2.986228    2.321488
     77          1           0       -1.240566   -4.556445    1.531146
     78          1           0       -1.701779    3.200812    3.695432
     79          1           0       -2.432107    4.877096    4.498393
     80          1           0       -3.014655    3.275960    4.991777
     81          1           0       -5.199811    6.645211    2.099580
     82          1           0      -10.235308    2.867337   -3.148253
     83          1           0      -10.248607    4.663196   -2.893541
     84          1           0       -9.674834    4.539347   -5.298479
     85          1           0       -8.128991    4.803778   -4.595938
     86          1           0       -8.529268    3.123763   -4.794220
     87          1           0       -8.530337   -1.010198   -4.701164
     88          1           0       -8.353086   -2.914066   -4.231974
     89          1           0       -9.795216   -1.723709   -3.332052
     90          1           0       -4.135164   -3.819038   -1.534191
     91          1           0        2.530773   -6.172515    1.089106
     92          1           0        2.173360   -5.418262   -0.227543
     93          1           0        3.829876   -4.267592    2.129300
     94          1           0        2.798755   -3.717987   -1.410432
     95          1           0        3.451119   -1.944813   -1.233462
     96          1           0        4.817991   -3.417576   -1.822426
     97          1           0        4.647129   -1.441607    0.684141
     98          1           0        5.421776   -2.473780    1.875853
     99          1           0        7.026757   -3.670202    0.560563
    100          1           0        6.695580   -2.798097   -1.012615
    101          1           0        7.156810   -0.749463    0.289076
    102          1           0        7.741664   -1.554267    1.831287
    103          1           0        8.885353   -1.780546   -1.185426
    104          1           0        8.843638   -3.952565   -0.198807
    105          1           0       10.400235   -3.275881   -0.544752
    106          1           0        9.705274   -3.579881    1.244314
    107          1           0        9.591837    0.078222   -0.016837
    108          1           0       10.172985   -0.927931    1.527574
    109          1           0       11.638255   -2.032489    0.249288
    110          1           0       11.279176   -0.672767   -1.227826
    111          1           0       11.462801    1.234778    0.038360
    112          1           0       12.478041    0.345844    1.221829
    113          1           0       13.329528    0.652685   -1.765808
    114          1           0       14.727971   -0.699153    0.716639
    115          1           0       13.957196   -1.732799   -0.594650
    116          1           0       15.392141   -0.824981   -1.004419
    117          1           0       13.603267    2.560848   -0.260590
    118          1           0       14.589419    1.863169    0.839251
    119          1           0       16.349744    1.513164   -0.703458
    120          1           0       15.028214    1.932939   -1.988450
    121          1           0       15.253431    4.202799   -1.082195
    122          1           0       15.746883    3.529860    0.506072
    123          1           0       17.972380    3.003464   -1.179229
    124          1           0       16.401911    4.958764   -3.137582
    125          1           0       17.993087    4.044749   -3.514397
    126          1           0       16.354695    3.123570   -3.254732
    127          1           0       18.168690    5.289003    0.199620
    128          1           0       18.810293    5.811053   -1.404250
    129          1           0       17.106876    6.148145   -1.150648
    130          1           0       -4.746384   -7.831745   -0.325461
    131          1           0       -6.356868   -7.309337    0.145204
    132          1           0       -4.734992   -6.886402    1.370741
    133          8           0       -7.950788    6.833739   -0.431130
    134          1           0       -9.322762    6.210009   -1.904045
 ---------------------------------------------------------------------

 SCF Done:  E(RCAM-B3LYP) =  -3043.40093746     A.U. after   16 cycles

 Excitation energies and oscillator strengths:

 Excited State   1:      Singlet-A      1.9588 eV  632.95 nm  f=0.1250  <S**2>=0.000
     243 -> 246        0.32322
     244 -> 245        0.62034
 This state for optimization and/or second-order correction.
 Total Energy, E(TD-HF/TD-KS) =  -3043.32895231
 Copying the excited state density for this state as the 1-particle RhoCI density.

 The electronic state is 1-A.
 Alpha  occ. eigenvalues --  -46.83573 -19.22393 -19.22382 -19.17749 -19.17631
 Alpha  occ. eigenvalues --  -19.16996 -19.16898 -19.16856 -14.40565 -14.37484
 Alpha  occ. eigenvalues --  -14.37109 -14.36282 -10.34870 -10.34533 -10.31336
 Alpha  occ. eigenvalues --  -10.30539 -10.30466 -10.29734 -10.28803 -10.27624
 Alpha  occ. eigenvalues --  -10.27559 -10.26984 -10.26963 -10.26903 -10.26298
 Alpha  occ. eigenvalues --  -10.26143 -10.26065 -10.25846 -10.25618 -10.25160
 Alpha  occ. eigenvalues --  -10.24889 -10.24805 -10.24738 -10.24648 -10.24361
 Alpha  occ. eigenvalues --  -10.24238 -10.24227 -10.24010 -10.23867 -10.23861
 Alpha  occ. eigenvalues --  -10.23756 -10.23722 -10.23413 -10.23387 -10.23319
 Alpha  occ. eigenvalues --  -10.22947 -10.22935 -10.22905 -10.22585 -10.22518
 Alpha  occ. eigenvalues --  -10.22378 -10.22293 -10.22235 -10.22170 -10.22167
 Alpha  occ. eigenvalues --  -10.21679 -10.21506 -10.21270 -10.21149 -10.21014
 Alpha  occ. eigenvalues --  -10.20890 -10.20847 -10.20736 -10.20282 -10.19987
 Alpha  occ. eigenvalues --  -10.19131  -3.11873  -1.86826  -1.86355  -1.86251
 Alpha  occ. eigenvalues --   -1.14853  -1.12607  -1.09971  -1.08330  -1.05797
 Alpha  occ. eigenvalues --   -1.05298  -1.04395  -1.03820  -1.01630  -1.00436
 Alpha  occ. eigenvalues --   -0.99702  -0.89156  -0.87129  -0.86229  -0.85636
 Alpha  occ. eigenvalues --   -0.85336  -0.84656  -0.84444  -0.83250  -0.83114
 Alpha  occ. eigenvalues --   -0.82370  -0.81882  -0.81623  -0.80061  -0.79772
 Alpha  occ. eigenvalues --   -0.78791  -0.78187  -0.77168  -0.76583  -0.76339
 Alpha  occ. eigenvalues --   -0.75674  -0.74615  -0.73926  -0.72601  -0.71304
 Alpha  occ. eigenvalues --   -0.71135  -0.70364  -0.70028  -0.69684  -0.69504
 Alpha  occ. eigenvalues --   -0.68756  -0.68157  -0.67643  -0.67202  -0.66014
 Alpha  occ. eigenvalues --   -0.65568  -0.64591  -0.63821  -0.63378  -0.61481
 Alpha  occ. eigenvalues --   -0.61367  -0.60370  -0.59698  -0.59185  -0.58930
 Alpha  occ. eigenvalues --   -0.58162  -0.58099  -0.57974  -0.57398  -0.56808
 Alpha  occ. eigenvalues --   -0.56461  -0.55540  -0.55401  -0.54937  -0.54548
 Alpha  occ. eigenvalues --   -0.53941  -0.53115  -0.52625  -0.52189  -0.51876
 Alpha  occ. eigenvalues --   -0.51807  -0.51598  -0.51157  -0.51036  -0.50928
 Alpha  occ. eigenvalues --   -0.50399  -0.50233  -0.50088  -0.49695  -0.49350
 Alpha  occ. eigenvalues --   -0.48560  -0.48434  -0.48280  -0.47733  -0.47662
 Alpha  occ. eigenvalues --   -0.47350  -0.47213  -0.47084  -0.46938  -0.46851
 Alpha  occ. eigenvalues --   -0.46374  -0.46206  -0.45989  -0.45810  -0.45761
 Alpha  occ. eigenvalues --   -0.45612  -0.45390  -0.44997  -0.44834  -0.44506
 Alpha  occ. eigenvalues --   -0.44230  -0.44177  -0.43878  -0.43668  -0.43397
 Alpha  occ. eigenvalues --   -0.43197  -0.42989  -0.42883  -0.42767  -0.42653
 Alpha  occ. eigenvalues --   -0.42428  -0.42349  -0.42317  -0.42136  -0.41986
 Alpha  occ. eigenvalues --   -0.41864  -0.41651  -0.41550  -0.41290  -0.40935
 Alpha  occ. eigenvalues --   -0.40858  -0.40750  -0.40610  -0.40489  -0.40374
 Alpha  occ. eigenvalues --   -0.40238  -0.39838  -0.39671  -0.39529  -0.39320
 Alpha  occ. eigenvalues --   -0.39194  -0.38713  -0.38591  -0.38418  -0.38280
 Alpha  occ. eigenvalues --   -0.38105  -0.38013  -0.37795  -0.37673  -0.37173
 Alpha  occ. eigenvalues --   -0.36721  -0.36503  -0.36439  -0.36048  -0.35948
 Alpha  occ. eigenvalues --   -0.35619  -0.34951  -0.34883  -0.34656  -0.34445
 Alpha  occ. eigenvalues --   -0.34323  -0.34301  -0.33686  -0.33608  -0.33330
 Alpha  occ. eigenvalues --   -0.33256  -0.32063  -0.31894  -0.31265  -0.30929
 Alpha  occ. eigenvalues --   -0.30881  -0.30784  -0.30444  -0.30039  -0.29767
 Alpha  occ. eigenvalues --   -0.29055  -0.28350  -0.28123  -0.27760  -0.27566
 Alpha  occ. eigenvalues --   -0.27510  -0.27324  -0.22451  -0.20587
 Alpha virt. eigenvalues --   -0.07638  -0.06998  -0.02916  -0.00292   0.00456
 Alpha virt. eigenvalues --    0.02647   0.03468   0.03691   0.04035   0.04246
 Alpha virt. eigenvalues --    0.04882   0.05390   0.08166   0.08274   0.08585

 Mulliken charges:
               1
     1  Mg   0.849774
     2  C    0.083951
     3  C   -0.213905
     4  C   -0.201580
     5  C   -0.165112
     6  N   -0.569182
     7  C    0.297954
     8  C   -0.143054
     9  C   -0.157752
    10  C    0.289758
    11  C   -0.329278
    12  C   -0.191064
    13  C   -0.237290
    14  C    0.592954
    15  O   -0.484110
    16  O   -0.478301
    17  N   -0.675264
    18  C    0.269959
    19  C    0.084243
    20  C   -0.054822
    21  C    0.324120
    22  C   -0.365466
    23  C    0.264945
    24  O   -0.406794
    25  N   -0.693928
    26  C    0.315679
    27  C   -0.030878
    28  C    0.031743
    29  C    0.297140
    30  C    0.242489
    31  C   -0.263725
    32  C   -0.291143
    33  N   -0.673544
    34  C    0.278368
    35  C    0.046294
    36  C   -0.028197
    37  C    0.240289
    38  C   -0.362088
    39  C    0.374452
    40  O   -0.420132
    41  C   -0.335529
    42  C    0.613890
    43  O   -0.470475
    44  O   -0.436456
    45  C   -0.089921
    46  C   -0.009194
    47  C   -0.134444
    48  C    0.136456
    49  C   -0.311777
    50  C   -0.220347
    51  C   -0.188605
    52  C   -0.144468
    53  C   -0.079274
    54  C   -0.301679
    55  C   -0.189560
    56  C   -0.155522
    57  C   -0.155971
    58  C   -0.055027
    59  C   -0.312883
    60  C   -0.195397
    61  C   -0.170329
    62  C   -0.131110
    63  C   -0.055540
    64  C   -0.299103
    65  C   -0.304507
    66  H    0.081107
    67  H    0.143167
    68  H    0.086096
    69  H    0.138280
    70  H    0.107705
    71  H    0.126905
    72  H    0.110066
    73  H    0.130614
    74  H    0.115855
    75  H    0.114237
    76  H    0.116818
    77  H    0.143128
    78  H    0.097426
    79  H    0.157747
    80  H    0.132578
    81  H    0.082615
    82  H    0.101364
    83  H    0.100827
    84  H    0.089960
    85  H    0.115567
    86  H    0.126111
    87  H    0.097471
    88  H    0.143636
    89  H    0.117928
    90  H    0.167257
    91  H    0.115958
    92  H    0.127736
    93  H    0.078479
    94  H    0.147568
    95  H    0.107110
    96  H    0.076987
    97  H    0.077948
    98  H    0.100597
    99  H    0.103032
   100  H    0.087427
   101  H    0.107572
   102  H    0.065429
   103  H    0.083685
   104  H    0.107527
   105  H    0.124471
   106  H    0.093957
   107  H    0.078918
   108  H    0.063652
   109  H    0.072028
   110  H    0.098507
   111  H    0.088864
   112  H    0.093503
   113  H    0.048401
   114  H    0.106090
   115  H    0.098521
   116  H    0.113429
   117  H    0.089160
   118  H    0.089330
   119  H    0.100011
   120  H    0.064477
   121  H    0.100423
   122  H    0.045873
   123  H    0.088354
   124  H    0.108265
   125  H    0.114668
   126  H    0.079662
   127  H    0.101799
   128  H    0.085537
   129  H    0.069086
   130  H    0.128258
   131  H    0.122257
   132  H    0.136596
   133  O   -0.436480
   134  H    0.050137
 Sum of Mulliken charges =   0.00000

 Dipole moment (field-independent basis, Debye):
    X=              2.4662    Y=             -6.3709    Z=             -0.5331  Tot=              6.8523
 Quadrupole moment (field-independent basis, Debye-Ang):
   XX=           -403.7694   YY=           -436.4264   ZZ=           -396.4312
   XY=              9.2964   XZ=             16.3014   YZ=            -26.7224

 Normal termination of Gaussian 09 at Mon Oct  7 17:01:08 2019.
